/*--------------------------------*- C++ -*----------------------------------*\
| =========                 |                                                 |
| \\      /  F ield         | OpenFOAM: The Open Source CFD Toolbox           |
|  \\    /   O peration     | Version:  v2012                                 |
|   \\  /    A nd           | Website:  www.openfoam.com                      |
|    \\/     M anipulation  |                                                 |
\*---------------------------------------------------------------------------*/
FoamFile
{
    version     2.0;
    format      ascii;
    class       volScalarField;
    location    "29";
    object      p;
}
// * * * * * * * * * * * * * * * * * * * * * * * * * * * * * * * * * * * * * //

dimensions      [0 2 -2 0 0 0 0];


internalField   nonuniform List<scalar> 
64000
(
8.37811e-22
-2.6844e-21
-2.22357e-21
-4.34146e-21
-8.40599e-21
-2.88938e-21
-4.28061e-21
-3.69438e-21
-5.08222e-21
-4.0845e-21
-4.79642e-21
-6.26674e-21
-3.91773e-21
-6.18564e-21
-3.71173e-21
-4.96372e-21
-8.5935e-22
-6.35174e-22
-1.44014e-21
-1.32114e-21
-1.53398e-21
-2.57552e-21
-2.19623e-21
4.69099e-22
-5.15193e-21
-1.80494e-21
-6.77288e-23
-3.09135e-21
-3.48947e-21
-1.35918e-21
-6.22941e-22
-5.45094e-22
-1.35596e-21
-1.40337e-21
-1.6337e-21
-4.93225e-21
-9.57401e-22
-6.00639e-22
-8.0962e-24
6.94828e-23
-6.32938e-21
-9.00603e-21
-9.16287e-21
-7.23197e-21
-1.02892e-20
-1.21428e-20
-8.40851e-21
-3.56539e-21
-3.67876e-21
-9.1111e-21
-9.48046e-21
-1.00742e-20
-4.53248e-21
-4.7097e-21
-6.03812e-21
-5.55374e-21
-3.4462e-21
2.12648e-21
-2.63862e-21
-2.13321e-21
1.36358e-21
-4.05819e-21
-5.39755e-21
-6.99698e-21
-5.53431e-21
-2.96601e-21
-3.23683e-21
-5.09807e-21
-3.47763e-21
-1.00037e-21
2.18696e-21
3.75176e-22
-3.89005e-21
-3.21363e-21
-2.32758e-21
-2.37466e-21
-1.80265e-21
-6.4521e-22
1.7472e-21
9.03908e-22
-4.90356e-21
-7.77153e-21
-1.21205e-20
-9.97982e-21
-8.86905e-21
-1.19302e-20
-9.94673e-21
-7.89055e-21
-8.78246e-21
-9.37943e-21
-6.86011e-21
-8.01758e-21
-7.38767e-21
-4.51874e-21
-3.56091e-21
-1.31278e-21
-7.87097e-21
-2.75509e-21
-9.11194e-23
-3.4088e-22
-2.59855e-21
-5.36686e-21
-5.85212e-21
-5.4831e-21
-3.98309e-21
-4.29667e-21
-5.64118e-21
-5.17241e-21
-1.40682e-21
-1.81185e-21
-1.07191e-21
-2.73717e-22
-4.14158e-21
8.80374e-23
-1.8843e-21
-4.91515e-21
1.50384e-21
1.3509e-21
9.20488e-22
8.85126e-22
-8.46215e-21
-8.48012e-21
-9.85473e-21
-1.35455e-20
-1.23651e-20
-1.28748e-20
-1.05354e-20
-7.2592e-21
-9.42805e-21
-9.58837e-21
-7.86985e-21
-9.04556e-21
-8.57366e-21
-4.76072e-21
-5.01265e-21
-2.84368e-21
-4.49475e-21
-3.62358e-21
1.97881e-21
-1.807e-21
-5.08191e-21
-8.22903e-21
-6.67788e-21
-6.87641e-21
-6.40415e-21
-3.9589e-21
-3.9415e-21
-2.10123e-21
-2.43657e-21
-2.4667e-21
1.4647e-22
-1.41877e-21
-1.58878e-21
-7.25855e-22
-1.91778e-21
-2.68152e-21
-3.33918e-22
-1.24316e-21
4.80541e-23
2.32697e-22
-1.4676e-20
-9.58308e-21
-1.0561e-20
-1.11245e-20
-1.25504e-20
-1.41359e-20
-1.05901e-20
-4.80346e-21
-8.31579e-21
-1.12564e-20
-8.62435e-21
-8.54947e-21
-6.86551e-21
-3.03759e-21
-8.78559e-21
-1.19955e-20
-4.15458e-21
-1.27144e-21
-1.70341e-21
-2.74474e-21
-3.09137e-21
-7.54044e-21
-9.07568e-21
-7.03548e-21
-4.99601e-21
-4.13166e-21
-2.27139e-21
-2.695e-21
-4.99178e-21
-6.62219e-22
9.02489e-22
1.61568e-21
1.18815e-21
-5.27026e-22
-4.37605e-21
-1.98847e-21
-1.58993e-21
-1.62681e-21
2.632e-22
-8.34262e-22
-1.10442e-20
-1.07389e-20
-9.54007e-21
-1.28892e-20
-1.25179e-20
-1.13755e-20
-8.31755e-21
-1.14651e-20
-1.12788e-20
-1.03608e-20
-7.9853e-21
-8.89885e-21
-8.19462e-21
-3.51877e-21
-7.4595e-21
-1.00521e-20
-5.12221e-21
-1.42515e-21
-1.13506e-21
-4.29617e-21
-6.04351e-22
-6.20802e-21
-1.06819e-20
-7.25561e-21
-5.31274e-21
-4.20193e-21
-4.2914e-21
-1.19677e-21
-2.21511e-21
-3.01376e-21
-2.25046e-21
-1.43355e-21
-1.44499e-22
5.43129e-22
-1.33698e-21
-1.62016e-21
-2.52123e-21
-2.48791e-21
-4.40559e-22
9.66492e-22
-1.21289e-20
-1.35288e-20
-8.34721e-21
-1.08178e-20
-1.20627e-20
-1.17581e-20
-8.77719e-21
-1.08559e-20
-1.20812e-20
-1.01515e-20
-8.00948e-21
-1.04503e-20
-7.65644e-21
-6.50397e-21
-7.31946e-21
-8.23536e-21
-5.11298e-21
-1.0006e-22
7.66701e-22
-3.06233e-21
-5.05029e-21
-7.83858e-21
-1.22753e-20
-1.02236e-20
-2.95111e-21
-4.15388e-21
-3.31146e-21
-1.62456e-21
-1.02696e-21
-9.46437e-22
-4.38984e-21
-4.2227e-21
2.13198e-22
1.89383e-22
-1.33624e-22
-3.27615e-21
-3.0628e-21
-2.04162e-21
-1.30002e-21
-3.76523e-23
-1.37451e-20
-1.28518e-20
-1.07253e-20
-1.00541e-20
-1.20247e-20
-9.72641e-21
-8.71477e-21
-1.62941e-20
-1.37693e-20
-1.08893e-20
-8.5929e-21
-8.05535e-21
-8.30432e-21
-8.70183e-21
-6.66521e-21
-9.2464e-21
-4.19862e-21
-1.72592e-21
-2.44616e-21
-3.97876e-21
-4.62938e-21
-6.78591e-21
-7.70376e-21
-8.12676e-21
-5.33002e-21
-5.59694e-21
-2.91094e-21
-5.72782e-22
-1.35777e-21
-3.23501e-21
-3.77173e-21
-3.09396e-21
5.52791e-22
-1.4178e-21
-4.13923e-21
-6.67666e-21
-1.97166e-21
-2.67413e-22
-2.19571e-22
-7.14442e-22
-1.90175e-20
-1.43083e-20
-1.16451e-20
-1.14786e-20
-1.22948e-20
-1.32773e-20
-1.17648e-20
-1.16012e-20
-1.31441e-20
-1.37211e-20
-6.83637e-21
-8.36694e-21
-7.57638e-21
-1.02341e-20
-9.08311e-21
-8.87803e-21
-4.34405e-21
1.76742e-21
-5.80948e-21
-6.63306e-21
-1.70707e-21
-6.19515e-21
-7.75493e-21
-9.9686e-21
-3.18296e-21
-3.80555e-21
-5.68898e-21
-3.07744e-21
-2.24885e-22
-3.52489e-21
-1.72013e-21
-1.30278e-21
2.47637e-22
-1.42606e-21
-5.41099e-21
-3.39074e-21
-4.14993e-21
7.50265e-22
1.02648e-21
-1.02966e-21
-1.06873e-20
-1.27372e-20
-1.31915e-20
-1.15755e-20
-1.33808e-20
-1.41731e-20
-1.15721e-20
-1.12643e-20
-1.2948e-20
-1.3458e-20
-8.99573e-21
-8.42007e-21
-7.85931e-21
-1.01534e-20
-9.3705e-21
-6.21501e-21
-5.89917e-21
-2.73121e-21
3.22422e-22
-1.95765e-21
-4.81753e-21
-4.87959e-21
-9.86654e-21
-9.08415e-21
-6.5505e-21
-2.53676e-21
-3.16869e-21
-1.06122e-21
-2.58137e-21
-2.15137e-21
-1.75301e-21
-3.0501e-22
-9.34986e-22
-1.09864e-21
-4.60054e-21
-5.05071e-21
-3.11984e-21
-6.39517e-22
-1.68065e-22
-4.59778e-22
-1.01493e-20
-1.37265e-20
-1.31483e-20
-1.53157e-20
-1.18433e-20
-1.36822e-20
-1.61729e-20
-9.29465e-21
-1.45145e-20
-1.45462e-20
-8.74126e-21
-6.1375e-21
-6.37616e-21
-9.73171e-21
-9.2034e-21
-8.92832e-21
-5.48905e-21
-1.66798e-21
2.2008e-21
-1.28127e-21
-7.65845e-21
-1.03637e-20
-8.3857e-21
-7.91677e-21
-6.78992e-21
-1.75846e-21
1.41135e-22
-1.72513e-21
-2.35787e-21
-2.58336e-21
-3.77248e-21
1.63953e-21
-3.45581e-21
-1.07144e-21
-1.44701e-21
-5.37308e-21
-2.63229e-21
-2.43969e-21
-6.54376e-22
3.41174e-22
-1.16128e-20
-1.46276e-20
-1.44753e-20
-1.31159e-20
-1.34977e-20
-1.80555e-20
-1.27617e-20
-1.17631e-20
-9.8176e-21
-1.20186e-20
-1.31377e-20
-1.00124e-20
-5.55601e-21
-9.63216e-21
-9.17276e-21
-1.12198e-20
-6.09055e-21
-7.52826e-23
-9.8194e-22
-2.03038e-21
-6.83789e-21
-1.02972e-20
-8.6396e-21
-8.54289e-21
-8.13489e-21
-8.87105e-22
-1.12066e-21
-1.90268e-21
-3.13763e-21
-1.52471e-21
-2.36769e-22
-3.53511e-22
-9.70894e-22
-1.79297e-21
1.57274e-21
-4.41452e-21
-3.09126e-21
-2.45783e-21
-6.28623e-22
-1.45655e-22
-1.78441e-20
-1.52888e-20
-1.41532e-20
-1.4005e-20
-1.52092e-20
-1.49532e-20
-1.45092e-20
-1.4187e-20
-1.39341e-20
-1.24601e-20
-1.13382e-20
-6.97794e-21
-7.06771e-21
-9.92098e-21
-9.22402e-21
-7.94287e-21
-5.33037e-21
-1.43982e-21
-1.27182e-21
-4.9319e-21
-6.51437e-21
-7.04483e-21
-7.6039e-21
-7.49089e-21
-4.90955e-21
-1.45402e-21
-1.01705e-21
-3.03151e-21
-2.28298e-21
-1.06749e-21
-4.09863e-21
-1.2512e-21
1.67177e-21
-3.98134e-21
-3.11099e-21
-2.23301e-21
-1.93794e-21
-3.00785e-21
-1.20312e-21
-9.99424e-22
-1.91357e-20
-1.81198e-20
-1.47064e-20
-1.56925e-20
-1.24925e-20
-1.23507e-20
-1.51969e-20
-1.36883e-20
-1.06444e-20
-1.44468e-20
-1.04706e-20
-7.07051e-21
-9.43801e-21
-1.42698e-20
-1.02213e-20
-7.62105e-21
-4.36348e-21
-1.65952e-22
-2.16746e-21
-3.78055e-21
-7.33803e-21
-8.57991e-21
-9.3513e-21
-9.45235e-21
-2.81222e-21
-1.17702e-21
9.09051e-22
-1.7641e-21
-3.4452e-21
1.47751e-21
-1.58118e-21
-4.22763e-21
-1.21253e-21
-1.62995e-21
-2.40265e-21
-2.57879e-21
-2.03383e-21
-2.7143e-21
-1.83508e-22
-2.21922e-21
-1.22281e-20
-1.92215e-20
-1.80664e-20
-1.39316e-20
-1.11312e-20
-1.38528e-20
-1.88926e-20
-1.87946e-20
-1.27319e-20
-9.81519e-21
-8.30326e-21
-1.16238e-20
-1.05201e-20
-1.22994e-20
-6.96091e-21
-7.85626e-21
-5.60961e-21
-4.04118e-21
-5.74149e-21
-3.05982e-22
-9.45537e-21
-5.98055e-21
-6.56707e-21
-1.05849e-20
-2.37837e-21
-2.08602e-21
-2.14258e-21
-2.17669e-21
-1.23956e-21
-1.36096e-22
1.7807e-22
-1.36237e-21
-2.18382e-21
-1.37772e-21
-3.27411e-21
-2.86692e-21
-1.16866e-21
-2.43934e-21
-1.35755e-21
4.2493e-22
-1.33276e-20
-1.42066e-20
-1.77195e-20
-1.44475e-20
-1.52045e-20
-1.33152e-20
-1.68887e-20
-1.7361e-20
-1.19772e-20
-9.54802e-21
-1.32032e-20
-1.1092e-20
-9.08154e-21
-1.0156e-20
-1.04474e-20
-9.65668e-21
-5.48986e-21
-5.18022e-21
-3.09183e-21
-1.31649e-21
-9.98331e-21
-7.98694e-21
-5.29593e-21
-5.39655e-21
-2.63834e-21
-4.30176e-21
-5.32751e-21
-2.03876e-21
1.27539e-22
-1.83554e-22
-4.45008e-22
-7.85274e-22
-1.68524e-21
-2.41702e-21
-5.10564e-21
-3.57768e-21
-7.46813e-22
1.39881e-22
-5.48202e-22
-3.02692e-22
-1.4584e-20
-1.32799e-20
-1.62527e-20
-1.20958e-20
-1.2471e-20
-1.45483e-20
-1.80613e-20
-1.8507e-20
-1.08888e-20
-1.19464e-20
-1.39843e-20
-1.31081e-20
-5.64185e-21
-9.26661e-21
-9.48164e-21
-8.78088e-21
-8.08136e-21
-5.19537e-21
-4.9902e-21
-4.42616e-21
-8.81374e-21
-6.19304e-21
-4.98607e-21
-3.0814e-21
-2.18341e-21
-2.85658e-21
-3.88613e-21
-3.51333e-21
-1.76428e-22
-2.959e-21
9.89174e-22
-3.31743e-21
-1.8557e-21
-3.87421e-22
-7.84098e-22
-2.66685e-21
-3.13593e-21
-9.83969e-22
9.83928e-22
-1.33558e-21
-1.10294e-20
-1.44001e-20
-1.88184e-20
-1.20031e-20
-9.77906e-21
-1.42968e-20
-1.80082e-20
-1.65189e-20
-1.37499e-20
-1.36408e-20
-1.30136e-20
-1.1754e-20
-7.28568e-21
-6.99806e-21
-9.28605e-21
-1.17988e-20
-8.83488e-21
-2.8434e-22
-4.47805e-21
-6.93664e-21
-1.20116e-20
-7.17049e-21
-2.20496e-21
-2.27694e-21
6.94836e-22
-5.02313e-21
-4.05069e-21
-1.98434e-21
-2.30455e-21
-1.60278e-21
-1.19939e-21
-5.42289e-22
-3.31187e-22
-2.54728e-22
-2.82871e-22
-1.98009e-21
-2.23938e-21
-2.76139e-21
3.01526e-22
-3.92335e-22
-9.31591e-21
-1.09207e-20
-1.43936e-20
-1.39769e-20
-1.30109e-20
-1.38651e-20
-1.5179e-20
-1.43175e-20
-1.41919e-20
-1.49884e-20
-1.15815e-20
-1.16003e-20
-8.72899e-21
-6.12913e-21
-1.00206e-20
-9.66123e-21
-9.18746e-21
-6.92467e-21
-1.0294e-20
-6.7387e-21
-8.48023e-21
-1.15781e-21
-2.98276e-21
-2.73909e-21
-5.21952e-22
-1.72895e-21
-3.11638e-21
-8.35916e-22
-1.20898e-21
-1.54103e-21
-4.91457e-21
-1.81234e-22
-3.16535e-23
-8.1059e-22
3.72741e-22
-1.26674e-21
-1.54011e-21
-6.85419e-22
-2.63248e-21
-2.68784e-21
-8.98682e-21
-1.04786e-20
-1.68171e-20
-1.5289e-20
-1.31308e-20
-1.14756e-20
-1.16265e-20
-1.74881e-20
-1.51296e-20
-1.49057e-20
-1.08014e-20
-1.04928e-20
-9.97487e-21
-8.55646e-21
-1.08376e-20
-9.67359e-21
-6.25963e-21
-4.68022e-21
-1.10587e-20
-6.47118e-21
-7.42569e-21
-5.6842e-21
-3.33103e-21
-3.15577e-21
2.31781e-22
1.34103e-21
-6.91116e-21
-3.4018e-21
-7.18222e-22
-7.58742e-22
-2.90955e-21
1.3741e-22
-8.46649e-22
-1.26972e-21
-6.39229e-22
1.43422e-22
-2.23497e-21
-9.80584e-22
-2.52988e-21
-2.13404e-21
-1.09541e-20
-1.33933e-20
-1.5306e-20
-1.33836e-20
-1.09573e-20
-1.08593e-20
-1.25988e-20
-1.39311e-20
-1.46614e-20
-1.47623e-20
-1.59124e-20
-1.30109e-20
-9.47456e-21
-9.67302e-21
-1.09819e-20
-5.15038e-21
-7.80846e-21
-4.06617e-21
-6.98765e-21
-7.25989e-21
-6.6941e-21
-4.37383e-21
-3.53118e-21
-5.26423e-21
-4.46208e-21
1.09784e-22
-2.64133e-21
-2.34791e-21
-2.10679e-21
-9.11664e-22
-1.52294e-21
-2.17259e-22
-3.70337e-21
6.29823e-22
-7.20285e-22
-1.22526e-21
-2.64583e-21
-1.19574e-21
6.70006e-23
-1.99229e-21
-1.65559e-20
-1.51406e-20
-1.36605e-20
-1.30572e-20
-1.2525e-20
-1.22288e-20
-1.28781e-20
-1.00884e-20
-1.34251e-20
-1.48381e-20
-1.54457e-20
-1.49754e-20
-1.18099e-20
-1.12036e-20
-9.16692e-21
-6.24348e-21
-4.74365e-21
-3.74285e-21
-7.81443e-21
-8.58487e-21
-6.49939e-21
-1.99335e-21
-4.88372e-21
-4.43892e-21
-1.94752e-21
-1.84947e-21
-4.4985e-21
-4.15773e-21
-2.99721e-21
-1.12767e-21
-1.21146e-21
1.08866e-21
-5.05642e-23
-2.31766e-22
-2.53082e-21
-5.90057e-21
-1.86404e-21
-2.47861e-21
1.77325e-21
9.02797e-22
-1.68486e-20
-1.8472e-20
-1.30972e-20
-1.29207e-20
-1.34177e-20
-1.51002e-20
-1.19829e-20
-9.93794e-21
-1.54056e-20
-1.35131e-20
-1.35131e-20
-1.2903e-20
-1.11408e-20
-7.72057e-21
-7.72001e-21
-7.24425e-21
-5.77871e-21
-1.53458e-21
-2.41567e-21
-8.69876e-21
-7.24081e-21
-5.99363e-21
-6.56207e-21
-4.83664e-21
-3.48324e-21
-3.2875e-21
-2.87176e-21
-2.93178e-21
-2.01634e-21
-1.46936e-21
-3.23453e-21
-4.2447e-22
1.99082e-21
1.20641e-21
-5.8047e-21
-4.72229e-21
-2.79595e-21
-1.17535e-21
-2.1951e-22
4.32393e-22
-1.23105e-20
-1.45274e-20
-1.67655e-20
-1.23045e-20
-1.29163e-20
-1.43017e-20
-1.36561e-20
-1.40603e-20
-1.1357e-20
-1.29871e-20
-1.43956e-20
-1.30995e-20
-7.4486e-21
-1.05516e-20
-1.09278e-20
-5.31191e-21
-1.33601e-21
-2.56281e-21
-5.043e-21
-5.74551e-21
-6.54461e-21
-6.50462e-21
-7.80014e-21
-5.38095e-21
-6.0021e-21
-1.95779e-21
-2.32292e-21
-3.89901e-21
4.07691e-22
-2.41859e-21
-4.50131e-21
-4.66719e-22
7.16112e-22
-2.25175e-21
-5.66176e-21
-4.11508e-21
-2.5631e-21
-1.89429e-21
-2.95048e-21
-1.88544e-21
-9.92272e-21
-1.43239e-20
-1.51122e-20
-1.42416e-20
-1.14463e-20
-1.4409e-20
-1.3351e-20
-1.32594e-20
-1.02913e-20
-1.4253e-20
-1.66808e-20
-1.28413e-20
-6.38065e-21
-8.09295e-21
-8.5356e-21
-4.54626e-21
-4.02125e-21
-7.81428e-21
-4.43912e-21
-2.0376e-21
-5.88573e-21
-6.29725e-21
-4.18606e-21
-4.32235e-21
-6.83701e-21
-6.00228e-21
-2.78166e-21
-1.95237e-21
-2.55289e-21
-3.06603e-21
-1.69466e-21
-2.1188e-21
-3.94709e-21
2.00911e-22
-6.21407e-21
-3.8872e-21
-2.30027e-21
-1.93397e-21
-2.21168e-21
-1.38764e-21
-1.3554e-20
-1.62938e-20
-1.49265e-20
-1.14433e-20
-1.04713e-20
-1.29895e-20
-1.33238e-20
-1.60326e-20
-9.53939e-21
-1.23147e-20
-1.80365e-20
-1.2968e-20
-7.17286e-21
-1.11933e-20
-3.99368e-21
-4.97495e-21
-6.66335e-21
-3.42655e-21
-1.45876e-21
-4.42501e-21
-3.69101e-21
-4.04237e-21
-1.00742e-20
-9.05521e-21
-6.4993e-21
-7.22241e-21
3.93701e-23
-4.66584e-21
-5.6761e-21
-7.08011e-22
-1.66327e-21
-2.00084e-21
-2.14531e-21
-1.5859e-21
-3.08933e-21
-3.25214e-21
-2.90387e-21
-2.53603e-21
-7.11862e-22
1.13273e-22
-7.42219e-21
-1.28729e-20
-1.44229e-20
-1.66295e-20
-1.31915e-20
-1.42751e-20
-1.20843e-20
-1.02746e-20
-1.19294e-20
-1.31959e-20
-1.69096e-20
-1.33244e-20
-8.16048e-21
-9.66684e-21
-5.52288e-21
-9.53783e-21
-6.22121e-21
-3.9551e-21
5.1353e-22
-1.66853e-21
-1.61113e-21
-7.27251e-21
-7.53288e-21
-7.65469e-21
-8.49068e-21
-5.00215e-21
-5.98896e-23
-1.33306e-21
-5.91386e-21
-2.04817e-21
5.10468e-22
-1.91801e-21
-2.54186e-21
-3.01983e-21
-7.91805e-21
-1.70311e-21
-2.22134e-21
-3.98658e-21
-3.67191e-21
-2.36879e-21
-8.53109e-21
-1.32188e-20
-1.40602e-20
-1.51238e-20
-1.23857e-20
-1.273e-20
-1.16465e-20
-1.23581e-20
-1.19187e-20
-1.23254e-20
-1.46127e-20
-8.97048e-21
-9.05498e-21
-8.84094e-21
-9.21281e-21
-6.25609e-21
-6.41734e-21
-3.86146e-21
-2.53799e-21
-1.97384e-21
-3.05102e-21
-6.0265e-22
-5.43257e-21
-8.88818e-21
-8.38912e-21
-4.3031e-21
-1.59202e-21
-2.68368e-21
-4.11259e-21
-2.56975e-21
-1.59872e-21
-2.2732e-21
-4.3591e-21
-5.5615e-21
-5.1598e-21
-3.05674e-21
-3.06778e-21
-3.12623e-21
-2.78266e-21
-1.36186e-21
-1.18438e-20
-1.75168e-20
-1.42543e-20
-1.05347e-20
-1.69171e-20
-1.31954e-20
-1.1262e-20
-9.47083e-21
-1.10163e-20
-1.26754e-20
-1.31552e-20
-5.9941e-21
-8.70621e-21
-1.10624e-20
-7.87362e-21
-8.46868e-21
-8.35643e-21
-2.81419e-23
-8.24666e-22
-7.43762e-22
-5.45064e-21
-4.87662e-21
-5.0706e-21
-5.8484e-21
-6.90079e-21
-4.35443e-21
-1.69477e-21
-3.80057e-21
-1.73771e-21
-3.90952e-21
-1.86328e-21
-1.93348e-21
-4.38767e-21
-2.78974e-21
-4.95426e-21
-4.45731e-21
-4.13888e-21
-4.3111e-21
-1.84056e-21
-7.48653e-22
-1.04575e-20
-1.49153e-20
-1.63735e-20
-1.23092e-20
-1.14874e-20
-1.59517e-20
-1.16744e-20
-6.12178e-21
-9.39776e-21
-1.57037e-20
-1.10785e-20
-9.37727e-21
-6.76333e-21
-1.15015e-20
-1.02989e-20
-9.123e-21
-6.07022e-21
-3.39176e-21
9.32121e-22
2.40898e-21
-3.21523e-21
-7.26544e-21
-7.82096e-21
-6.4448e-21
-8.9001e-21
-6.06974e-21
-3.01924e-22
2.87266e-21
-2.77197e-21
-2.90125e-21
-2.36109e-21
-2.63023e-21
-4.93956e-21
-1.86702e-21
-3.62929e-21
-5.82158e-21
-4.33394e-21
3.45945e-22
-6.91063e-22
-8.65523e-22
-1.18439e-20
-1.2303e-20
-1.22633e-20
-1.32747e-20
-1.29708e-20
-1.34092e-20
-1.1333e-20
-1.04962e-20
-8.86686e-21
-1.11618e-20
-9.48072e-21
-8.61446e-21
-8.75337e-21
-1.05595e-20
-9.09107e-21
-9.67248e-21
-5.56004e-21
-3.38609e-21
8.06067e-23
-2.46233e-23
-1.94604e-21
-8.99395e-21
-9.07114e-21
-7.82118e-21
-6.03393e-21
-4.19077e-21
-3.65129e-22
-1.14478e-21
-3.58746e-21
-2.87776e-21
-1.97198e-21
-1.51801e-21
-4.46114e-22
-1.3601e-21
-2.6688e-21
-7.12449e-21
-3.56672e-21
-1.30936e-21
-1.32244e-21
-7.05558e-22
-1.5583e-20
-1.41264e-20
-1.12301e-20
-1.1642e-20
-1.39975e-20
-1.40159e-20
-1.05423e-20
-9.28963e-21
-1.02826e-20
-8.76232e-21
-6.33091e-21
-9.65119e-21
-1.22489e-20
-1.27146e-20
-6.24184e-21
-7.68362e-21
-5.44283e-21
-1.98153e-21
1.10527e-21
-3.08043e-21
-1.38425e-21
-5.23144e-21
-1.29698e-20
-8.03177e-21
-7.05157e-21
-6.87125e-21
8.56292e-22
1.53429e-21
-1.89916e-21
-3.84523e-21
-2.12777e-21
-2.73447e-21
1.91773e-21
-5.78438e-22
-4.63599e-21
-5.25357e-21
-2.458e-21
6.25832e-22
-1.64656e-21
-1.94149e-21
-9.50938e-21
-1.00831e-20
-1.16516e-20
-9.17805e-21
-1.67351e-20
-1.47095e-20
-1.16736e-20
-1.04554e-20
-9.16993e-21
-8.81746e-21
-9.13943e-21
-7.04911e-21
-1.10608e-20
-8.74132e-21
-4.91443e-21
-7.28417e-21
-7.15e-21
-2.6824e-21
8.69453e-22
-2.41674e-21
-3.04845e-21
-4.87964e-21
-9.99837e-21
-8.03143e-21
-8.19722e-21
-6.67245e-21
1.64455e-21
1.32129e-21
-1.70426e-21
-3.41119e-21
-1.90193e-21
-2.23982e-21
5.44439e-22
3.28992e-22
-3.23352e-21
-4.52303e-21
-3.21601e-21
-4.29573e-23
-6.68501e-22
-4.92789e-22
-1.07014e-20
-1.09513e-20
-1.16983e-20
-1.30072e-20
-1.38493e-20
-1.01742e-20
-1.13715e-20
-8.58462e-21
-1.07046e-20
-6.78901e-21
-7.03921e-21
-1.22488e-20
-9.69229e-21
-7.50647e-21
-6.51377e-21
-6.71575e-21
-6.79521e-21
-3.08392e-21
-1.72923e-21
-2.57373e-21
-1.82966e-21
-4.93462e-21
-7.15749e-21
-7.21043e-21
-5.14427e-21
-4.76598e-21
-2.55718e-21
-1.96684e-21
-4.55609e-22
-2.43176e-21
-1.75247e-21
-5.34697e-22
-1.83583e-21
-1.73521e-21
-1.10228e-21
-8.94269e-22
-2.13066e-21
1.18822e-21
-1.44874e-21
-2.26207e-21
-1.1529e-20
-9.85558e-21
-9.38043e-21
-9.25112e-21
-1.25259e-20
-1.40105e-20
-1.15666e-20
-1.26102e-20
-1.10992e-20
-7.52311e-21
-2.46909e-21
-1.02751e-20
-4.62543e-21
-5.48066e-21
-5.95178e-21
-7.42981e-21
-7.88712e-21
-2.39851e-21
1.79601e-22
-2.26643e-21
-4.86465e-21
-7.84575e-21
-4.8054e-21
-5.05076e-21
-4.99351e-21
-3.62889e-21
-5.90612e-21
-6.86206e-21
-1.40501e-21
-1.78539e-21
-2.29711e-21
-2.70699e-21
-3.98811e-21
-2.77909e-21
-9.02825e-22
2.3149e-21
-1.32144e-21
8.43538e-22
7.07004e-22
-3.67818e-22
-7.54039e-21
-9.586e-21
-1.04509e-20
-8.39611e-21
-7.7318e-21
-1.66804e-20
-1.06504e-20
-1.19442e-20
-1.1536e-20
-1.08081e-20
-8.44973e-21
-4.07479e-21
-6.56828e-21
-5.64235e-21
-5.98371e-21
-4.41479e-21
-8.25395e-21
-4.95199e-21
-2.61844e-21
-3.05015e-21
-3.16568e-21
-3.85844e-21
-4.91588e-21
-8.18403e-21
-4.62492e-21
-2.12235e-21
-2.25757e-21
-1.77742e-21
-4.3007e-21
-2.16897e-21
-4.12778e-21
-3.01965e-21
-9.99324e-22
-4.5039e-21
-4.79414e-21
1.08226e-21
6.58922e-22
1.50457e-21
4.24194e-22
-9.82427e-22
-6.25444e-21
-8.60408e-21
-1.06238e-20
-9.12538e-21
-7.65396e-21
-1.29717e-20
-1.22981e-20
-1.00116e-20
-9.97998e-21
-8.74456e-21
-7.86669e-21
-5.7271e-21
-7.19045e-21
-5.45872e-21
-6.54374e-21
-6.51374e-21
-5.00747e-21
-1.18737e-21
3.86356e-22
-4.51367e-21
-3.65305e-21
-6.01199e-21
-4.62592e-21
-6.38074e-21
-5.86299e-21
-4.73758e-21
-2.63059e-21
-1.3574e-21
-1.27926e-21
-1.67008e-21
-6.03913e-21
-3.36672e-21
-4.81485e-21
-4.86727e-21
-2.45074e-21
1.05606e-21
1.83973e-21
-5.27723e-22
-1.26745e-21
-4.62509e-23
-4.6562e-21
-8.19197e-21
-1.13833e-20
-6.80687e-21
-6.76686e-21
-1.07569e-20
-1.04543e-20
-8.6637e-21
-8.92548e-21
-8.18583e-21
-5.07187e-21
-8.30613e-21
-8.5354e-21
-7.62418e-21
-2.7322e-21
-2.4369e-21
-1.55734e-21
-3.94401e-21
-3.01748e-21
-3.23517e-21
-3.52664e-21
-4.65627e-21
-4.92585e-21
-5.6906e-21
-2.29566e-21
-1.30606e-21
-5.05923e-21
-1.63381e-21
1.22891e-22
-2.98301e-21
-7.08447e-21
-5.00779e-21
-6.18589e-21
-2.83137e-21
-2.92556e-21
-1.99114e-21
2.16887e-21
1.62742e-21
-5.90631e-22
-1.0953e-21
-6.20372e-21
-7.69557e-21
-9.86339e-21
-6.15169e-21
-7.85059e-21
-9.60994e-21
-8.59684e-21
-5.01112e-21
-9.32087e-21
-8.98796e-21
-5.62893e-21
-5.97703e-21
-6.45078e-21
-6.45443e-21
-6.01994e-21
-2.61086e-21
-2.87702e-21
-6.23635e-22
-2.37805e-21
-2.119e-21
-8.38625e-22
-4.1778e-21
-4.77353e-21
-8.18451e-21
-7.47577e-21
-4.56375e-22
-1.32949e-21
-4.86351e-23
-1.62645e-21
-4.08567e-21
-2.64938e-21
-4.73697e-21
-3.84444e-21
-2.04743e-21
-1.5761e-21
-4.76447e-21
-1.22801e-21
-8.01884e-22
1.88327e-21
-1.86631e-21
-6.51658e-21
-5.94755e-21
-6.17319e-21
-2.35159e-21
-1.98629e-21
-4.24853e-21
-8.06041e-21
-4.70921e-21
-6.81729e-21
-6.15207e-21
-2.23899e-21
-2.24917e-21
-5.52022e-21
-4.09669e-21
-3.43148e-21
-1.36809e-21
-4.8369e-22
7.67179e-22
3.64934e-22
5.56031e-22
-1.60377e-21
-6.05873e-21
-4.2037e-21
-3.55116e-21
-3.76255e-21
-5.18796e-22
-8.04292e-22
-6.67898e-22
-5.2318e-22
6.05051e-22
-1.19976e-21
-1.81465e-21
-2.81592e-21
-2.99316e-21
-2.93065e-22
-6.49832e-21
-3.83562e-21
-2.52601e-21
6.83489e-22
3.50398e-22
-3.99662e-21
-7.46791e-21
-1.16737e-20
-8.36735e-21
-8.11578e-21
-1.02836e-20
-6.04126e-21
-3.12535e-21
-1.17467e-20
-1.05433e-20
-5.73689e-21
-6.93932e-21
-7.26398e-21
-3.50396e-21
-5.30663e-21
-7.74691e-21
-4.43869e-21
1.84478e-22
-1.37471e-21
-3.00491e-21
-3.82802e-21
-4.49149e-21
-5.08984e-21
-3.15446e-21
-3.47194e-21
-3.12387e-21
-3.24989e-21
-4.2625e-21
-5.38284e-21
-3.97734e-21
-2.98327e-21
1.91615e-22
-1.99121e-21
-2.48341e-21
-3.49768e-21
-4.2784e-21
-8.80675e-22
-2.67661e-21
-1.71362e-21
1.37548e-22
-4.91382e-21
-9.52325e-21
-1.5826e-20
-1.35305e-20
-1.11086e-20
-1.44236e-20
-1.25345e-20
-6.15298e-21
-1.01086e-20
-1.59974e-20
-1.23136e-20
-1.03733e-20
-1.01182e-20
-7.70036e-21
-8.31728e-21
-7.76509e-21
-6.74952e-21
-3.99471e-21
-4.98565e-21
-4.25651e-21
-2.29759e-21
-3.83985e-21
-4.56588e-21
-6.88461e-21
-5.14841e-21
-4.12512e-21
-2.09896e-21
-4.0743e-21
-7.45866e-21
-2.65221e-21
5.46674e-22
1.90746e-21
-4.55372e-21
-3.26443e-21
-7.21195e-21
-3.07212e-21
-1.47384e-22
1.8264e-22
9.44776e-23
1.38754e-22
-9.16509e-21
-1.09697e-20
-1.36871e-20
-1.45047e-20
-1.37099e-20
-1.35376e-20
-1.38444e-20
-1.12115e-20
-1.41628e-20
-1.53419e-20
-1.05174e-20
-9.64309e-21
-8.44471e-21
-6.87435e-21
-9.50609e-21
-7.79424e-21
-8.97931e-21
-6.73506e-21
-8.62416e-22
-5.21588e-21
-5.24692e-21
-3.99719e-21
-1.63754e-21
-5.17341e-21
-6.91944e-21
-4.04497e-21
-4.22293e-21
-4.9551e-21
-3.22341e-21
-2.61356e-21
-4.30035e-21
-2.15335e-21
-1.491e-21
-1.75522e-21
-5.85724e-21
-3.45679e-21
1.00698e-21
-4.70049e-22
-2.17643e-22
5.37274e-22
-1.48093e-20
-1.40408e-20
-1.40251e-20
-1.77057e-20
-1.49737e-20
-1.42701e-20
-1.46714e-20
-1.22033e-20
-1.31497e-20
-1.24832e-20
-1.11572e-20
-1.36386e-20
-1.14286e-20
-6.99974e-21
-9.40737e-21
-8.56942e-21
-7.64248e-21
-6.20045e-21
-3.36946e-21
-2.81647e-21
-6.35105e-21
-6.85376e-21
-5.32158e-21
-6.49628e-21
-5.87032e-21
-5.40009e-21
-2.93372e-21
-7.51883e-22
-3.6523e-21
-4.80313e-21
-4.30456e-21
-2.22769e-22
-1.10401e-21
-4.07526e-21
-3.30903e-21
-1.27739e-21
1.1735e-22
-3.23987e-22
-1.13175e-21
-6.55505e-22
-1.54675e-20
-1.54532e-20
-1.43734e-20
-1.56326e-20
-1.83276e-20
-1.80902e-20
-1.34933e-20
-1.03018e-20
-9.85381e-21
-1.38187e-20
-1.25421e-20
-1.35842e-20
-9.36796e-21
-9.65212e-21
-1.29242e-20
-1.18631e-20
-8.48729e-21
-5.50165e-21
-4.67137e-21
-2.38118e-21
-4.96218e-21
-6.28056e-21
-7.66527e-21
-7.23613e-21
-7.58134e-21
-4.25431e-21
-3.47388e-21
-3.51228e-21
-2.55737e-21
-2.24277e-21
-2.18154e-21
-2.62466e-21
5.7723e-22
-9.25998e-22
-3.06671e-21
-1.30816e-21
-4.89311e-22
-9.46371e-22
-1.20897e-21
-9.90681e-22
-1.41478e-20
-1.51901e-20
-1.43885e-20
-1.52706e-20
-1.80636e-20
-1.86354e-20
-1.18505e-20
-1.40665e-20
-1.45063e-20
-1.31902e-20
-1.22993e-20
-1.40526e-20
-1.26646e-20
-9.57856e-21
-1.30722e-20
-1.13812e-20
-9.85236e-21
-5.64241e-21
-3.4368e-21
-2.42599e-21
-4.61242e-21
-7.91238e-21
-8.06308e-21
-6.59284e-21
-7.16726e-21
-5.31182e-21
-3.64303e-21
-2.28906e-21
-3.53357e-21
-3.82823e-21
-3.41837e-21
-9.7383e-22
2.16986e-21
-1.55876e-21
-2.33685e-21
-1.38066e-21
-5.14814e-22
-8.86501e-22
3.26836e-22
-9.95114e-22
-1.71543e-20
-1.81567e-20
-1.5364e-20
-1.6658e-20
-1.78807e-20
-1.65255e-20
-1.52805e-20
-1.49897e-20
-1.59675e-20
-1.36951e-20
-1.38724e-20
-1.46001e-20
-1.34921e-20
-8.5175e-21
-1.29172e-20
-1.01848e-20
-7.37058e-21
-5.12994e-21
-3.31289e-21
-2.88001e-21
-5.67667e-21
-8.4176e-21
-7.55597e-21
-6.60114e-21
-6.10303e-21
-5.21546e-21
-4.8146e-21
-3.12512e-21
-4.66171e-22
-2.64846e-21
-4.94137e-21
-3.62269e-21
1.75065e-21
1.12829e-21
-3.21104e-21
-3.16419e-21
-7.28663e-22
-1.29008e-21
-3.09282e-21
-2.79141e-21
-1.74103e-20
-1.81981e-20
-1.61574e-20
-1.73559e-20
-1.9434e-20
-1.566e-20
-1.67806e-20
-1.8033e-20
-1.73454e-20
-1.54737e-20
-1.39947e-20
-1.38427e-20
-1.12254e-20
-9.00234e-21
-1.35274e-20
-1.133e-20
-7.74424e-21
-5.6123e-21
-2.41899e-21
-5.34225e-21
-5.11211e-21
-8.07056e-21
-8.75081e-21
-4.54074e-21
-9.18504e-21
-4.80766e-21
-1.60169e-21
-2.28788e-21
-2.43721e-21
-5.76539e-21
-6.867e-21
-2.47507e-21
-7.68455e-22
-1.65984e-21
-1.64334e-21
-1.03933e-21
-2.53211e-22
-5.45957e-22
-2.96108e-21
-7.75724e-22
-1.93383e-20
-2.09635e-20
-2.00655e-20
-1.80484e-20
-1.88325e-20
-1.65249e-20
-1.76817e-20
-1.72211e-20
-1.7118e-20
-1.59494e-20
-1.4974e-20
-1.55691e-20
-8.50174e-21
-1.22671e-20
-1.23742e-20
-1.07585e-20
-1.00113e-20
-4.17505e-21
-4.75774e-21
-5.0846e-21
-1.89515e-21
-9.01662e-21
-8.82329e-21
-8.31834e-21
-8.10816e-21
-3.29451e-21
-3.33487e-21
-3.03535e-21
3.06583e-22
-3.94177e-21
-4.05148e-21
-4.81499e-21
-2.09632e-21
2.28428e-22
-1.10497e-21
1.90582e-22
-1.55254e-21
-1.39101e-21
-7.43675e-22
-9.13039e-22
-2.10505e-20
-2.01632e-20
-1.86255e-20
-2.07517e-20
-2.04591e-20
-1.89854e-20
-2.04599e-20
-1.72079e-20
-1.4022e-20
-1.53205e-20
-1.51092e-20
-1.56516e-20
-1.24467e-20
-1.32466e-20
-1.19901e-20
-9.41591e-21
-6.83989e-21
-5.78095e-21
-2.16219e-21
-1.37482e-21
-5.37215e-21
-9.31994e-21
-1.06445e-20
-9.86855e-21
-7.51775e-21
-4.23122e-21
-2.31657e-21
-3.31765e-21
-3.00921e-21
-3.61639e-21
-1.60385e-21
-2.03098e-21
-2.18015e-21
1.13412e-21
-2.05067e-21
-1.0788e-21
-2.31659e-22
-1.73698e-21
-1.14435e-21
-5.7385e-22
-2.05906e-20
-2.37942e-20
-2.15572e-20
-2.04915e-20
-2.02065e-20
-1.86378e-20
-1.87106e-20
-1.79844e-20
-1.69251e-20
-1.63978e-20
-1.43412e-20
-1.34056e-20
-1.27398e-20
-1.11786e-20
-1.2161e-20
-1.17799e-20
-7.47353e-21
-4.8801e-21
-1.55024e-21
-4.40586e-21
-8.1869e-21
-8.69149e-21
-1.15912e-20
-1.27711e-20
-4.97697e-21
-2.36987e-21
-2.82672e-21
-4.4287e-21
-3.02607e-21
-2.35057e-21
-2.53577e-21
-9.61677e-22
-9.4484e-23
-4.43214e-22
-2.26656e-21
-6.36888e-22
-2.1274e-21
-3.33481e-21
-2.95358e-21
-2.07937e-21
-2.23265e-20
-2.43567e-20
-2.06818e-20
-1.92195e-20
-1.87551e-20
-2.07436e-20
-1.93749e-20
-1.72731e-20
-1.54012e-20
-1.78254e-20
-1.4864e-20
-1.3694e-20
-1.42617e-20
-1.02584e-20
-1.25778e-20
-1.20808e-20
-1.01718e-20
-3.87163e-21
-1.52413e-21
-5.39448e-21
-7.31849e-21
-8.77237e-21
-1.00127e-20
-1.32161e-20
-4.77695e-21
-5.27582e-21
-4.77006e-21
-3.69877e-21
-9.47404e-22
-3.30052e-21
-2.57525e-21
-3.12196e-22
-4.88062e-22
-5.60194e-22
-1.4025e-21
-1.54893e-21
-8.95341e-22
-3.64978e-21
-3.16565e-21
4.09954e-22
-2.49857e-20
-2.44698e-20
-2.07524e-20
-2.17132e-20
-1.98474e-20
-2.1562e-20
-1.88941e-20
-1.79428e-20
-1.79575e-20
-1.57587e-20
-1.34689e-20
-1.46434e-20
-1.40764e-20
-1.21782e-20
-1.3098e-20
-1.00737e-20
-6.32148e-21
-4.3768e-21
-6.62244e-21
-7.92669e-21
-6.949e-21
-6.51697e-21
-1.00757e-20
-1.04067e-20
-5.73218e-21
-3.75554e-21
-3.05102e-21
-3.58644e-21
-3.34916e-21
-1.69207e-21
-3.15633e-21
-1.25846e-21
-2.67713e-22
-1.28524e-21
-5.92672e-21
-2.78944e-22
1.12927e-21
-4.61163e-21
-3.07969e-21
6.37326e-22
-2.65117e-20
-2.57213e-20
-2.19298e-20
-2.24013e-20
-2.04041e-20
-1.97935e-20
-2.09183e-20
-1.67642e-20
-1.69964e-20
-1.78667e-20
-1.4818e-20
-1.17079e-20
-1.37453e-20
-1.42685e-20
-1.58333e-20
-9.35501e-21
-9.60603e-21
-5.89291e-21
-5.66842e-21
-3.2975e-21
-8.4166e-21
-9.10204e-21
-8.91817e-21
-1.03223e-20
-5.30338e-21
-3.24623e-21
-2.70512e-21
-2.41237e-21
-2.95013e-21
-2.13117e-21
-2.8707e-21
-1.51386e-21
-2.07981e-21
-2.95747e-21
-4.70147e-21
-4.65402e-22
1.60265e-21
-3.3655e-22
-1.13564e-21
-2.0226e-22
-2.63603e-20
-2.46418e-20
-2.14269e-20
-2.05608e-20
-2.04858e-20
-1.93124e-20
-2.15623e-20
-1.83874e-20
-1.73225e-20
-1.61807e-20
-1.39741e-20
-1.42092e-20
-1.54996e-20
-1.34705e-20
-1.32496e-20
-1.15349e-20
-5.43166e-21
-6.03473e-21
-8.79653e-21
-4.72096e-21
-7.98623e-21
-9.97245e-21
-1.04541e-20
-8.55081e-21
-4.15052e-21
-4.30908e-21
-2.69528e-21
-1.04418e-21
-2.61713e-21
-1.3903e-21
-3.99468e-21
-2.15665e-21
-8.87021e-22
-1.53207e-21
-5.09145e-21
-1.61143e-21
2.54742e-21
1.73938e-22
-1.03322e-21
-1.30914e-21
-2.32721e-20
-2.47305e-20
-2.31751e-20
-2.14569e-20
-2.14152e-20
-2.15178e-20
-2.10687e-20
-1.9438e-20
-1.73653e-20
-1.37588e-20
-1.52117e-20
-1.68883e-20
-1.72149e-20
-1.33376e-20
-1.25305e-20
-1.02387e-20
-6.60456e-21
-6.75506e-21
-7.70881e-21
-4.49408e-21
-7.71801e-21
-1.06084e-20
-9.53198e-21
-6.42283e-21
-4.73291e-21
-5.66719e-21
-3.50779e-21
-7.96041e-22
-2.20095e-21
-1.71635e-21
-1.49627e-21
-1.20991e-21
5.94213e-22
-1.7157e-21
-4.70642e-21
-8.71114e-22
1.20196e-21
-6.69218e-22
-4.41709e-22
-2.04863e-21
-2.21831e-20
-2.15796e-20
-2.29581e-20
-1.9971e-20
-2.35841e-20
-2.16113e-20
-2.16222e-20
-2.08974e-20
-1.99144e-20
-1.27218e-20
-1.41354e-20
-1.65338e-20
-1.56572e-20
-1.47871e-20
-1.21263e-20
-8.10832e-21
-4.75288e-21
-6.72952e-21
-1.08542e-20
-7.90838e-21
-9.86918e-21
-7.69267e-21
-5.35409e-21
-5.28185e-21
-2.70212e-21
-5.64539e-21
-3.16697e-21
-2.36019e-21
-3.32717e-21