/*--------------------------------*- C++ -*----------------------------------*\
| =========                 |                                                 |
| \\      /  F ield         | OpenFOAM: The Open Source CFD Toolbox           |
|  \\    /   O peration     | Version:  v2012                                 |
|   \\  /    A nd           | Website:  www.openfoam.com                      |
|    \\/     M anipulation  |                                                 |
\*---------------------------------------------------------------------------*/
FoamFile
{
    version     2.0;
    format      ascii;
    class       surfaceScalarField;
    location    "29";
    object      phi;
}
// * * * * * * * * * * * * * * * * * * * * * * * * * * * * * * * * * * * * * //

dimensions      [0 3 -1 0 0 0 0];
oriented        oriented;


internalField   nonuniform List<scalar> 
187200
(
1.875e-06
2.79328e-22
2.0141e-22
1.875e-06
3.07972e-22
3.10401e-22
1.875e-06
3.64007e-22
4.6227e-22
1.875e-06
3.2785e-22
3.67002e-22
1.875e-06
2.95781e-22
1.92735e-22
1.875e-06
4.76512e-22
3.44876e-22
1.875e-06
3.666e-22
2.54491e-22
1.875e-06
2.24336e-22
2.29079e-22
1.875e-06
1.98291e-22
4.07361e-22
1.875e-06
3.37272e-22
4.01181e-22
1.875e-06
3.53994e-22
2.53285e-22
1.875e-06
2.91214e-22
2.23258e-22
1.875e-06
2.0163e-22
2.34261e-22
1.875e-06
1.35772e-22
1.00947e-22
1.875e-06
1.60904e-22
2.09295e-22
1.875e-06
1.17552e-22
2.31359e-22
1.875e-06
1.62914e-22
2.09164e-22
1.875e-06
6.25859e-23
7.69348e-23
1.875e-06
9.13252e-23
6.43374e-23
1.875e-06
6.68233e-23
1.17878e-22
1.875e-06
8.73086e-24
1.49371e-22
1.875e-06
1.3483e-22
1.58976e-22
1.875e-06
1.59277e-22
1.61847e-22
1.875e-06
2.92055e-22
1.48583e-22
1.875e-06
1.38134e-22
3.70739e-23
1.875e-06
1.33579e-22
9.22669e-23
1.875e-06
1.21431e-22
1.38468e-22
1.875e-06
1.3976e-22
1.38306e-22
1.875e-06
9.54834e-23
1.71928e-22
1.875e-06
-1.06768e-23
1.53897e-22
1.875e-06
-6.73686e-23
1.28542e-22
1.875e-06
1.70177e-23
3.0304e-23
1.875e-06
8.86341e-23
5.20296e-23
1.875e-06
6.8513e-23
6.749e-23
1.875e-06
4.16432e-23
9.24644e-23
1.875e-06
-4.88132e-24
-7.10189e-24
1.875e-06
1.18463e-23
1.95538e-23
1.875e-06
-1.01997e-22
8.51305e-23
1.875e-06
-1.5102e-22
1.50041e-22
-9.75386e-23
1.20765e-22
1.875e-06
2.61564e-23
1.00269e-22
1.875e-06
1.60278e-22
4.46153e-22
1.875e-06
3.08435e-22
7.18873e-22
1.875e-06
3.24069e-22
6.92479e-22
1.875e-06
2.3961e-22
5.31632e-22
1.875e-06
2.90441e-22
5.50885e-22
1.875e-06
3.23034e-22
6.16639e-22
1.875e-06
4.10838e-22
5.73114e-22
1.875e-06
4.10501e-22
7.42984e-22
1.875e-06
2.70844e-22
7.60683e-22
1.875e-06
1.53101e-22
5.44159e-22
1.875e-06
1.6091e-22
4.99481e-22
1.875e-06
2.40409e-22
5.57333e-22
1.875e-06
1.32405e-22
4.4684e-22
1.875e-06
5.70071e-23
4.60966e-22
1.875e-06
-3.12888e-24
4.51267e-22
1.875e-06
2.4137e-22
4.44241e-22
1.875e-06
2.76783e-22
4.65984e-22
1.875e-06
3.07507e-23
3.25652e-22
1.875e-06
2.09259e-23
2.60085e-22
1.875e-06
1.92392e-22
2.76621e-22
1.875e-06
1.88465e-22
1.95491e-22
1.875e-06
1.26153e-22
1.42221e-22
1.875e-06
7.7963e-23
1.01871e-22
1.875e-06
9.30853e-23
1.68237e-22
1.875e-06
9.99781e-23
1.52593e-22
1.875e-06
1.30523e-22
1.46431e-22
1.875e-06
5.31874e-23
1.57518e-22
1.875e-06
-2.43629e-23
2.51839e-22
1.875e-06
4.26725e-23
2.35139e-22
1.875e-06
9.68563e-23
1.46708e-22
1.875e-06
3.6655e-23
-4.1697e-24
1.875e-06
1.93687e-23
6.41064e-23
1.875e-06
-7.08426e-23
7.86963e-23
1.875e-06
-2.85418e-23
1.94228e-22
1.875e-06
3.76968e-23
9.94391e-23
1.875e-06
-1.46246e-22
-6.34391e-23
1.875e-06
-1.70613e-22
-5.8733e-23
1.875e-06
-4.99594e-23
1.30273e-22
-5.97411e-23
1.21793e-22
1.875e-06
1.78398e-22
3.13864e-22
1.875e-06
1.66809e-22
5.39612e-22
1.875e-06
1.19211e-22
6.82722e-22
1.875e-06
2.80965e-22
7.59213e-22
1.875e-06
3.10708e-22
7.34786e-22
1.875e-06
2.60402e-22
6.71181e-22
1.875e-06
3.17404e-22
7.88285e-22
1.875e-06
2.63709e-22
7.07518e-22
1.875e-06
2.54542e-22
8.04555e-22
1.875e-06
2.408e-22
8.06424e-22
1.875e-06
2.42115e-22
7.05631e-22
1.875e-06
1.99406e-22
6.8189e-22
1.875e-06
1.86683e-22
5.81593e-22
1.875e-06
1.55874e-22
4.64157e-22
1.875e-06
2.12854e-22
6.12905e-22
1.875e-06
1.91063e-22
6.24748e-22
1.875e-06
7.4233e-23
4.37414e-22
1.875e-06
1.26669e-22
5.01253e-22
1.875e-06
5.34366e-23
3.69693e-22
1.875e-06
1.22566e-22
3.89038e-22
1.875e-06
1.76834e-22
3.26065e-22
1.875e-06
1.46402e-22
1.31564e-22
1.875e-06
1.73019e-22
8.65484e-23
1.875e-06
1.6374e-22
1.53412e-22
1.875e-06
1.53766e-22
2.75922e-22
1.875e-06
6.24508e-23
2.1023e-22
1.875e-06
9.28097e-24
1.67873e-22
1.875e-06
-3.69055e-23
1.86967e-22
1.875e-06
2.03023e-23
2.64467e-22
1.875e-06
6.37328e-24
2.06415e-22
1.875e-06
-7.43e-24
2.23677e-22
1.875e-06
6.04272e-23
1.22908e-22
1.875e-06
-9.06823e-23
-1.88516e-23
1.875e-06
-3.99431e-23
1.38778e-22
1.875e-06
-4.39807e-23
1.47719e-22
1.875e-06
-9.35681e-23
-4.5923e-23
1.875e-06
7.94233e-24
1.48569e-23
1.875e-06
3.11293e-23
1.36306e-22
1.875e-06
7.62507e-23
1.81531e-22
3.34395e-23
1.11171e-22
1.875e-06
2.22996e-22
3.80092e-22
1.875e-06
1.72118e-22
6.49316e-22
1.875e-06
1.36936e-22
7.70596e-22
1.875e-06
8.56282e-23
8.06127e-22
1.875e-06
1.90609e-22
7.51811e-22
1.875e-06
2.17343e-22
7.54073e-22
1.875e-06
1.74344e-22
7.85632e-22
1.875e-06
1.67055e-22
8.3572e-22
1.875e-06
2.06822e-22
8.08577e-22
1.875e-06
2.61687e-22
7.88949e-22
1.875e-06
2.05663e-22
7.77542e-22
1.875e-06
1.6783e-22
8.29545e-22
1.875e-06
1.18577e-22
7.00872e-22
1.875e-06
1.13932e-22
5.70105e-22
1.875e-06
2.72554e-22
6.11324e-22
1.875e-06
4.41987e-22
6.49895e-22
1.875e-06
1.65918e-22
5.0878e-22
1.875e-06
1.11879e-23
5.18674e-22
1.875e-06
1.99709e-22
4.87573e-22
1.875e-06
1.27446e-22
3.14877e-22
1.875e-06
-1.61104e-23
2.80955e-22
1.875e-06
7.09911e-23
2.1162e-22
1.875e-06
1.93549e-22
1.40209e-22
1.875e-06
1.39935e-22
1.7585e-22
1.875e-06
4.92639e-23
2.39529e-22
1.875e-06
7.89077e-23
2.99e-22
1.875e-06
1.25448e-23
1.83849e-22
1.875e-06
7.29571e-24
1.11338e-22
1.875e-06
4.76077e-23
2.52861e-22
1.875e-06
-2.56383e-23
2.09916e-22
1.875e-06
-1.93642e-23
2.54264e-22
1.875e-06
-8.60876e-23
8.9836e-23
1.875e-06
-9.74752e-23
7.17222e-23
1.875e-06
-6.20061e-23
1.6429e-22
1.875e-06
4.69251e-23
8.20292e-23
1.875e-06
-5.38323e-23
-2.31504e-23
1.875e-06
3.30901e-23
-8.89331e-24
1.875e-06
8.56205e-23
4.98413e-23
1.875e-06
3.93797e-23
7.70649e-23
6.67004e-24
7.86613e-23
1.875e-06
-1.71844e-23
2.63034e-22
1.875e-06
1.20757e-22
7.22803e-22
1.875e-06
6.90378e-23
7.99005e-22
1.875e-06
1.33456e-22
8.83159e-22
1.875e-06
1.17637e-22
8.67758e-22
1.875e-06
7.597e-23
8.86207e-22
1.875e-06
9.62381e-23
8.68288e-22
1.875e-06
3.59984e-22
9.09432e-22
1.875e-06
3.39992e-22
7.94455e-22
1.875e-06
2.15464e-22
8.32492e-22
1.875e-06
1.83327e-22
8.42302e-22
1.875e-06
1.77837e-22
8.1184e-22
1.875e-06
1.82409e-22
6.93107e-22
1.875e-06
1.7271e-22
7.72037e-22
1.875e-06
1.45613e-22
7.14452e-22
1.875e-06
1.72519e-22
4.90334e-22
1.875e-06
1.20827e-22
4.82918e-22
1.875e-06
4.62025e-23
5.20974e-22
1.875e-06
9.76207e-24
4.10667e-22
1.875e-06
6.97441e-23
2.68959e-22
1.875e-06
-1.76563e-23
3.00903e-22
1.875e-06
5.83649e-23
1.84918e-22
1.875e-06
1.75283e-22
1.74187e-22
1.875e-06
1.09693e-22
2.56884e-22
1.875e-06
1.15289e-22
3.37805e-22
1.875e-06
8.12458e-23
2.65928e-22
1.875e-06
9.30296e-23
2.19307e-22
1.875e-06
-3.10205e-23
1.67675e-22
1.875e-06
-7.18499e-23
1.2014e-22
1.875e-06
3.87214e-23
1.88869e-22
1.875e-06
8.327e-23
1.99877e-22
1.875e-06
1.05708e-22
1.96563e-22
1.875e-06
2.31345e-23
1.21469e-22
1.875e-06
-6.62456e-23
1.05619e-22
1.875e-06
-1.23878e-22
-2.41859e-23
1.875e-06
-2.70333e-23
5.2897e-24
1.875e-06
9.51128e-23
-2.24392e-24
1.875e-06
4.76912e-23
-1.09312e-23
1.875e-06
9.15005e-24
3.82499e-23
3.86758e-23
1.20136e-22
1.875e-06
4.80816e-23
3.44599e-22
1.875e-06
1.50335e-22
6.58758e-22
1.875e-06
3.84224e-23
8.17824e-22
1.875e-06
1.80345e-23
8.48961e-22
1.875e-06
6.85355e-23
9.34522e-22
1.875e-06
1.25235e-22
1.01434e-21
1.875e-06
1.62418e-22
9.75921e-22
1.875e-06
2.29754e-22
9.57942e-22
1.875e-06
2.96888e-22
8.84196e-22
1.875e-06
2.18167e-22
8.31216e-22
1.875e-06
1.58201e-22
8.54634e-22
1.875e-06
2.12493e-22
8.77537e-22
1.875e-06
1.45269e-22
8.20783e-22
1.875e-06
2.33608e-22
7.84306e-22
1.875e-06
1.55149e-22
7.34863e-22
1.875e-06
9.50075e-23
5.62092e-22
1.875e-06
9.46939e-23
5.59708e-22
1.875e-06
5.34313e-25
4.70759e-22
1.875e-06
-9.30189e-24
4.04217e-22
1.875e-06
1.03523e-23
2.5344e-22
1.875e-06
1.77276e-22
3.48887e-22
1.875e-06
1.38987e-22
2.58545e-22
1.875e-06
1.45963e-22
1.57769e-22
1.875e-06
1.88316e-22
2.31641e-22
1.875e-06
3.35244e-23
3.16385e-22
1.875e-06
5.97757e-23
2.63629e-22
1.875e-06
2.65663e-23
1.98972e-22
1.875e-06
1.77803e-23
1.6212e-22
1.875e-06
-6.61498e-23
1.62351e-22
1.875e-06
-7.07807e-23
1.82576e-22
1.875e-06
1.02635e-22
1.54703e-22
1.875e-06
1.26676e-22
6.94758e-23
1.875e-06
3.06886e-23
6.1936e-23
1.875e-06
3.37276e-23
1.33875e-22
1.875e-06
-5.18482e-23
8.20109e-23
1.875e-06
9.74219e-23
-2.61388e-24
1.875e-06
6.41169e-23
-4.95205e-23
1.875e-06
4.63819e-23
-4.9846e-23
1.875e-06
1.40166e-23
6.5689e-24
2.96318e-24
1.08141e-22
1.875e-06
8.50787e-23
4.18459e-22
1.875e-06
7.38856e-23
6.65593e-22
1.875e-06
1.63026e-22
9.08425e-22
1.875e-06
9.14769e-23
9.58023e-22
1.875e-06
1.21466e-22
1.03804e-21
1.875e-06
8.67273e-23
1.02662e-21
1.875e-06
1.75957e-22
1.07373e-21
1.875e-06
3.42524e-22
1.03485e-21
1.875e-06
2.64936e-22
9.77842e-22
1.875e-06
2.19846e-22
9.09437e-22
1.875e-06
1.8041e-22
9.22121e-22
1.875e-06
4.59305e-23
8.47271e-22
1.875e-06
1.71251e-22
8.76992e-22
1.875e-06
2.29648e-22
7.00479e-22
1.875e-06
1.3544e-22
7.39366e-22
1.875e-06
1.24433e-22
5.86629e-22
1.875e-06
5.11608e-23
4.70889e-22
1.875e-06
1.02298e-22
4.66086e-22
1.875e-06
1.27362e-22
4.04942e-22
1.875e-06
1.31987e-22
2.89572e-22
1.875e-06
9.37466e-23
3.44291e-22
1.875e-06
1.09731e-23
2.71585e-22
1.875e-06
-4.28229e-23
1.32787e-22
1.875e-06
1.38203e-23
1.62954e-22
1.875e-06
1.36046e-22
3.43537e-22
1.875e-06
8.80003e-23
2.64155e-22
1.875e-06
2.83541e-23
2.5212e-22
1.875e-06
-1.47377e-23
1.44624e-22
1.875e-06
-1.74832e-23
1.16911e-22
1.875e-06
2.65232e-23
1.80488e-22
1.875e-06
-3.50432e-24
1.49269e-22
1.875e-06
-5.28688e-23
3.32225e-23
1.875e-06
-1.13515e-23
-4.32052e-23
1.875e-06
6.24448e-23
6.09288e-23
1.875e-06
2.13059e-22
1.72051e-22
1.875e-06
1.69115e-22
8.55038e-24
1.875e-06
-2.50713e-23
-1.23709e-22
1.875e-06
-8.69212e-23
-1.16917e-22
1.875e-06
-2.9712e-23
1.38831e-22
6.19284e-23
1.9729e-22
1.875e-06
1.449e-22
3.51155e-22
1.875e-06
1.19802e-22
6.9444e-22
1.875e-06
1.43178e-22
8.92812e-22
1.875e-06
1.79377e-22
1.07062e-21
1.875e-06
1.58942e-22
1.16997e-21
1.875e-06
2.48875e-22
1.11499e-21
1.875e-06
2.62945e-22
1.14626e-21
1.875e-06
3.65815e-23
1.03449e-21
1.875e-06
9.64415e-23
9.97865e-22
1.875e-06
2.4356e-22
9.54423e-22
1.875e-06
9.31418e-23
9.32463e-22
1.875e-06
1.2547e-22
9.07959e-22
1.875e-06
1.10308e-22
7.38596e-22
1.875e-06
2.13134e-22
6.6486e-22
1.875e-06
1.93632e-22
7.34698e-22
1.875e-06
7.53456e-23
5.80529e-22
1.875e-06
7.3479e-23
5.12574e-22
1.875e-06
1.06963e-23
4.43389e-22
1.875e-06
1.50931e-22
3.32544e-22
1.875e-06
1.05459e-22
2.40186e-22
1.875e-06
9.30162e-24
3.39555e-22
1.875e-06
4.3282e-23
3.48377e-22
1.875e-06
5.65736e-23
2.93754e-22
1.875e-06
1.16577e-22
2.13596e-22
1.875e-06
1.83615e-23
4.10592e-22
1.875e-06
4.99009e-24
2.34379e-22
1.875e-06
7.53298e-23
1.3495e-22
1.875e-06
7.81637e-23
1.48477e-22
1.875e-06
-2.53417e-23
1.56468e-22
1.875e-06
-1.08216e-23
2.45975e-22
1.875e-06
-1.40651e-22
2.0733e-22
1.875e-06
-8.58975e-23
7.91306e-23
1.875e-06
2.41148e-23
8.67884e-23
1.875e-06
2.96651e-23
4.98342e-23
1.875e-06
7.8955e-23
-4.01897e-23
1.875e-06
-5.45729e-23
-2.38175e-22
1.875e-06
1.06483e-22
-2.62771e-22
1.875e-06
-3.99125e-23
-4.31634e-23
1.875e-06
-3.00077e-23
1.71143e-22
1.14741e-23
5.41841e-23
1.875e-06
-1.73365e-22
2.42999e-22
1.875e-06
-1.42201e-23
7.9664e-22
1.875e-06
1.41548e-22
9.68637e-22
1.875e-06
1.51468e-22
1.08874e-21
1.875e-06
1.81983e-22
1.15141e-21
1.875e-06
1.96156e-22
1.08274e-21
1.875e-06
1.8293e-22
1.16057e-21
1.875e-06
1.43922e-22
1.15476e-21
1.875e-06
1.13648e-22
1.07122e-21
1.875e-06
9.73097e-23
8.92219e-22
1.875e-06
1.85209e-22
9.83585e-22
1.875e-06
9.34736e-23
9.65282e-22
1.875e-06
6.3612e-23
6.58621e-22
1.875e-06
9.34447e-23
6.43608e-22
1.875e-06
1.62443e-22
7.56694e-22
1.875e-06
1.02081e-22
5.73904e-22
1.875e-06
1.3936e-22
5.34949e-22
1.875e-06
1.7307e-22
4.81277e-22
1.875e-06
-1.20832e-22
2.87477e-22
1.875e-06
-1.33328e-22
2.16437e-22
1.875e-06
1.19991e-22
2.93332e-22
1.875e-06
1.05012e-22
3.46834e-22
1.875e-06
1.33123e-22
3.50847e-22
1.875e-06
7.2942e-23
3.11489e-22
1.875e-06
1.33384e-22
4.66016e-22
1.875e-06
-1.67668e-23
2.38374e-22
1.875e-06
-9.81765e-23
1.1264e-22
1.875e-06
-7.35519e-23
1.13416e-22
1.875e-06
6.5145e-23
9.49448e-23
1.875e-06
-3.06471e-23
1.51418e-22
1.875e-06
-2.91689e-23
2.07015e-22
1.875e-06
-7.06012e-23
2.17381e-22
1.875e-06
-2.63015e-23
1.2529e-22
1.875e-06
-1.32981e-23
1.33393e-24
1.875e-06
-5.29806e-23
-1.93424e-22
1.875e-06
4.0874e-23
-3.75374e-22
1.875e-06
-2.47299e-23
-2.93456e-22
1.875e-06
9.94288e-23
4.16914e-23
1.875e-06
1.2551e-22
1.2148e-22
5.81055e-23
2.64581e-23
1.875e-06
-6.36851e-24
5.77398e-22
1.875e-06
7.91085e-23
8.36138e-22
1.875e-06
1.12365e-22
9.75656e-22
1.875e-06
2.16974e-22
1.21119e-21
1.875e-06
8.16019e-23
1.21686e-21
1.875e-06
1.20189e-22
1.173e-21
1.875e-06
2.39508e-22
1.22496e-21
1.875e-06
7.89126e-23
1.162e-21
1.875e-06
1.48044e-22
9.37062e-22
1.875e-06
8.36146e-23
8.52343e-22
1.875e-06
9.39092e-23
9.79616e-22
1.875e-06
7.4172e-23
9.29808e-22
1.875e-06
5.733e-23
8.27763e-22
1.875e-06
7.9044e-23
7.40804e-22
1.875e-06
1.14023e-22
6.75891e-22
1.875e-06
1.47389e-22
6.00132e-22
1.875e-06
8.82525e-23
4.66306e-22
1.875e-06
4.79751e-23
4.20147e-22
1.875e-06
-2.35173e-23
3.95876e-22
1.875e-06
3.81663e-23
3.26559e-22
1.875e-06
1.52208e-22
3.20544e-22
1.875e-06
2.21664e-22
3.64984e-22
1.875e-06
7.00073e-23
3.77324e-22
1.875e-06
9.79709e-24
3.676e-22
1.875e-06
2.72257e-23
3.49704e-22
1.875e-06
9.29895e-25
2.86838e-22
1.875e-06
-1.2572e-22
1.37673e-22
1.875e-06
-2.80776e-23
1.71828e-22
1.875e-06
-2.03042e-23
1.22848e-22
1.875e-06
1.34187e-23
1.57046e-22
1.875e-06
2.41991e-23
1.54511e-22
1.875e-06
-7.67421e-23
1.64713e-22
1.875e-06
4.04899e-23
1.00202e-22
1.875e-06
-1.10216e-23
-5.18862e-23
1.875e-06
-1.19372e-22
-1.2565e-22
1.875e-06
-1.03369e-22
-3.91429e-22
1.875e-06
-1.69309e-23
-3.33217e-22
1.875e-06
1.4388e-22
-7.39412e-23
1.875e-06
1.12264e-22
2.20925e-23
6.66713e-23
-7.94755e-23
1.875e-06
1.04831e-22
6.398e-22
1.875e-06
1.48106e-22
9.65288e-22
1.875e-06
1.46613e-22
1.07119e-21
1.875e-06
7.42716e-23
1.12048e-21
1.875e-06
1.49123e-22
1.2581e-21
1.875e-06
1.98061e-22
1.1521e-21
1.875e-06
1.01937e-23
1.08205e-21
1.875e-06
1.39671e-22
1.1794e-21
1.875e-06
-2.35045e-23
9.59323e-22
1.875e-06
9.28186e-24
8.90245e-22
1.875e-06
1.89261e-22
9.40349e-22
1.875e-06
2.33679e-22
9.50848e-22
1.875e-06
9.66773e-23
9.14487e-22
1.875e-06
8.52904e-23
6.98129e-22
1.875e-06
7.34342e-23
6.86067e-22
1.875e-06
1.22117e-22
6.23316e-22
1.875e-06
1.06462e-22
5.41133e-22
1.875e-06
6.56976e-23
4.83489e-22
1.875e-06
1.56777e-22
4.52623e-22
1.875e-06
1.32922e-22
4.35392e-22
1.875e-06
8.53381e-23
3.29016e-22
1.875e-06
8.55608e-23
2.61604e-22
1.875e-06
4.62629e-23
4.18206e-22
1.875e-06
3.12627e-23
4.38477e-22
1.875e-06
2.80676e-23
2.57749e-22
1.875e-06
-6.13446e-23
2.05458e-22
1.875e-06
-2.03165e-23
2.09484e-22
1.875e-06
-2.1672e-23
2.24969e-22
1.875e-06
1.08643e-23
1.28935e-22
1.875e-06
-7.5215e-23
1.27594e-22
1.875e-06
-1.09638e-22
1.63983e-22
1.875e-06
2.19381e-23
1.96082e-22
1.875e-06
-5.98585e-23
9.36519e-26
1.875e-06
-3.4393e-23
3.20521e-25
1.875e-06
-1.15017e-22
-5.43677e-23
1.875e-06
-1.19606e-22
-3.57523e-22
1.875e-06
-1.29469e-23
-3.21174e-22
1.875e-06
1.11758e-22
-1.26872e-22
1.875e-06
1.30421e-22
-5.20196e-23
1.4108e-22
-5.60442e-23
1.875e-06
2.78774e-22
6.03015e-22
1.875e-06
1.80791e-22
9.74938e-22
1.875e-06
1.0043e-22
1.07236e-21
1.875e-06
1.17104e-22
1.15426e-21
1.875e-06
1.23687e-22
1.21758e-21
1.875e-06
-3.39878e-24
1.15164e-21
1.875e-06
1.3482e-22
1.16672e-21
1.875e-06
1.83341e-22
1.10309e-21
1.875e-06
1.90678e-22
1.01868e-21
1.875e-06
9.76329e-23
1.0036e-21
1.875e-06
1.92339e-23
8.62577e-22
1.875e-06
-3.55122e-23
8.28296e-22
1.875e-06
1.27136e-22
9.79053e-22
1.875e-06
1.10194e-22
6.75847e-22
1.875e-06
1.51602e-22
7.13457e-22
1.875e-06
1.17504e-23
6.17605e-22
1.875e-06
1.50084e-23
5.59383e-22
1.875e-06
3.16076e-23
4.43972e-22
1.875e-06
9.70823e-23
4.53444e-22
1.875e-06
2.23524e-22
4.78123e-22
1.875e-06
9.21326e-23
3.4509e-22
1.875e-06
-3.22666e-23
2.70919e-22
1.875e-06
-3.95298e-23
3.34855e-22
1.875e-06
-2.79287e-23
4.07122e-22
1.875e-06
-1.25833e-22
2.33459e-22
1.875e-06
-5.14643e-23
2.59708e-22
1.875e-06
-4.23891e-23
2.10295e-22
1.875e-06
2.40143e-25
1.90064e-22
1.875e-06
-4.62801e-23
1.06066e-22
1.875e-06
-8.2652e-23
1.96755e-22
1.875e-06
4.45635e-23
2.21046e-22
1.875e-06
1.41425e-24
1.82833e-22
1.875e-06
-6.93743e-23
1.20863e-22
1.875e-06
5.63499e-23
-2.20251e-23
1.875e-06
1.30143e-22
2.57879e-23
1.875e-06
-9.38941e-23
-2.27369e-22
1.875e-06
-1.10117e-22
-3.75693e-22
1.875e-06
1.99007e-23
-2.00132e-22
1.875e-06
8.77368e-23
-1.08024e-22
9.1323e-23
-1.84104e-22
1.875e-06
2.58491e-23
4.80379e-22
1.875e-06
1.55343e-22
9.47906e-22
1.875e-06
1.37926e-22
1.09442e-21
1.875e-06
1.26982e-22
1.23077e-21
1.875e-06
-4.96355e-23
1.19576e-21
1.875e-06
-8.87673e-23
1.21452e-21
1.875e-06
8.46845e-23
1.12668e-21
1.875e-06
1.60238e-22
1.04515e-21
1.875e-06
1.77165e-24
9.90791e-22
1.875e-06
1.07038e-22
8.9392e-22
1.875e-06
3.58921e-23
8.47071e-22
1.875e-06
7.41849e-23
9.6544e-22
1.875e-06
1.77527e-22
9.54774e-22
1.875e-06
2.48449e-22
8.55409e-22
1.875e-06
7.42825e-23
7.03002e-22
1.875e-06
2.36834e-23
6.06613e-22
1.875e-06
2.38527e-23
5.04276e-22
1.875e-06
7.50374e-23
5.01694e-22
1.875e-06
1.40158e-22
6.05244e-22
1.875e-06
1.59453e-23
4.85134e-22
1.875e-06
7.98719e-23
3.78092e-22
1.875e-06
8.9488e-23
3.10318e-22
1.875e-06
4.51233e-23
3.70003e-22
1.875e-06
4.00733e-23
3.40807e-22
1.875e-06
-1.11532e-22
2.63679e-22
1.875e-06
-6.58193e-23
2.26931e-22
1.875e-06
-1.01716e-22
1.58478e-22
1.875e-06
-6.26058e-23
1.80366e-22
1.875e-06
2.4136e-23
1.75008e-22
1.875e-06
-9.87936e-23
1.42952e-22
1.875e-06
-1.46164e-22
1.78689e-22
1.875e-06
-1.16058e-23
1.57315e-22
1.875e-06
4.31411e-23
1.72165e-22
1.875e-06
-4.1414e-23
-6.27965e-23
1.875e-06
-3.02898e-23
-5.60346e-23
1.875e-06
-8.5967e-24
-2.52883e-22
1.875e-06
-5.62981e-23
-3.83139e-22
1.875e-06
-2.77472e-23
-1.95585e-22
1.875e-06
-6.21686e-23
-7.86309e-23
6.68e-23
-1.98656e-22
1.875e-06
-1.86708e-22
5.27523e-22
1.875e-06
-1.25697e-23
9.21618e-22
1.875e-06
1.27246e-22
1.09858e-21
1.875e-06
9.65305e-24
1.18114e-21
1.875e-06
-1.11499e-23
1.25625e-21
1.875e-06
7.24753e-23
1.2685e-21
1.875e-06
1.40523e-22
1.12485e-21
1.875e-06
1.59947e-22
1.00321e-21
1.875e-06
1.61678e-22
1.05175e-21
1.875e-06
-6.52305e-23
9.11416e-22
1.875e-06
-6.11692e-24
8.95339e-22
1.875e-06
2.38973e-22
8.74929e-22
1.875e-06
1.63722e-22
8.92072e-22
1.875e-06
-1.98801e-23
7.80858e-22
1.875e-06
-3.182e-23
7.96404e-22
1.875e-06
4.03562e-23
6.14516e-22
1.875e-06
8.03921e-23
6.46357e-22
1.875e-06
2.06416e-22
5.92807e-22
1.875e-06
2.18238e-22
5.40378e-22
1.875e-06
1.01731e-23
4.31709e-22
1.875e-06
1.43451e-22
3.69739e-22
1.875e-06
9.23136e-24
3.62998e-22
1.875e-06
-5.23925e-23
3.29578e-22
1.875e-06
-7.15674e-23
3.13928e-22
1.875e-06
-9.37664e-23
2.84141e-22
1.875e-06
-3.01942e-24
2.08158e-22
1.875e-06
1.40461e-22
2.08929e-22
1.875e-06
-6.26208e-24
1.58626e-22
1.875e-06
-1.41948e-22
6.01215e-23
1.875e-06
-4.16683e-23
2.01219e-22
1.875e-06
-9.90369e-23
2.42061e-22
1.875e-06
-9.36183e-23
1.47838e-22
1.875e-06
-1.48295e-23
1.54323e-22
1.875e-06
-3.0939e-23
6.25297e-23
1.875e-06
-1.97527e-23
-5.78372e-23
1.875e-06
-2.70435e-23
-3.01929e-22
1.875e-06
-7.53469e-23
-3.8002e-22
1.875e-06
-4.32807e-23
-4.06726e-22
1.875e-06
-7.48529e-24
-1.60585e-22
-1.46617e-22
-2.53581e-22
1.875e-06
-5.60821e-23
7.24072e-22
1.875e-06
-1.9265e-22
8.79099e-22
1.875e-06
-4.96222e-23
1.00554e-21
1.875e-06
-1.36954e-23
1.17366e-21
1.875e-06
9.17495e-23
1.3339e-21
1.875e-06
1.42792e-23
1.21614e-21
1.875e-06
-2.11023e-23
1.06848e-21
1.875e-06
3.92334e-23
9.50262e-22
1.875e-06
5.66174e-23
9.96814e-22
1.875e-06
4.10363e-23
1.00158e-21
1.875e-06
1.76912e-22
9.2586e-22
1.875e-06
3.55041e-23
8.34033e-22
1.875e-06
3.55894e-23
9.01475e-22
1.875e-06
5.4389e-23
8.70847e-22
1.875e-06
9.62017e-23
8.18885e-22
1.875e-06
7.47815e-23
6.88515e-22
1.875e-06
6.76638e-23
4.61848e-22
1.875e-06
1.06971e-22
4.82002e-22
1.875e-06
2.57348e-23
5.33813e-22
1.875e-06
1.39624e-22
5.14012e-22
1.875e-06
9.93471e-23
3.66981e-22
1.875e-06
9.05257e-23
4.35815e-22
1.875e-06
-9.06014e-23
4.77545e-22
1.875e-06
-2.39677e-22
2.81779e-22
1.875e-06
-1.00065e-22
2.47797e-22
1.875e-06
2.9894e-23
1.89918e-22
1.875e-06
1.31121e-22
8.89987e-23
1.875e-06
3.4773e-23
6.29591e-23
1.875e-06
-4.78055e-23
1.04485e-22
1.875e-06
1.35112e-24
1.30757e-22
1.875e-06
-5.80086e-24
2.50464e-22
1.875e-06
-6.99999e-23
1.67456e-22
1.875e-06
-5.79344e-23
5.14406e-23
1.875e-06
-4.17838e-23
1.88697e-23
1.875e-06
-1.41502e-23
-1.48311e-23
1.875e-06
1.418e-24
-2.90437e-22
1.875e-06
-1.09711e-22
-3.87906e-22
1.875e-06
-1.68621e-22
-3.25533e-22
1.875e-06
-5.83381e-23
-2.11621e-22
-5.60324e-23
-1.46295e-22
1.875e-06
-3.23678e-23
6.14139e-22
1.875e-06
-1.11084e-22
1.0135e-21
1.875e-06
-9.811e-23
1.09122e-21
1.875e-06
-1.19296e-22
1.25142e-21
1.875e-06
-8.37447e-23
1.27731e-21
1.875e-06
3.81437e-23
1.26607e-21
1.875e-06
5.45554e-23
1.16104e-21
1.875e-06
3.7683e-23
1.04892e-21
1.875e-06
3.01892e-24
1.03734e-21
1.875e-06
1.13443e-22
9.42911e-22
1.875e-06
1.39179e-22
8.77008e-22
1.875e-06
9.11673e-23
9.64408e-22
1.875e-06
-6.06996e-23
1.02083e-21
1.875e-06
-1.13751e-23
8.86466e-22
1.875e-06
-1.27154e-23
7.12094e-22
1.875e-06
3.46807e-23
5.77147e-22
1.875e-06
1.28402e-22
5.01385e-22
1.875e-06
8.4812e-23
4.97051e-22
1.875e-06
1.48997e-22
5.30126e-22
1.875e-06
1.46373e-22
4.55527e-22
1.875e-06
2.73594e-23
3.49093e-22
1.875e-06
-3.2255e-23
4.65248e-22
1.875e-06
-7.13396e-23
4.29478e-22
1.875e-06
-1.81204e-22
3.09318e-22
1.875e-06
-1.27296e-22
3.11106e-22
1.875e-06
-7.27497e-23
1.72179e-22
1.875e-06
-2.56696e-23
5.41814e-23
1.875e-06
8.13392e-23
-7.09549e-23
1.875e-06
1.28278e-23
1.29147e-22
1.875e-06
7.43393e-23
1.3853e-22
1.875e-06
-1.93733e-23
1.44779e-22
1.875e-06
7.20585e-23
1.08272e-22
1.875e-06
-6.56749e-23
-1.29603e-23
1.875e-06
-1.75525e-22
1.97015e-24
1.875e-06
-2.35453e-22
-1.19675e-22
1.875e-06
-1.35578e-22
-3.54849e-22
1.875e-06
8.82339e-23
-2.59683e-22
1.875e-06
-8.59432e-23
-1.60715e-22
1.875e-06
-1.51289e-22
-1.67317e-22
-3.8366e-23
-1.52195e-22
1.875e-06
-1.30549e-22
5.63127e-22
1.875e-06
-6.08468e-23
9.62929e-22
1.875e-06
-1.71268e-23
1.15534e-21
1.875e-06
-5.58102e-23
1.29987e-21
1.875e-06
-7.73886e-23
1.36926e-21
1.875e-06
-4.2634e-23
1.29529e-21
1.875e-06
-6.44309e-23
1.12322e-21
1.875e-06
-9.26217e-23
1.10204e-21
1.875e-06
8.57931e-23
1.19034e-21
1.875e-06
1.76382e-22
8.995e-22
1.875e-06
4.71472e-23
7.90136e-22
1.875e-06
4.87465e-23
9.41747e-22
1.875e-06
3.7385e-23
1.04683e-21
1.875e-06
-5.23922e-23
9.80257e-22
1.875e-06
1.94636e-23
7.45082e-22
1.875e-06
1.04298e-22
5.12962e-22
1.875e-06
7.34799e-23
3.34849e-22
1.875e-06
-5.00666e-23
4.49371e-22
1.875e-06
6.56658e-23
5.29031e-22
1.875e-06
1.85251e-22
5.48407e-22
1.875e-06
1.58289e-22
4.60613e-22
1.875e-06
-2.16066e-23
4.3044e-22
1.875e-06
-1.23975e-22
3.47381e-22
1.875e-06
-9.84956e-23
3.11372e-22
1.875e-06
-1.32716e-22
2.92624e-22
1.875e-06
-2.66678e-23
2.29016e-22
1.875e-06
-2.89839e-23
3.48379e-23
1.875e-06
-4.37939e-23
-2.61731e-23
1.875e-06
7.31514e-23
1.85918e-22
1.875e-06
-2.2836e-23
4.83477e-23
1.875e-06
8.70548e-23
9.41541e-23
1.875e-06
-6.3078e-23
-8.22055e-24
1.875e-06
-1.06534e-22
1.41421e-23
1.875e-06
-6.53496e-23
9.07388e-23
1.875e-06
-9.20237e-23
-2.20381e-23
1.875e-06
-1.61012e-22
-2.35343e-22
1.875e-06
-9.74514e-23
-3.32863e-22
1.875e-06
6.97433e-23
-1.62446e-22
1.875e-06
-4.10069e-23
-1.95347e-22
-4.36698e-24
-3.39027e-22
1.875e-06
-7.55538e-23
6.53388e-22
1.875e-06
-1.61141e-22
1.03219e-21
1.875e-06
-1.74918e-22
1.13553e-21
1.875e-06
2.06206e-23
1.28143e-21
1.875e-06
5.34166e-23
1.32895e-21
1.875e-06
-6.24433e-23
1.28245e-21
1.875e-06
-1.46493e-22
1.12741e-21
1.875e-06
-1.1757e-22
1.05741e-21
1.875e-06
1.55719e-23
1.14453e-21
1.875e-06
6.02026e-23
1.05458e-21
1.875e-06
1.50958e-23
9.4677e-22
1.875e-06
6.61134e-23
9.15229e-22
1.875e-06
8.35002e-23
1.04242e-21
1.875e-06
1.98622e-23
1.03151e-21
1.875e-06
7.11909e-23
7.93315e-22
1.875e-06
-2.25154e-23
5.39338e-22
1.875e-06
4.54641e-23
4.69765e-22
1.875e-06
1.81793e-22
5.12434e-22
1.875e-06
2.33681e-22
4.25891e-22
1.875e-06
6.32071e-23
4.34704e-22
1.875e-06
-1.12148e-22
3.30823e-22
1.875e-06
-1.97457e-22
4.56632e-22
1.875e-06
-2.0288e-23
4.56198e-22
1.875e-06
1.41886e-24
3.38818e-22
1.875e-06
8.6218e-25
3.19924e-22
1.875e-06
-1.35591e-22
1.73692e-22
1.875e-06
-6.04893e-23
1.30563e-22
1.875e-06
-3.34204e-23
1.21509e-22
1.875e-06
-3.72812e-23
6.78839e-23
1.875e-06
7.53562e-24
5.63444e-23
1.875e-06
9.4005e-23
3.76907e-23
1.875e-06
-4.04587e-23
7.79273e-24
1.875e-06
-4.10286e-23
4.63161e-23
1.875e-06
-1.12645e-24
3.44552e-23
1.875e-06
-9.71579e-23
3.6279e-24
1.875e-06
-6.9353e-23
-6.73569e-23
1.875e-06
-1.2626e-22
-1.97118e-22
1.875e-06
-7.69374e-23
-3.05253e-22
1.875e-06
1.23723e-22
-2.65863e-22
1.62323e-22
-2.86591e-22
1.875e-06
-3.33976e-24
7.12266e-22
1.875e-06
-1.53625e-23
1.07992e-21
1.875e-06
2.91031e-23
1.13497e-21
1.875e-06
8.33645e-24
1.25946e-21
1.875e-06
-2.93056e-23
1.28653e-21
1.875e-06
-1.17159e-22
1.26401e-21
1.875e-06
-1.99148e-22
1.19896e-21
1.875e-06
-3.23605e-23
1.16418e-21
1.875e-06
-3.28877e-24
1.17187e-21
1.875e-06
2.40458e-23
1.07063e-21
1.875e-06
3.24069e-23
1.0274e-21
1.875e-06
5.18928e-23
9.82737e-22
1.875e-06
1.18025e-22
9.96359e-22
1.875e-06
1.27791e-22
1.02247e-21
1.875e-06
5.60686e-23
7.71153e-22
1.875e-06
1.40515e-23
6.19531e-22
1.875e-06
-1.10443e-22
4.68182e-22
1.875e-06
-5.53715e-23
4.11005e-22
1.875e-06
1.8394e-23
2.97316e-22
1.875e-06
9.3451e-24
3.55862e-22
1.875e-06
-7.20372e-23
3.3579e-22
1.875e-06
4.99086e-23
5.66168e-22
1.875e-06
-5.84933e-24
4.88059e-22
1.875e-06
2.93982e-23
3.85334e-22
1.875e-06
-6.15589e-24
3.64123e-22
1.875e-06
-8.14558e-23
1.60806e-22
1.875e-06
6.30258e-23
1.95257e-22
1.875e-06
6.22839e-23
2.00923e-22
1.875e-06
-2.39979e-23
1.41025e-22
1.875e-06
-8.33866e-24
8.15667e-24
1.875e-06
-6.28034e-23
-1.29362e-22
1.875e-06
-3.16246e-23
-1.07116e-22
1.875e-06
1.5664e-23
-1.2874e-23
1.875e-06
2.50749e-23
8.01825e-23
1.875e-06
3.14794e-23
4.82402e-23
1.875e-06
-3.88981e-23
-8.28481e-23
1.875e-06
2.81572e-23
-6.66953e-23
1.875e-06
-4.26365e-23
-1.82129e-22
1.875e-06
-2.9085e-23
-1.8603e-22
-4.92667e-23
-2.47864e-22
1.875e-06
9.07875e-23
7.6242e-22
1.875e-06
1.42627e-22
1.13055e-21
1.875e-06
1.89202e-24
1.04421e-21
1.875e-06
-9.02042e-23
1.14979e-21
1.875e-06
-9.36893e-23
1.25365e-21
1.875e-06
-7.81281e-23
1.34717e-21
1.875e-06
-6.05647e-23
1.30886e-21
1.875e-06
-1.62381e-22
1.07947e-21
1.875e-06
-1.08874e-22
1.12019e-21
1.875e-06
1.04824e-24
1.21749e-21
1.875e-06
-1.67249e-22
1.0666e-21
1.875e-06
4.9342e-22
1.04639e-21
1.875e-06
5.72621e-23
8.97595e-22
1.875e-06
9.36127e-23
9.47492e-22
1.875e-06
3.38008e-23
9.39725e-22
1.875e-06
-1.27652e-22
6.89416e-22
1.875e-06
-2.54105e-23
4.66707e-22
1.875e-06
-8.75676e-23
2.64794e-22
1.875e-06
-1.89476e-22
4.14235e-22
1.875e-06
-3.6042e-23
3.99391e-22
1.875e-06
-5.7255e-23
3.77404e-22
1.875e-06
-4.68171e-23
4.90857e-22
1.875e-06
-1.11484e-23
5.69987e-22
1.875e-06
1.75264e-23
3.153e-22
1.875e-06
1.58335e-22
3.04118e-22
1.875e-06
9.25573e-23
2.85278e-22
1.875e-06
-9.37608e-23
1.12136e-22
1.875e-06
-1.05884e-23
9.1959e-23
1.875e-06
-9.19964e-23
5.37363e-23
1.875e-06
1.97689e-22
2.18392e-23
1.875e-06
-6.23568e-23
1.70621e-23
1.875e-06
-1.34985e-23
-7.89937e-23
1.875e-06
1.61801e-22
-1.07996e-22
1.875e-06
-1.46218e-22
1.64194e-23
1.875e-06
4.69888e-23
3.2974e-23
1.875e-06
7.09972e-23
2.13144e-23
1.875e-06
1.14495e-23
-5.07935e-23
1.875e-06
-8.28053e-24
-1.28239e-22
1.875e-06
-1.51171e-22
-3.22161e-22
-1.07293e-22
-1.96925e-22
1.875e-06
1.88478e-22
6.5788e-22
1.875e-06
1.1516e-22
9.63387e-22
1.875e-06
-1.40004e-23
1.02968e-21
1.875e-06
-3.9464e-23
1.14101e-21
1.875e-06
8.07792e-24
1.23404e-21
1.875e-06
6.46805e-23
1.32747e-21
1.875e-06
2.16925e-23
1.31065e-21
1.875e-06
-1.7779e-22
1.1951e-21
1.875e-06
-1.47604e-22
1.12928e-21
1.875e-06
-4.82591e-23
1.2089e-21
1.875e-06
3.45433e-23
1.12349e-21
1.875e-06
7.87777e-23
1.10039e-21
1.875e-06
1.01442e-22
1.05236e-21
1.875e-06
3.42476e-23
8.74328e-22
1.875e-06
-1.08861e-22
7.62072e-22
1.875e-06
-1.57458e-23
7.11768e-22
1.875e-06
-1.29841e-22
4.59246e-22
1.875e-06
-9.0405e-23
3.76431e-22
1.875e-06
-7.93617e-23
4.80269e-22
1.875e-06
-6.34772e-23
4.65514e-22
1.875e-06
-5.69727e-23
3.68675e-22
1.875e-06
-1.58876e-22
4.44047e-22
1.875e-06
2.78731e-23
5.33758e-22
1.875e-06
3.1689e-23
3.89472e-22
1.875e-06
1.89672e-23
2.47106e-22
1.875e-06
1.20604e-22
2.85513e-22
1.875e-06
6.35227e-23
6.4573e-23
1.875e-06
6.86026e-23
7.89655e-23
1.875e-06
8.40271e-23
7.71251e-23
1.875e-06
1.9895e-23
1.74837e-23
1.875e-06
1.01057e-23
-2.49353e-23
1.875e-06
-3.40145e-23
-9.61985e-23
1.875e-06
-1.00357e-22
-1.08731e-22
1.875e-06
3.65181e-23
1.17262e-22
1.875e-06
7.5889e-23
-9.02269e-23
1.875e-06
2.00972e-22
-4.30135e-23
1.875e-06
6.95288e-23
-1.06732e-22
1.875e-06
3.48638e-23
-1.17896e-22
1.875e-06
-1.19155e-22
-2.19904e-22
-1.7733e-22
-1.21075e-22
1.875e-06
4.1183e-23
4.82271e-22
1.875e-06
1.18135e-22
8.86279e-22
1.875e-06
-7.09541e-24
1.10038e-21
1.875e-06
4.47284e-24
1.09395e-21
1.875e-06
3.51931e-23
1.10898e-21
1.875e-06
9.67902e-23
1.25555e-21
1.875e-06
6.98418e-24
1.27959e-21
1.875e-06
-2.47885e-23
1.28018e-21
1.875e-06
-2.606e-23
1.19973e-21
1.875e-06
-1.04492e-22
1.33532e-21
1.875e-06
-1.19079e-22
1.16318e-21
1.875e-06
-1.24135e-22
9.84393e-22
1.875e-06
-3.87939e-23
1.03217e-21
1.875e-06
-1.55429e-22
9.30213e-22
1.875e-06
-1.01804e-22
7.80857e-22
1.875e-06
-4.53114e-23