/*--------------------------------*- C++ -*----------------------------------*\
| =========                 |                                                 |
| \\      /  F ield         | OpenFOAM: The Open Source CFD Toolbox           |
|  \\    /   O peration     | Version:  v2012                                 |
|   \\  /    A nd           | Website:  www.openfoam.com                      |
|    \\/     M anipulation  |                                                 |
\*---------------------------------------------------------------------------*/
FoamFile
{
    version     2.0;
    format      ascii;
    class       volVectorField;
    location    "29";
    object      U;
}
// * * * * * * * * * * * * * * * * * * * * * * * * * * * * * * * * * * * * * //

dimensions      [0 1 -1 0 0 0 0];


internalField   nonuniform List<vector> 
64000
(
(0.003 2.49081e-19 2.08869e-19)
(0.003 4.12019e-19 3.55151e-19)
(0.003 4.28001e-19 4.57914e-19)
(0.003 4.39743e-19 5.24504e-19)
(0.003 5.61049e-19 5.17496e-19)
(0.003 5.7771e-19 4.37352e-19)
(0.003 4.94756e-19 3.8845e-19)
(0.003 2.8353e-19 3.63925e-19)
(0.003 3.14203e-19 4.93452e-19)
(0.003 5.07819e-19 4.52224e-19)
(0.003 5.14861e-19 3.51202e-19)
(0.003 4.52735e-19 4.56739e-19)
(0.003 3.81385e-19 4.01203e-19)
(0.003 3.62252e-19 2.8719e-19)
(0.003 2.97892e-19 3.48091e-19)
(0.003 2.50109e-19 3.66808e-19)
(0.003 1.94815e-19 2.45697e-19)
(0.003 6.22355e-20 1.18566e-19)
(0.003 8.71568e-20 9.02384e-20)
(0.003 1.25539e-19 1.66724e-19)
(0.003 3.95105e-20 1.71868e-19)
(0.003 1.59792e-19 2.22123e-19)
(0.003 2.56634e-19 2.05973e-19)
(0.003 3.17532e-19 1.17503e-19)
(0.003 3.42778e-19 1.7759e-19)
(0.003 2.08358e-19 1.71578e-19)
(0.003 1.17473e-19 1.71417e-19)
(0.003 1.89724e-19 2.06299e-19)
(0.003 2.47081e-19 2.73969e-19)
(0.003 6.26841e-20 2.49332e-19)
(0.003 -7.01831e-20 2.0213e-19)
(0.003 -1.48717e-20 6.94786e-20)
(0.003 1.20744e-19 8.98718e-20)
(0.003 1.04476e-19 1.0701e-19)
(0.003 1.13648e-19 1.52239e-19)
(0.003 1.67948e-19 1.89214e-19)
(0.003 -1.14292e-20 6.30198e-20)
(0.003 -1.86733e-19 9.40612e-20)
(0.003 -2.36024e-19 1.61187e-19)
(0.003 -2.21905e-19 1.1253e-19)
(0.003 2.43954e-19 2.86828e-19)
(0.003 3.84611e-19 7.02598e-19)
(0.003 6.09665e-19 9.80864e-19)
(0.003 5.67873e-19 9.85253e-19)
(0.003 4.85781e-19 9.51851e-19)
(0.003 6.8752e-19 9.9597e-19)
(0.003 6.41028e-19 9.23752e-19)
(0.003 5.69872e-19 6.9452e-19)
(0.003 5.51802e-19 7.84594e-19)
(0.003 5.03144e-19 1.03446e-18)
(0.003 4.25051e-19 9.97973e-19)
(0.003 3.85026e-19 8.69257e-19)
(0.003 3.29235e-19 7.61734e-19)
(0.003 2.1803e-19 6.59609e-19)
(0.003 1.72446e-19 6.39376e-19)
(0.003 1.35155e-19 6.09555e-19)
(0.003 3.49009e-19 5.69352e-19)
(0.003 3.21268e-19 4.18596e-19)
(0.003 1.42162e-19 3.32903e-19)
(0.003 4.47472e-20 2.97063e-19)
(0.003 1.82913e-19 2.40601e-19)
(0.003 2.8366e-19 3.04619e-19)
(0.003 2.36953e-19 3.352e-19)
(0.003 3.14856e-19 3.70308e-19)
(0.003 1.71819e-19 4.00006e-19)
(0.003 1.78631e-19 2.84364e-19)
(0.003 2.68746e-19 2.24771e-19)
(0.003 1.58185e-19 2.8428e-19)
(0.003 1.00447e-21 3.86599e-19)
(0.003 2.3701e-20 3.00658e-19)
(0.003 5.00084e-20 1.00479e-19)
(0.003 7.761e-20 3.99997e-20)
(0.003 1.07647e-19 1.95606e-19)
(0.003 6.40177e-21 2.02575e-19)
(0.003 -1.11686e-20 2.7506e-19)
(0.003 -5.72761e-20 2.40029e-19)
(0.003 -1.06177e-19 -2.70981e-20)
(0.003 -1.75579e-19 -7.42928e-20)
(0.003 -1.77808e-19 4.88765e-20)
(0.003 -1.42375e-19 9.5252e-20)
(0.003 1.85756e-19 4.45098e-19)
(0.003 2.24166e-19 8.04228e-19)
(0.003 3.24596e-19 1.09406e-18)
(0.003 4.86003e-19 1.17402e-18)
(0.003 4.56537e-19 1.12474e-18)
(0.003 4.6629e-19 1.12886e-18)
(0.003 5.33118e-19 1.14641e-18)
(0.003 5.67455e-19 9.99358e-19)
(0.003 5.37126e-19 1.07094e-18)
(0.003 4.104e-19 1.15993e-18)
(0.003 3.2581e-19 1.00398e-18)
(0.003 2.79643e-19 9.45039e-19)
(0.003 3.24064e-19 8.23114e-19)
(0.003 1.95449e-19 7.28143e-19)
(0.003 1.7261e-19 7.19657e-19)
(0.003 1.05254e-19 6.5027e-19)
(0.003 2.28345e-19 7.31745e-19)
(0.003 3.79059e-19 6.01752e-19)
(0.003 1.10884e-19 3.40693e-19)
(0.003 1.37945e-19 3.13354e-19)
(0.003 3.032e-19 4.11018e-19)
(0.003 2.87118e-19 3.57081e-19)
(0.003 2.36896e-19 3.2812e-19)
(0.003 1.73443e-19 4.04698e-19)
(0.003 1.54852e-19 3.76628e-19)
(0.003 1.65457e-19 3.46839e-19)
(0.003 1.44148e-19 3.1358e-19)
(0.003 -6.44652e-21 3.28876e-19)
(0.003 -6.56208e-20 3.02358e-19)
(0.003 2.22719e-20 3.08954e-19)
(0.003 9.33769e-20 3.17542e-19)
(0.003 1.22216e-19 2.12304e-19)
(0.003 -1.9688e-20 1.54836e-19)
(0.003 -8.96212e-20 1.13121e-19)
(0.003 -5.33909e-20 2.56884e-19)
(0.003 -4.95853e-20 1.36574e-19)
(0.003 -1.64225e-19 -6.61203e-20)
(0.003 -8.77118e-20 1.2777e-20)
(0.003 5.56089e-20 1.0726e-19)
(0.003 4.16427e-20 8.7526e-20)
(0.003 3.53333e-19 6.10235e-19)
(0.003 3.00567e-19 1.00798e-18)
(0.003 2.07013e-19 1.17552e-18)
(0.003 3.06542e-19 1.321e-18)
(0.003 4.15488e-19 1.28508e-18)
(0.003 3.81245e-19 1.30051e-18)
(0.003 3.61789e-19 1.25671e-18)
(0.003 3.40728e-19 1.09369e-18)
(0.003 3.38954e-19 1.09976e-18)
(0.003 3.81102e-19 1.16215e-18)
(0.003 3.61971e-19 1.13729e-18)
(0.003 3.05553e-19 1.134e-18)
(0.003 2.44124e-19 9.73841e-19)
(0.003 1.73787e-19 7.5905e-19)
(0.003 3.84248e-19 7.5765e-19)
(0.003 5.5991e-19 7.17479e-19)
(0.003 2.30884e-19 7.12152e-19)
(0.003 7.83356e-20 6.6956e-19)
(0.003 1.8093e-19 3.99888e-19)
(0.003 2.07632e-19 3.06446e-19)
(0.003 1.2564e-19 4.3264e-19)
(0.003 1.91421e-19 4.82851e-19)
(0.003 2.67372e-19 4.09203e-19)
(0.003 1.8423e-19 4.7564e-19)
(0.003 1.74278e-19 4.60031e-19)
(0.003 1.23163e-19 3.72844e-19)
(0.003 2.36188e-20 2.77473e-19)
(0.003 -1.71524e-20 2.15886e-19)
(0.003 5.51055e-20 3.20998e-19)
(0.003 -2.93291e-20 3.2762e-19)
(0.003 -5.56365e-20 2.90748e-19)
(0.003 -9.98585e-21 2.2129e-19)
(0.003 -1.43339e-19 1.76056e-19)
(0.003 -1.08709e-19 1.81531e-19)
(0.003 -4.24087e-20 1.80738e-19)
(0.003 -1.10236e-19 1.32519e-19)
(0.003 6.45469e-21 2.22049e-20)
(0.003 1.07069e-19 3.19814e-20)
(0.003 1.2832e-19 7.90909e-20)
(0.003 1.18041e-19 8.25556e-20)
(0.003 1.31159e-19 6.31409e-19)
(0.003 2.14534e-19 1.11421e-18)
(0.003 1.56162e-19 1.25273e-18)
(0.003 1.57943e-19 1.32517e-18)
(0.003 2.32023e-19 1.43007e-18)
(0.003 2.14333e-19 1.48263e-18)
(0.003 2.04068e-19 1.35919e-18)
(0.003 4.05422e-19 1.09967e-18)
(0.003 4.45365e-19 1.07098e-18)
(0.003 3.80044e-19 1.25888e-18)
(0.003 2.83121e-19 1.23857e-18)
(0.003 2.48234e-19 1.11448e-18)
(0.003 2.6249e-19 9.67066e-19)
(0.003 2.38816e-19 8.57253e-19)
(0.003 3.42448e-19 9.45208e-19)
(0.003 5.00136e-19 9.63054e-19)
(0.003 2.57815e-19 7.54106e-19)
(0.003 5.84952e-20 5.78177e-19)
(0.003 1.3641e-19 4.45488e-19)
(0.003 1.39925e-19 3.25256e-19)
(0.003 -5.03422e-20 3.5366e-19)
(0.003 4.26776e-20 4.65058e-19)
(0.003 2.89812e-19 5.40898e-19)
(0.003 2.13e-19 5.18894e-19)
(0.003 1.26343e-19 5.15594e-19)
(0.003 1.08097e-19 4.26821e-19)
(0.003 8.56006e-20 2.72297e-19)
(0.003 2.99439e-20 2.89437e-19)
(0.003 4.59225e-20 3.44677e-19)
(0.003 2.96496e-20 2.46131e-19)
(0.003 5.03909e-20 2.1106e-19)
(0.003 -1.50065e-20 2.29266e-19)
(0.003 -1.33049e-19 1.12463e-19)
(0.003 -9.25767e-20 1.16486e-19)
(0.003 -3.77691e-20 1.77595e-19)
(0.003 -5.97348e-20 1.21829e-19)
(0.003 8.04202e-20 6.63571e-20)
(0.003 7.89015e-20 3.01486e-22)
(0.003 4.4765e-20 9.88706e-20)
(0.003 3.55788e-20 1.60691e-19)
(0.003 6.85383e-21 6.78771e-19)
(0.003 1.69975e-19 1.08099e-18)
(0.003 1.16446e-19 1.21973e-18)
(0.003 1.40227e-19 1.37256e-18)
(0.003 1.81575e-19 1.50629e-18)
(0.003 1.69465e-19 1.46576e-18)
(0.003 2.02261e-19 1.3749e-18)
(0.003 4.70145e-19 1.40457e-18)
(0.003 5.26684e-19 1.29549e-18)
(0.003 3.45237e-19 1.1814e-18)
(0.003 2.57981e-19 1.16827e-18)
(0.003 3.00291e-19 1.20637e-18)
(0.003 3.03629e-19 1.0782e-18)
(0.003 3.45074e-19 8.69657e-19)
(0.003 2.45675e-19 9.82278e-19)
(0.003 1.69145e-19 1.0125e-18)
(0.003 1.34873e-19 8.03345e-19)
(0.003 -1.38119e-20 5.7372e-19)
(0.003 -2.93619e-20 4.36389e-19)
(0.003 5.47335e-20 3.44194e-19)
(0.003 1.22261e-19 3.17063e-19)
(0.003 1.68095e-19 4.84356e-19)
(0.003 2.71962e-19 5.96883e-19)
(0.003 2.66941e-19 5.29728e-19)
(0.003 1.12298e-19 4.51312e-19)
(0.003 1.05874e-19 4.30503e-19)
(0.003 8.55705e-20 4.04511e-19)
(0.003 -1.95926e-20 2.33146e-19)
(0.003 -1.39573e-19 2.48394e-19)
(0.003 -6.1699e-20 3.70864e-19)
(0.003 1.57007e-19 3.34527e-19)
(0.003 1.934e-19 2.07423e-19)
(0.003 6.1187e-20 5.07609e-20)
(0.003 -1.78136e-20 1.48526e-19)
(0.003 -7.74737e-20 1.70208e-19)
(0.003 9.38935e-20 5.02971e-20)
(0.003 1.58191e-19 3.62689e-20)
(0.003 6.62424e-20 1.57308e-20)
(0.003 4.63335e-20 6.97264e-20)
(0.003 7.14987e-20 1.13911e-19)
(0.003 1.08846e-19 8.18471e-19)
(0.003 2.12837e-19 1.25757e-18)
(0.003 2.07084e-19 1.27438e-18)
(0.003 1.03484e-19 1.3735e-18)
(0.003 1.53684e-19 1.53668e-18)
(0.003 1.64997e-19 1.57393e-18)
(0.003 2.71468e-19 1.45745e-18)
(0.003 5.0912e-19 1.41577e-18)
(0.003 4.85611e-19 1.39636e-18)
(0.003 3.6117e-19 1.3136e-18)
(0.003 3.36586e-19 1.2683e-18)
(0.003 2.34684e-19 1.22701e-18)
(0.003 1.89309e-19 1.10658e-18)
(0.003 3.49292e-19 9.6646e-19)
(0.003 2.31205e-19 9.9509e-19)
(0.003 1.55146e-19 9.31418e-19)
(0.003 1.08409e-19 6.96893e-19)
(0.003 6.04734e-20 5.04713e-19)
(0.003 7.76637e-20 3.82554e-19)
(0.003 1.12818e-19 3.61953e-19)
(0.003 1.96738e-19 4.21422e-19)
(0.003 1.52173e-19 5.68703e-19)
(0.003 9.73622e-20 6.46662e-19)
(0.003 1.41819e-19 5.65431e-19)
(0.003 1.18337e-19 4.46295e-19)
(0.003 1.18704e-19 4.15006e-19)
(0.003 3.88237e-20 3.71217e-19)
(0.003 -2.34877e-20 2.41898e-19)
(0.003 -9.78314e-20 1.88501e-19)
(0.003 -3.75056e-20 2.15756e-19)
(0.003 9.466e-20 3.14867e-19)
(0.003 4.7498e-20 1.99431e-19)
(0.003 3.27445e-20 6.18666e-20)
(0.003 1.20758e-19 1.20312e-19)
(0.003 1.49817e-19 1.51528e-19)
(0.003 2.15257e-19 1.17048e-19)
(0.003 9.96598e-20 -3.44717e-21)
(0.003 4.43075e-21 -2.23264e-20)
(0.003 -3.57077e-20 1.46331e-19)
(0.003 -3.9402e-21 1.70868e-19)
(0.003 2.36112e-19 7.43271e-19)
(0.003 2.15501e-19 1.2118e-18)
(0.003 2.32608e-19 1.37011e-18)
(0.003 2.27354e-19 1.49409e-18)
(0.003 2.01993e-19 1.6106e-18)
(0.003 2.35945e-19 1.54601e-18)
(0.003 3.49756e-19 1.53256e-18)
(0.003 3.10781e-19 1.61338e-18)
(0.003 3.1862e-19 1.53445e-18)
(0.003 3.86741e-19 1.44153e-18)
(0.003 2.34913e-19 1.31642e-18)
(0.003 1.56054e-19 1.17681e-18)
(0.003 1.88592e-19 1.0369e-18)
(0.003 3.29174e-19 9.65009e-19)
(0.003 2.75204e-19 9.92285e-19)
(0.003 1.77482e-19 9.6673e-19)
(0.003 8.91944e-20 7.09365e-19)
(0.003 1.32042e-19 4.78109e-19)
(0.003 2.97e-19 3.62026e-19)
(0.003 2.22189e-19 3.54885e-19)
(0.003 1.09814e-19 4.40401e-19)
(0.003 -2.81693e-21 5.78284e-19)
(0.003 -4.86797e-20 5.97287e-19)
(0.003 9.12997e-20 5.30157e-19)
(0.003 1.15818e-19 5.6396e-19)
(0.003 8.7962e-20 4.6004e-19)
(0.003 1.05859e-19 2.72923e-19)
(0.003 4.41373e-20 1.94847e-19)
(0.003 -4.33518e-20 1.90153e-19)
(0.003 1.93429e-21 2.73099e-19)
(0.003 -1.03942e-19 3.76008e-19)
(0.003 -9.2741e-20 2.79869e-19)
(0.003 -3.90519e-22 1.31391e-19)
(0.003 7.15738e-20 1.48654e-19)
(0.003 2.42661e-19 1.24386e-19)
(0.003 1.01194e-19 -1.20526e-19)
(0.003 1.77289e-20 -3.67541e-19)
(0.003 -5.45524e-20 4.71368e-21)
(0.003 -8.90627e-20 2.41311e-19)
(0.003 -2.11318e-20 1.17799e-19)
(0.003 -6.50422e-20 7.66397e-19)
(0.003 2.75255e-20 1.42784e-18)
(0.003 1.79879e-19 1.50639e-18)
(0.003 2.1252e-19 1.56948e-18)
(0.003 2.35366e-19 1.65113e-18)
(0.003 3.81618e-19 1.63237e-18)
(0.003 3.7502e-19 1.63549e-18)
(0.003 1.10233e-19 1.6042e-18)
(0.003 1.10969e-19 1.56203e-18)
(0.003 2.43084e-19 1.49441e-18)
(0.003 2.08575e-19 1.36136e-18)
(0.003 1.51574e-19 1.23233e-18)
(0.003 1.54223e-19 9.84439e-19)
(0.003 2.78605e-19 9.78431e-19)
(0.003 2.90204e-19 1.0361e-18)
(0.003 1.21067e-19 9.31187e-19)
(0.003 1.92466e-19 7.33272e-19)
(0.003 1.59291e-19 4.55192e-19)
(0.003 2.2093e-20 4.61559e-19)
(0.003 2.10418e-20 4.26349e-19)
(0.003 1.17309e-19 3.61766e-19)
(0.003 1.12027e-19 5.77096e-19)
(0.003 1.62762e-19 6.47749e-19)
(0.003 1.70907e-19 6.25623e-19)
(0.003 1.16007e-19 5.36263e-19)
(0.003 -4.47651e-21 3.8817e-19)
(0.003 -7.75337e-21 3.04065e-19)
(0.003 4.70691e-20 2.38238e-19)
(0.003 3.06681e-20 1.2847e-19)
(0.003 -7.47654e-20 2.00671e-19)
(0.003 -1.84804e-19 2.82327e-19)
(0.003 -1.76664e-19 2.95695e-19)
(0.003 -3.69727e-22 1.77087e-19)
(0.003 3.6349e-20 8.62614e-20)
(0.003 1.11307e-20 -9.94911e-20)
(0.003 -5.43657e-20 -3.97403e-19)
(0.003 1.57737e-20 -2.62677e-19)
(0.003 5.78724e-20 2.29086e-20)
(0.003 5.2829e-20 1.69227e-19)
(0.003 4.85034e-20 8.3034e-20)
(0.003 -1.9712e-19 9.40081e-19)
(0.003 2.43013e-21 1.36404e-18)
(0.003 1.89781e-19 1.5362e-18)
(0.003 3.10457e-19 1.70593e-18)
(0.003 2.11216e-19 1.78184e-18)
(0.003 2.4084e-19 1.73846e-18)
(0.003 3.31463e-19 1.70821e-18)
(0.003 1.67656e-19 1.61245e-18)
(0.003 1.48987e-19 1.41938e-18)
(0.003 1.46872e-19 1.38908e-18)
(0.003 2.11127e-19 1.37467e-18)
(0.003 1.11636e-19 1.2348e-18)
(0.003 1.07736e-19 1.09275e-18)
(0.003 1.55147e-19 1.09097e-18)
(0.003 2.2612e-19 1.03066e-18)
(0.003 2.17228e-19 8.49232e-19)
(0.003 1.80861e-19 7.02535e-19)
(0.003 1.33013e-19 5.60849e-19)
(0.003 -1.44941e-19 3.46005e-19)
(0.003 -1.08283e-19 3.23868e-19)
(0.003 1.82913e-19 4.42622e-19)
(0.003 2.82867e-19 6.20334e-19)
(0.003 2.25453e-19 7.39823e-19)
(0.003 1.42856e-19 7.11125e-19)
(0.003 1.86838e-19 5.80686e-19)
(0.003 -8.67815e-21 3.72117e-19)
(0.003 -2.03561e-19 2.77052e-19)
(0.003 -1.03894e-19 2.23942e-19)
(0.003 1.96553e-20 1.97643e-19)
(0.003 -3.24071e-20 1.90757e-19)
(0.003 -3.12203e-20 1.84519e-19)
(0.003 -1.22291e-19 2.30474e-19)
(0.003 -2.0801e-20 1.9856e-19)
(0.003 -3.31252e-20 7.2285e-20)
(0.003 -1.40774e-19 -7.16682e-20)
(0.003 -7.1358e-20 -3.57746e-19)
(0.003 -5.58627e-21 -4.41281e-19)
(0.003 1.96439e-19 -9.11548e-20)
(0.003 2.40923e-19 2.3442e-20)
(0.003 1.67849e-19 -1.10205e-19)
(0.003 1.04387e-19 9.34252e-19)
(0.003 2.00322e-19 1.52232e-18)
(0.003 2.17225e-19 1.69552e-18)
(0.003 2.20433e-19 1.7723e-18)
(0.003 2.14616e-19 1.78289e-18)
(0.003 2.92279e-19 1.74862e-18)
(0.003 2.18426e-19 1.71525e-18)
(0.003 1.71689e-19 1.59371e-18)
(0.003 9.60041e-20 1.5167e-18)
(0.003 9.79734e-20 1.38923e-18)
(0.003 2.47051e-19 1.28407e-18)
(0.003 2.03165e-19 1.23793e-18)
(0.003 1.35277e-19 1.09022e-18)
(0.003 1.29124e-19 9.71306e-19)
(0.003 1.45639e-19 1.03892e-18)
(0.003 2.71986e-19 1.01963e-18)
(0.003 1.81772e-19 7.29101e-19)
(0.003 4.41375e-20 4.62813e-19)
(0.003 2.09092e-20 3.20959e-19)
(0.003 5.96489e-20 3.95368e-19)
(0.003 2.08298e-19 5.44695e-19)
(0.003 3.07158e-19 7.11902e-19)
(0.003 1.1669e-19 8.00137e-19)
(0.003 2.13222e-20 7.85801e-19)
(0.003 4.63715e-20 5.15937e-19)
(0.003 -5.32399e-20 2.51475e-19)
(0.003 -1.2844e-19 2.47758e-19)
(0.003 -7.34032e-20 2.98254e-19)
(0.003 4.8027e-21 1.87962e-19)
(0.003 -2.56986e-20 2.35967e-19)
(0.003 -7.99243e-20 3.18732e-19)
(0.003 -4.75263e-20 1.81398e-19)
(0.003 1.39031e-20 9.6344e-20)
(0.003 -5.74374e-20 2.49423e-20)
(0.003 -2.77285e-19 -2.61398e-20)
(0.003 -1.94278e-19 -2.7992e-19)
(0.003 2.83476e-20 -4.73008e-19)
(0.003 2.23705e-19 -2.04508e-19)
(0.003 2.69169e-19 -8.08395e-20)
(0.003 1.96948e-19 -1.18191e-19)
(0.003 2.84585e-19 1.01077e-18)
(0.003 2.58288e-19 1.58897e-18)
(0.003 1.80835e-19 1.69715e-18)
(0.003 1.53337e-19 1.69192e-18)
(0.003 2.2697e-19 1.77176e-18)
(0.003 1.80571e-19 1.82556e-18)
(0.003 1.30919e-19 1.68821e-18)
(0.003 2.72176e-19 1.59001e-18)
(0.003 1.63589e-19 1.42091e-18)
(0.003 6.7578e-20 1.42163e-18)
(0.003 1.54911e-19 1.35183e-18)
(0.003 1.7348e-19 1.23422e-18)
(0.003 1.98568e-19 1.15379e-18)
(0.003 1.94308e-19 9.9486e-19)
(0.003 1.38577e-19 1.01056e-18)
(0.003 6.54372e-20 9.99916e-19)
(0.003 3.91958e-20 7.92779e-19)
(0.003 1.12026e-19 5.16428e-19)
(0.003 2.82433e-19 3.89155e-19)
(0.003 2.6728e-19 4.515e-19)
(0.003 1.34811e-19 5.45181e-19)
(0.003 -1.46311e-20 6.57273e-19)
(0.003 -7.83677e-20 6.96164e-19)
(0.003 -5.7907e-20 7.68304e-19)
(0.003 -1.05662e-19 6.10965e-19)
(0.003 -1.00466e-19 3.35265e-19)
(0.003 -3.88212e-20 2.94272e-19)
(0.003 -5.59735e-21 2.82772e-19)
(0.003 -2.15105e-20 1.68639e-19)
(0.003 -9.9946e-20 2.44158e-19)
(0.003 -1.10413e-20 2.96882e-19)
(0.003 2.57293e-20 2.19765e-19)
(0.003 -1.2808e-19 1.30047e-19)
(0.003 -3.06305e-20 -7.08712e-20)
(0.003 -1.66827e-20 -2.29922e-20)
(0.003 -1.201e-19 -9.77235e-20)
(0.003 -9.61632e-20 -5.15979e-19)
(0.003 9.28982e-20 -2.39174e-19)
(0.003 1.85434e-19 -1.77695e-19)
(0.003 2.06891e-19 -2.89002e-19)
(0.003 2.65087e-19 1.05588e-18)
(0.003 3.01038e-19 1.60516e-18)
(0.003 2.20625e-19 1.69807e-18)
(0.003 2.1002e-19 1.78307e-18)
(0.003 6.68626e-20 1.8377e-18)
(0.003 -7.49328e-20 1.79704e-18)
(0.003 1.43823e-19 1.71568e-18)
(0.003 2.29014e-19 1.66954e-18)
(0.003 1.81358e-19 1.53457e-18)
(0.003 1.79387e-19 1.3872e-18)
(0.003 4.45822e-20 1.27661e-18)
(0.003 5.36816e-20 1.21146e-18)
(0.003 2.31611e-19 1.16478e-18)
(0.003 3.18015e-19 1.10847e-18)
(0.003 1.68128e-19 1.05825e-18)
(0.003 -2.7081e-20 9.28469e-19)
(0.003 1.90326e-20 6.99923e-19)
(0.003 1.01525e-19 5.11041e-19)
(0.003 2.04056e-19 5.49327e-19)
(0.003 2.13251e-19 5.73662e-19)
(0.003 1.36131e-19 5.71024e-19)
(0.003 4.93196e-20 6.17134e-19)
(0.003 4.76135e-20 6.58736e-19)
(0.003 -4.01139e-21 6.64287e-19)
(0.003 -2.09539e-19 5.34812e-19)
(0.003 -1.1185e-19 3.22065e-19)
(0.003 -9.22517e-20 2.41474e-19)
(0.003 -6.9918e-20 3.03527e-19)
(0.003 -8.21801e-20 2.29311e-19)
(0.003 -1.94406e-19 2.24392e-19)
(0.003 -5.35208e-20 3.2394e-19)
(0.003 7.49358e-20 2.35395e-19)
(0.003 -1.07313e-20 9.33766e-20)
(0.003 2.47218e-20 8.6148e-20)
(0.003 5.27195e-20 5.13412e-20)
(0.003 -1.15595e-19 -3.20343e-19)
(0.003 -1.08305e-19 -5.48323e-19)
(0.003 1.90864e-20 -2.5424e-19)
(0.003 5.92802e-20 -1.13899e-19)
(0.003 1.35732e-19 -2.63767e-19)
(0.003 -4.34324e-20 1.12101e-18)
(0.003 1.6521e-19 1.70096e-18)
(0.003 2.37969e-19 1.73418e-18)
(0.003 6.92338e-20 1.79562e-18)
(0.003 -8.94173e-20 1.7951e-18)
(0.003 -4.6621e-20 1.80939e-18)
(0.003 2.00998e-19 1.74982e-18)
(0.003 2.79466e-19 1.62713e-18)
(0.003 1.7953e-19 1.50037e-18)
(0.003 2.56807e-20 1.44353e-18)
(0.003 -3.33352e-20 1.31323e-18)
(0.003 1.87254e-19 1.14124e-18)
(0.003 2.61075e-19 1.20379e-18)
(0.003 2.10594e-19 1.21006e-18)
(0.003 1.02911e-19 1.13494e-18)
(0.003 6.75111e-20 9.26281e-19)
(0.003 7.08481e-20 7.62893e-19)
(0.003 2.16154e-19 5.80887e-19)
(0.003 2.59078e-19 5.15694e-19)
(0.003 7.87111e-20 5.09824e-19)
(0.003 1.79725e-19 5.91107e-19)
(0.003 9.7329e-20 7.02523e-19)
(0.003 1.01663e-20 6.98933e-19)
(0.003 -1.19118e-20 6.52406e-19)
(0.003 -1.47603e-19 5.08405e-19)
(0.003 -5.00276e-20 2.71955e-19)
(0.003 1.45549e-20 1.42159e-19)
(0.003 -5.5753e-20 2.29646e-19)
(0.003 -1.12224e-19 1.4639e-19)
(0.003 -1.3975e-19 1.98686e-19)
(0.003 -2.24142e-19 4.23215e-19)
(0.003 -9.6532e-20 3.00027e-19)
(0.003 4.90361e-20 2.01697e-19)
(0.003 -4.69951e-20 1.49513e-19)
(0.003 -2.51402e-20 1.51183e-20)
(0.003 -2.39016e-20 -3.7067e-19)
(0.003 -9.25081e-20 -6.13574e-19)
(0.003 -7.50728e-20 -4.22336e-19)
(0.003 -6.52277e-20 -3.74215e-19)
(0.003 -1.16581e-19 -4.30145e-19)
(0.003 -2.27999e-19 1.08893e-18)
(0.003 -1.87403e-19 1.63523e-18)
(0.003 5.41946e-20 1.81427e-18)
(0.003 2.22036e-20 1.73998e-18)
(0.003 4.21223e-20 1.73572e-18)
(0.003 3.83101e-20 1.79555e-18)
(0.003 1.21855e-19 1.83875e-18)
(0.003 2.30354e-19 1.7154e-18)
(0.003 1.05969e-19 1.54168e-18)
(0.003 -6.82005e-20 1.43083e-18)
(0.003 1.3187e-19 1.2988e-18)
(0.003 2.55665e-19 1.22813e-18)
(0.003 1.6769e-19 1.26763e-18)
(0.003 6.89965e-21 1.19702e-18)
(0.003 3.52226e-20 1.03271e-18)
(0.003 7.24767e-20 9.70782e-19)
(0.003 1.47311e-19 6.98982e-19)
(0.003 3.35285e-19 6.12406e-19)
(0.003 2.21377e-19 6.76783e-19)
(0.003 9.02839e-20 4.75836e-19)
(0.003 2.03401e-19 6.2084e-19)
(0.003 7.81431e-20 7.13075e-19)
(0.003 -1.5507e-19 7.40399e-19)
(0.003 -2.35816e-19 6.6897e-19)
(0.003 -1.63341e-19 4.59932e-19)
(0.003 3.6724e-20 3.092e-19)
(0.003 2.26676e-19 1.51694e-19)
(0.003 8.2237e-20 1.89012e-19)
(0.003 -9.25056e-20 1.66839e-19)
(0.003 -4.26184e-20 1.08261e-19)
(0.003 -1.04575e-19 2.77907e-19)
(0.003 -1.46458e-19 2.84893e-19)
(0.003 -7.61731e-20 1.87213e-19)
(0.003 -5.16405e-20 6.42455e-20)
(0.003 -1.61842e-20 4.7927e-21)
(0.003 -3.88046e-20 -2.9531e-19)
(0.003 -1.02962e-19 -5.33112e-19)
(0.003 -1.1743e-19 -4.33942e-19)
(0.003 -1.20793e-19 -4.51686e-19)
(0.003 -1.8209e-19 -4.75805e-19)
(0.003 -7.40639e-20 1.03851e-18)
(0.003 -2.65913e-19 1.65871e-18)
(0.003 -1.9062e-19 1.86234e-18)
(0.003 -1.29991e-19 1.79163e-18)
(0.003 3.65967e-20 1.80984e-18)
(0.003 6.51222e-20 1.84435e-18)
(0.003 2.22804e-21 1.83331e-18)
(0.003 4.18838e-20 1.73181e-18)
(0.003 2.33741e-20 1.54339e-18)
(0.003 8.25301e-20 1.32341e-18)
(0.003 2.26017e-19 1.34362e-18)
(0.003 1.86382e-19 1.35455e-18)
(0.003 1.51849e-20 1.30762e-18)
(0.003 -2.16251e-20 1.21816e-18)
(0.003 6.45795e-20 1.12618e-18)
(0.003 1.12328e-19 9.51759e-19)
(0.003 1.71842e-19 6.96516e-19)
(0.003 1.3274e-19 6.08696e-19)
(0.003 1.47488e-19 6.21767e-19)
(0.003 2.35737e-19 5.16248e-19)
(0.003 1.07363e-19 6.33824e-19)
(0.003 3.63465e-20 7.98566e-19)
(0.003 -1.3271e-19 7.05681e-19)
(0.003 -3.28532e-19 5.2776e-19)
(0.003 -1.91635e-19 3.26212e-19)
(0.003 -2.43813e-20 3.50669e-19)
(0.003 8.12055e-20 2.61171e-19)
(0.003 9.16155e-20 1.10815e-19)
(0.003 5.87732e-20 1.907e-19)
(0.003 9.56233e-20 1.35974e-19)
(0.003 2.95576e-21 2.1398e-19)
(0.003 -1.62628e-20 1.92874e-19)
(0.003 -8.48666e-20 1.03651e-19)
(0.003 -1.45905e-19 8.47087e-20)
(0.003 -1.59374e-19 -1.05932e-21)
(0.003 -1.19311e-19 -3.26917e-19)
(0.003 -2.58841e-20 -3.93297e-19)
(0.003 -1.36847e-19 -3.40081e-19)
(0.003 -1.92817e-19 -4.39689e-19)
(0.003 -8.07161e-20 -4.65504e-19)
(0.003 -1.47416e-19 9.71655e-19)
(0.003 -1.3907e-19 1.55512e-18)
(0.003 -5.20452e-20 1.80713e-18)
(0.003 -1.54582e-19 1.80827e-18)
(0.003 -1.66127e-19 1.86236e-18)
(0.003 -2.96357e-20 1.85177e-18)
(0.003 -2.39603e-20 1.87807e-18)
(0.003 -2.39691e-20 1.81597e-18)
(0.003 8.11032e-20 1.62705e-18)
(0.003 2.20528e-19 1.39573e-18)
(0.003 1.71152e-19 1.354e-18)
(0.003 1.36577e-19 1.37659e-18)
(0.003 -2.6752e-20 1.30338e-18)
(0.003 -8.33166e-20 1.26332e-18)
(0.003 -2.85537e-20 1.06263e-18)
(0.003 1.24088e-19 8.38318e-19)
(0.003 1.73091e-19 6.40795e-19)
(0.003 -1.641e-20 6.62077e-19)
(0.003 1.18225e-19 7.39081e-19)
(0.003 2.81414e-19 6.46086e-19)
(0.003 1.70221e-19 7.20274e-19)
(0.003 5.90751e-23 6.65431e-19)
(0.003 -1.6466e-19 5.71207e-19)
(0.003 -2.68554e-19 3.92888e-19)
(0.003 -1.96471e-19 2.8705e-19)
(0.003 -6.80368e-20 3.84067e-19)
(0.003 -4.34484e-20 2.60451e-19)
(0.003 1.4672e-20 2.30565e-19)
(0.003 6.77105e-20 2.36939e-19)
(0.003 8.25287e-20 1.55999e-19)
(0.003 7.20067e-20 1.18203e-19)
(0.003 1.08344e-21 1.43502e-19)
(0.003 -1.63815e-19 9.85038e-20)
(0.003 -2.46681e-19 7.04359e-20)
(0.003 -3.18647e-19 4.17613e-20)
(0.003 -1.83404e-19 -1.57628e-19)
(0.003 4.81997e-20 -3.80542e-19)
(0.003 2.25869e-20 -3.2969e-19)
(0.003 -7.36857e-20 -4.46869e-19)
(0.003 -4.83719e-20 -5.64188e-19)
(0.003 -1.86742e-19 9.07851e-19)
(0.003 -2.09322e-19 1.59115e-18)
(0.003 -1.70812e-19 1.90306e-18)
(0.003 -2.61672e-20 1.82478e-18)
(0.003 -9.48065e-21 1.79587e-18)
(0.003 -5.68891e-20 1.84689e-18)
(0.003 -1.64568e-19 1.83913e-18)
(0.003 -2.04766e-19 1.74774e-18)
(0.003 6.05099e-20 1.66376e-18)
(0.003 2.24536e-19 1.53994e-18)
(0.003 1.02782e-19 1.43615e-18)
(0.003 5.44817e-20 1.38598e-18)
(0.003 9.00043e-20 1.25424e-18)
(0.003 -1.2176e-20 1.20902e-18)
(0.003 2.5152e-20 1.10486e-18)
(0.003 4.53138e-20 9.71463e-19)
(0.003 8.76272e-20 7.75615e-19)
(0.003 1.86709e-19 5.71119e-19)
(0.003 2.7801e-19 6.13646e-19)
(0.003 1.94748e-19 6.36537e-19)
(0.003 9.66344e-21 7.72441e-19)
(0.003 -1.78913e-19 7.8813e-19)
(0.003 -1.36053e-19 5.82259e-19)
(0.003 -5.40928e-20 3.9713e-19)
(0.003 -1.09222e-19 2.73772e-19)
(0.003 -1.60389e-19 3.36707e-19)
(0.003 -6.6005e-20 3.91429e-19)
(0.003 -6.36075e-20 3.15083e-19)
(0.003 -5.58348e-21 2.32007e-19)
(0.003 8.3896e-21 1.48603e-19)
(0.003 1.35955e-19 1.13701e-19)
(0.003 -8.85194e-20 5.97796e-20)
(0.003 -1.50299e-19 1.99347e-20)
(0.003 -6.00308e-20 7.80731e-20)
(0.003 -1.15828e-19 6.95729e-20)
(0.003 -1.42286e-19 -3.86568e-20)
(0.003 -1.46987e-19 -2.53056e-19)
(0.003 -3.18128e-20 -2.95204e-19)
(0.003 1.13925e-19 -4.1555e-19)
(0.003 1.35387e-19 -4.67383e-19)
(0.003 -7.42814e-20 8.95817e-19)
(0.003 -1.80727e-19 1.52195e-18)
(0.003 -1.90322e-19 1.75087e-18)
(0.003 4.66064e-20 1.83891e-18)
(0.003 6.17535e-20 1.83398e-18)
(0.003 -1.49049e-19 1.80643e-18)
(0.003 -2.62139e-19 1.82869e-18)
(0.003 -1.22115e-19 1.79359e-18)
(0.003 6.70643e-20 1.718e-18)
(0.003 7.94188e-20 1.60774e-18)
(0.003 4.04778e-21 1.44366e-18)
(0.003 6.57778e-20 1.38837e-18)
(0.003 1.34002e-19 1.31438e-18)
(0.003 1.3582e-19 1.20155e-18)
(0.003 1.48235e-19 1.10122e-18)
(0.003 1.15326e-20 9.8822e-19)
(0.003 -4.0924e-20 8.85049e-19)
(0.003 1.21807e-19 6.97577e-19)
(0.003 2.35944e-19 6.91847e-19)
(0.003 6.26123e-20 6.58756e-19)
(0.003 -1.63154e-19 6.91986e-19)
(0.003 -1.77107e-19 6.67345e-19)
(0.003 -5.4646e-21 6.27264e-19)
(0.003 1.56774e-20 4.71663e-19)
(0.003 4.94922e-21 3.25262e-19)
(0.003 -1.32644e-19 2.85226e-19)
(0.003 -3.45127e-21 3.56162e-19)
(0.003 6.85441e-21 2.72946e-19)
(0.003 -7.35342e-20 1.84034e-19)
(0.003 1.28993e-21 1.14708e-19)
(0.003 2.64214e-20 1.04471e-19)
(0.003 -6.15222e-20 -3.11405e-20)
(0.003 1.49653e-20 -3.56093e-22)
(0.003 6.44785e-20 1.25655e-19)
(0.003 -6.17987e-21 5.45718e-20)
(0.003 -1.16656e-19 3.82714e-20)
(0.003 -1.26719e-19 -2.58371e-20)
(0.003 -1.26325e-19 -1.57849e-19)
(0.003 5.67692e-20 -1.88757e-19)
(0.003 1.45685e-19 -2.50486e-19)
(0.003 9.71055e-20 9.90964e-19)
(0.003 1.37495e-19 1.55917e-18)
(0.003 6.38574e-20 1.70271e-18)
(0.003 -7.2139e-20 1.77422e-18)
(0.003 -1.18648e-19 1.80981e-18)
(0.003 -1.66155e-19 1.76567e-18)
(0.003 -2.31553e-19 1.7371e-18)
(0.003 -2.16668e-19 1.78921e-18)
(0.003 -8.85765e-20 1.77856e-18)
(0.003 9.00172e-20 1.66799e-18)
(0.003 1.97115e-19 1.46193e-18)
(0.003 2.06957e-19 1.44088e-18)
(0.003 1.93791e-19 1.28323e-18)
(0.003 1.31593e-19 1.24537e-18)
(0.003 6.09514e-20 1.2051e-18)
(0.003 -7.91385e-20 1.03755e-18)
(0.003 -1.2054e-19 8.019e-19)
(0.003 -1.88921e-19 5.93188e-19)
(0.003 -1.43034e-19 7.57097e-19)
(0.003 -2.06234e-20 6.41788e-19)
(0.003 -9.76343e-20 6.38639e-19)
(0.003 -1.94949e-20 7.48771e-19)
(0.003 3.45918e-21 7.28649e-19)
(0.003 6.14286e-20 4.65935e-19)
(0.003 1.51894e-19 2.71057e-19)
(0.003 1.35073e-20 2.68205e-19)
(0.003 -2.48881e-21 3.88721e-19)
(0.003 5.09977e-20 2.73653e-19)
(0.003 4.77417e-20 1.09855e-19)
(0.003 -1.52282e-20 6.65952e-20)
(0.003 -1.0389e-19 1.49189e-19)
(0.003 -4.3324e-20 3.01401e-21)
(0.003 7.9733e-20 -1.81001e-20)
(0.003 1.20701e-20 1.15652e-19)
(0.003 5.73853e-20 1.20474e-19)
(0.003 3.77678e-20 4.85713e-20)
(0.003 -1.67513e-20 3.53135e-20)
(0.003 -1.13166e-19 -7.91193e-20)
(0.003 -1.57219e-19 -2.33215e-19)
(0.003 -1.12952e-19 -2.52259e-19)
(0.003 2.76586e-19 9.48913e-19)
(0.003 2.59728e-19 1.50615e-18)
(0.003 1.94711e-20 1.6673e-18)
(0.003 -1.18881e-19 1.71712e-18)
(0.003 -9.01296e-20 1.71352e-18)
(0.003 -3.61741e-21 1.75005e-18)
(0.003 -5.28915e-20 1.77989e-18)
(0.003 -2.735e-19 1.73185e-18)
(0.003 -2.43727e-19 1.69791e-18)
(0.003 -3.25032e-20 1.76527e-18)
(0.003 2.31626e-19 1.69918e-18)
(0.003 1.82161e-19 1.61532e-18)
(0.003 1.46712e-19 1.40886e-18)
(0.003 1.68001e-19 1.2392e-18)
(0.003 -1.03766e-20 1.14545e-18)
(0.003 -1.44197e-19 9.22088e-19)
(0.003 -1.29139e-19 7.71349e-19)
(0.003 -1.67842e-19 6.16807e-19)
(0.003 -2.63181e-19 7.14014e-19)
(0.003 -1.56093e-19 6.64721e-19)
(0.003 -1.30826e-19 6.29608e-19)
(0.003 -1.30061e-19 6.61044e-19)
(0.003 2.62548e-21 7.06498e-19)
(0.003 7.4901e-20 5.83158e-19)
(0.003 1.69923e-19 4.0794e-19)
(0.003 1.71873e-19 2.78657e-19)
(0.003 -4.12133e-20 2.33906e-19)
(0.003 4.53229e-20 2.15082e-19)
(0.003 1.45112e-19 1.20169e-19)
(0.003 6.12468e-20 4.30134e-20)
(0.003 -5.57254e-20 4.04564e-20)
(0.003 -6.96349e-20 -5.25901e-20)
(0.003 -3.10369e-20 3.43608e-20)
(0.003 -3.88512e-20 1.48468e-19)
(0.003 8.23373e-20 1.22108e-19)
(0.003 2.22175e-19 4.88523e-20)
(0.003 7.79997e-20 -4.45604e-20)
(0.003 -8.032e-20 -1.09066e-19)
(0.003 -2.78286e-19 -2.23278e-19)
(0.003 -3.18289e-19 -1.48987e-19)
(0.003 2.41319e-19 9.35246e-19)
(0.003 2.34836e-19 1.49988e-18)
(0.003 -2.09539e-20 1.67663e-18)
(0.003 -1.00373e-20 1.666e-18)
(0.003 7.41366e-20 1.70893e-18)
(0.003 1.25186e-19 1.72959e-18)
(0.003 1.00815e-20 1.73313e-18)
(0.003 -1.7001e-19 1.65217e-18)
(0.003 -1.72069e-19 1.66817e-18)
(0.003 -1.62449e-19 1.84236e-18)
(0.003 -7.05234e-20 1.79062e-18)
(0.003 -3.58653e-21 1.61858e-18)
(0.003 2.01132e-20 1.45037e-18)
(0.003 -1.18735e-19 1.30862e-18)
(0.003 -1.54849e-19 1.13446e-18)
(0.003 -3.40808e-20 9.70425e-19)
(0.003 -1.70592e-19 7.56034e-19)
(0.003 -2.26282e-19 5.95486e-19)
(0.003 -2.99035e-19 6.64076e-19)
(0.003 -1.6301e-19 6.59673e-19)
(0.003 -1.01431e-19 5.81454e-19)
(0.003 -3.24112e-20 6.39511e-19)
(0.003 1.03274e-19 7.39821e-19)
(0.003 8.79618e-20 5.60364e-19)
(0.003 5.86029e-20 3.35076e-19)
(0.003 1.35602e-19 3.10593e-19)
(0.003 3.68665e-20 2.52053e-19)
(0.003 5.61515e-20 2.30848e-19)
(0.003 7.07128e-20 1.68207e-19)
(0.003 2.03111e-20 -4.1294e-20)
(0.003 1.11491e-19 -1.51014e-19)
(0.003 1.53355e-19 -1.15244e-19)
(0.003 -8.35187e-20 -3.03412e-20)
(0.003 -1.9131e-20 7.27719e-20)
(0.003 1.79312e-19 1.8946e-19)
(0.003 1.91556e-19 1.21724e-19)
(0.003 1.61404e-19 -1.81476e-19)
(0.003 1.72998e-20 -1.93372e-19)
(0.003 -6.38222e-20 -1.39367e-19)
(0.003 -8.17526e-20 -6.56888e-20)
(0.003 -1.04344e-19 1.00507e-18)
(0.003 -8.51014e-21 1.60403e-18)
(0.003 8.14061e-20 1.66907e-18)
(0.003 1.9168e-20 1.65095e-18)
(0.003 6.08095e-21 1.68816e-18)
(0.003 7.34055e-20 1.79227e-18)
(0.003 6.28207e-20 1.72347e-18)
(0.003 9.3971e-20 1.56299e-18)
(0.003 -7.34193e-20 1.65572e-18)
(0.003 -1.71219e-19 1.79802e-18)
(0.003 -1.96162e-19 1.73623e-18)
(0.003 -1.98094e-19 1.63372e-18)
(0.003 -1.9373e-19 1.48172e-18)
(0.003 -1.48932e-19 1.18346e-18)
(0.003 -1.23904e-19 9.90599e-19)
(0.003 -1.73848e-19 9.06766e-19)
(0.003 -2.14297e-19 8.31374e-19)
(0.003 -1.80961e-19 6.69449e-19)
(0.003 -2.1887e-19 5.84791e-19)
(0.003 -2.18381e-19 6.64538e-19)
(0.003 -1.48544e-19 5.98208e-19)
(0.003 -6.43132e-21 6.63486e-19)
(0.003 4.81509e-20 7.37428e-19)
(0.003 7.26534e-20 5.61768e-19)
(0.003 1.71189e-19 4.23081e-19)