/*--------------------------------*- C++ -*----------------------------------*\
| =========                 |                                                 |
| \\      /  F ield         | OpenFOAM: The Open Source CFD Toolbox           |
|  \\    /   O peration     | Version:  v2012                                 |
|   \\  /    A nd           | Website:  www.openfoam.com                      |
|    \\/     M anipulation  |                                                 |
\*---------------------------------------------------------------------------*/
FoamFile
{
    version     2.0;
    format      ascii;
    class       surfaceScalarField;
    location    "430/bottomWater";
    object      phi;
}
// * * * * * * * * * * * * * * * * * * * * * * * * * * * * * * * * * * * * * //

dimensions      [1 0 -1 0 0 0 0];
oriented        oriented;


internalField   nonuniform List<scalar> 
3858
(
-0.00010420619
0.00013651879
-2.8579159e-05
-0.0001345542
9.8386046e-05
-6.4825947e-05
-0.00017068518
0.00011748244
-7.7088891e-05
2.7345539e-05
-0.00015942182
-3.6560412e-05
0.00026158867
-0.00022962646
-5.1032858e-06
0.00028596536
1.7064068e-05
-3.9951127e-05
0.00021699382
0.00014837297
-7.6266944e-05
0.00012478803
0.00014306809
-4.7839677e-05
2.1090865e-05
0.00014436761
-3.8312283e-05
-7.0276885e-05
0.00014227512
-4.8642128e-05
-0.00013533818
0.00015676524
-8.9171321e-05
-0.00016231226
0.00012812434
-9.8703279e-05
-0.00015903074
0.00012672771
-0.00012805306
-0.00018630643
0.00014947382
-0.00012111023
-0.00025979458
0.00016976975
-9.5335968e-05
-0.0003104599
8.3891212e-05
-3.2027808e-05
-0.0001875213
-0.00019586147
7.1641772e-05
-1.504752e-05
-0.00028374971
0.00010969932
0.00011630602
-0.00023993996
0.00010664509
0.00014746418
-3.0941479e-05
7.2533135e-07
0.00032335074
-0.00022747246
4.9742496e-05
0.00035662941
-6.9652585e-05
3.6988527e-05
0.00020882619
0.00013364043
1.6101632e-05
8.3645804e-06
0.00015721349
4.2358113e-05
-0.0001375087
0.00010788711
3.8433115e-05
-2.4878149e-05
-0.00018756227
7.2759022e-05
9.9122706e-05
-0.00017818114
5.3133043e-05
0.00023178159
-0.00015626692
1.8987655e-05
0.00015683034
7.2234137e-05
5.5373071e-08
0.00013198247
2.1281542e-05
-0.00020646778
0.00047533237
-0.0001323458
-0.00029463085
0.00032092851
-0.0001343794
-0.00011022374
9.6415615e-05
-0.00016334028
0.00023930655
-0.00042581432
-8.313779e-05
0.00058182032
-0.00054227919
-2.9861049e-05
0.0006893004
-1.3862476e-05
-7.655355e-05
0.00050379165
0.00047556234
-0.00014168062
0.00033479966
0.00038418625
-7.2126184e-05
0.00016208754
0.00042781336
-0.00011073365
-6.7993983e-05
0.0004864996
-0.00011414297
-0.00024666181
0.00058046358
-0.00024503052
-6.6240859e-05
0.00010619091
-0.00015848752
0.00014401333
2.5074373e-05
-0.00010860086
-8.8230762e-05
0.00053841698
-0.00015669906
-0.00039622439
0.00060936897
-0.00013160559
-0.00032804799
-1.4721697e-05
3.0436509e-05
-0.0001781691
-0.00051799105
0.00017225069
-6.4982344e-05
-0.00060014308
0.00020320662
0.00010392503
-0.00052178198
0.00011293465
0.00017173138
-0.00013608512
3.7337295e-05
0.00042781591
-0.00054035249
5.6795507e-05
0.00053641956
-0.00026627842
8.8022166e-05
0.00028373679
0.000324925
6.1398193e-05
-0.0001918853
0.00059616097
3.6674616e-05
-0.00020123589
5.2975179e-05
6.4262529e-05
8.1456671e-05
-0.00052058808
5.0333264e-05
0.00027365625
-0.00044813307
7.775235e-05
0.00053861209
-0.0004199186
-1.3041652e-06
0.00046901829
0.0002230015
-8.1173582e-05
0.00065129484
-5.0294086e-05
8.8245495e-05
0.00037454163
1.2545257e-05
0.00037207859
4.5438756e-05
-8.3433475e-06
0.00054491796
-1.2461063e-05
-6.3962698e-05
0.00028178438
-6.4352051e-05
-9.832869e-05
-0.0001435424
-9.6380627e-05
-2.0571795e-05
-6.8233667e-05
-6.507168e-05
-2.4099551e-05
0.00010756699
0.00038319046
-8.3428807e-05
0.00013011525
0.00031269858
4.8939375e-05
0.00011845511
0.00034311011
9.6363374e-05
7.4357493e-05
0.00045750468
7.309252e-05
4.9929794e-05
0.00054520096
5.9690305e-05
7.4398606e-05
-9.442834e-06
9.1164928e-05
8.5536792e-05
-9.3450489e-05
0.00010738667
8.2834905e-05
0.00043605762
0.00010506124
0.00011291316
0.00053367251
4.5618192e-05
0.00021232085
-3.744463e-05
-7.6684748e-05
2.7205258e-05
-0.00032625384
-6.6216138e-06
-6.2182659e-05
-0.00049113013
-1.9625024e-05
1.6243178e-05
-0.00053588518
-6.4322626e-05
0.00019845037
-0.00027087164
-4.7420664e-05
-9.4031784e-05
-0.00011020314
-0.00013766721
-0.00010070232
-0.00012378672
-0.00013582118
6.6969199e-05
0.00023432534
-7.7071856e-05
0.00014518891
0.00050744966
1.0491617e-05
0.00029080757
-1.9173973e-05
-7.3469491e-05
0.00024904436
-0.00042951616
-4.9308693e-05
0.00018274167
-0.00034750715
-3.4323237e-05
-7.4618638e-05
-0.00012783505
-3.4723268e-05
-1.0572454e-05
0.00011355051
4.5404783e-05
0.00062905584
1.166653e-05
0.00017226568
-5.7891295e-05
0.00026016724
0.00039302949
-0.0002761366
0.00010081154
0.00036275485
-7.8882982e-06
2.5701876e-05
0.00013075698
0.00018453588
-1.6890073e-05
-9.1082961e-05
7.9429998e-05
4.60293e-05
-0.00022569065
0.00012003813
-5.0502151e-05
-2.8762889e-05
0.00017925792
7.0047511e-06
3.3269311e-05
0.00017261629
7.8050064e-05
6.6743005e-05
0.00012308499
0.0001865514
0.00017853006
0.00022814464
0.00011757297
0.0004574436
0.00017953969
8.6747714e-05
0.00022552892
0.00022290075
-4.2891408e-07
-0.00012749728
0.00034930877
-8.9733058e-05
1.7703125e-05
0.00016877765
0.00012207957
0.00026070748
0.00017494366
0.0001157245
4.94725e-05
0.00022197526
-4.8184902e-05
-5.0853025e-05
-0.00022564161
-2.8668597e-07
-6.7578334e-05
-0.00046261498
-1.178982e-05
-3.3739787e-05
-0.00052343749
-4.6286236e-05
1.2698643e-05
-0.00020816073
-0.00010914933
-0.00015948183
0.00011177491
-4.9797593e-05
-0.0001960254
5.8050165e-05
-0.00014529333
1.1963921e-05
8.1165537e-05
-5.4829505e-05
0.00026013209
0.00019365106
6.5630446e-05
0.00016157749
7.1106073e-05
8.2745871e-06
0.00013282682
-0.00044593046
4.5164986e-05
2.3962531e-05
-0.00030106149
6.2418628e-05
-0.00018577304
0.00014019415
-5.8293648e-05
-0.00023989055
0.0001298129
3.7855072e-05
0.00035655801
3.2607264e-05
5.6066625e-05
-0.00011395792
-0.00011661878
-0.0001034512
-0.00020638875
8.1881664e-05
-0.0001618925
0.00014003963
-0.00023048196
0.00014801945
-0.00022012296
0.00010967911
-0.00011255589
7.1690833e-05
7.6967074e-06
5.2363668e-05
5.588504e-05
7.4896642e-05
0.00012253388
0.00016149578
0.00010170916
0.0002003644
6.2876299e-05
0.00026173361
0.00017042118
0.00024176389
0.00021945432
0.0001197445
0.00026073303
0.00013366495
0.00039211658
9.0591717e-05
0.00028666722
-0.00012019224
-1.1689951e-05
-0.00016425781
-0.00036922627
-0.00016590116
-0.0004636725
-0.00011371451
-0.00027743546
-7.446214e-05
-0.00014315142
-7.6233877e-05
9.0641623e-06
-7.1050044e-05
0.00021950866
-1.6793416e-05
0.00036386376
-7.3249022e-05
-2.3722391e-05
-5.83443e-05
-0.00038384911
5.9065206e-05
-0.00031659848
7.2943497e-05
-0.0002489358
6.2150199e-05
0.0001076222
-0.00018053244
0.00012530931
3.0364171e-05
-9.0501492e-05
-0.00021331993
6.0018738e-05
-3.0885832e-05
-0.00016750335
3.1919689e-05
7.3718771e-05
-0.00014125188
6.0182442e-07
0.00020679415
-0.00011814944
-2.0346272e-05
0.00020622442
5.7898916e-05
-9.582007e-05
0.00013369758
0.00014306825
-0.00014382099
0.00013309889
3.5664065e-05
-7.9637822e-05
8.6026647e-05
0.00012304852
-0.00011074045
-1.5725403e-05
0.0001798837
-0.00012281784
-0.00010445426
0.00014285385
-0.00013839808
-0.00015118317
7.4746184e-05
-0.00012075974
-3.5634051e-05
-0.00012398236
-0.0001180858
-8.4945321e-06
-1.219215e-05
-0.00013531513
-9.0468702e-05
0.00011545439
-0.00012793467
-0.00016299246
0.00015392555
-0.00011382693
-0.0001739566
0.00010422232
-2.250969e-05
-9.6362244e-05
-2.22764e-05
5.3154295e-05
1.6073256e-05
-0.0001285051
0.00012123475
0.00014975717
-7.8230764e-05
-5.5734229e-05
0.00028636256
-8.8146657e-05
-7.1842203e-07
0.00022904016
0.00013149552
-3.7013322e-05
9.2856942e-05
0.0001577572
-6.3846068e-06
-4.7350835e-05
0.00015651912
2.4075108e-05
-0.00010635567
0.00010931679
-1.3873761e-05
-0.00016037284
0.00015294884
-2.7200846e-05
-0.00015329189
0.00011716284
-7.026906e-05
0.00010461108
-0.00022885261
-1.5074427e-05
0.00011633445
2.6293916e-05
-4.1047363e-05
0.0001509081
-1.6938753e-05
-0.00010472353
2.821413e-05
6.9472919e-05
-1.3345662e-05
-0.00053604648
9.6969271e-05
7.1271308e-05
-0.00042146805
6.007448e-06
0.00027193483
-0.00035616014
-6.8893048e-05
0.00053598661
-0.00030692082
-0.00010514145
0.0004507164
0.000270083
-0.00020346744
0.00012877334
0.00056866118
-0.00024533051
0.00016392662
-2.5474297e-05
-4.6141115e-05
0.00023799992
3.1676216e-05
-9.3434656e-05
2.5911e-06
0.00044737524
-0.00014622569
-9.0067661e-05
0.00011540974
-0.00012492766
5.9608094e-06
-7.8910218e-05
-0.00010085959
0.00021978723
-0.00040673746
-3.9672182e-05
0.0002860472
-0.00012677088
-0.00010838031
0.00024330431
0.00015019591
-0.00012360422
-7.7194447e-05
0.0005847415
-7.9880682e-05
-0.00025650351
0.00034793116
0.00010785092
-0.00016911153
-0.00014525145
0.0002387897
3.9656013e-05
-0.00038947345
0.00016513546
0.00026582386
-0.00028372195
1.6660648e-05
0.00054019012
-0.00031671203
1.0994621e-05
0.00050222059
0.00027390366
-1.6416439e-05
0.00019474166
0.00052764995
-1.0156317e-06
-0.00016434729
0.0005982188
-4.5936114e-05
-0.0001609875
0.00023199893
-6.1779398e-05
-0.00025097446
0.0003983105
-0.00010504142
-0.00010551701
9.0114527e-05
-4.0656791e-05
0.00031108535
-0.00059267472
-5.4084417e-05
0.00038550987
-2.963802e-05
-9.9666181e-05
0.000581725
-9.5601119e-05
0.00019517375
-8.6631745e-05
-6.778262e-05
0.00011353257
-0.00032848252
-0.00013426614
0.00025133003
-0.00049668538
-0.00012654284
4.5082136e-05
-8.1794815e-05
-0.00016644612
-9.417835e-05
-0.00010307151
-8.5160622e-05
3.0731351e-05
0.00015078846
-2.9714724e-05
3.4938366e-05
0.00051347891
-3.2453577e-05
6.0837996e-05
-4.8691463e-05
4.6256887e-05
0.0001166162
-5.535883e-05
0.0001276202
0.00012149711
0.00034103124
0.00017455559
0.00012094362
-4.0667296e-05
0.00021632082
0.00024752458
-0.00029728263
0.00018295638
0.0001025743
-0.00021194386
5.7543352e-05
2.3972445e-05
-7.6149459e-05
0.00013304167
5.2204252e-05
3.1929739e-06
0.00016438932
0.00014704341
0.00023999786
0.00017321975
0.00024097897
0.00019244095
5.493304e-05
0.00012415172
-8.4797773e-05
3.6748555e-05
8.1398792e-05
-0.00042279003
1.1746893e-05
5.6894751e-05
-0.00026910318
-3.753539e-05
-6.5931027e-05
-0.00013023215
-0.00020132132
5.6630742e-05
0.00015670654
-0.00014118583
2.0876822e-05
0.00049903181
-1.2699804e-05
-1.2828771e-05
0.00046822926
0.00017418675
5.5987342e-05
8.6138466e-05
3.5748715e-06
0.0001297541
0.00026220989
1.3025163e-05
0.00031359726
-0.00022473151
9.6679642e-05
-0.00012589282
-0.00019982395
1.1916026e-05
-0.00013558957
-7.290385e-05
9.8367336e-05
0.00048055598
-2.2754039e-05
-0.00012409074
0.00019911904
9.8507192e-05
-8.0608514e-05
-0.00026049626
-1.0656955e-05
-2.0497739e-05
-0.00054398612
1.2891845e-05
-0.00013161414
2.6674839e-05
-1.4243324e-05
-0.00020284637
2.3623616e-05
-9.4336043e-06
-5.4450639e-05
-4.977789e-06
-4.3131653e-05
0.000277759
0.00015965004
2.8623958e-05
0.00016377786
0.00023174447
-8.8404755e-05
-4.6184381e-05
0.00031581066
2.5344126e-05
0.00022824109
5.5474322e-05
0.0001287044
0.00027227012
-9.6163873e-05
9.8215243e-05
0.00023834891
-0.0003164818
5.2691462e-05
4.3111561e-05
-2.7348339e-05
-7.9091229e-05
-0.00030607946
0.00038461301
1.050812e-05
-0.00024178047
3.8390874e-05
1.6227611e-05
0.00018230095
-0.00033126766
9.8999195e-05
0.00033992964
7.2689366e-07
3.3798694e-05
9.6266176e-05
0.00015410726
-7.0313841e-06
1.9283051e-05
-0.00040594618
1.3853056e-05
-5.1476568e-05
-0.00017956016
-0.00012793272
-0.00023361667
0.00014503947
-0.00014292911
-0.00011827501
9.791779e-05
-0.00020184625
6.5889374e-05
0.00028429035
-2.4252439e-05
0.00018597752
0.0002332572
0.00018051435
-2.4436802e-05
0.00035700311
-5.2175724e-05
2.5084281e-05
0.0001002481
0.0001576057
0.0001608557
-0.00034452747
4.6443159e-05
-4.3731479e-05
-2.1172692e-05
-3.2357743e-05
-0.00028176463
0.00029276024
-8.9775899e-05
0.00023583757
-4.4389655e-06
0.00024651387
-0.00016135275
0.00010254282
-0.00021997641
-0.00025195302
-0.00010760863
-0.00026963058
0.00018439203
-0.00028719642
0.0001892089
-0.00031801398
0.00013551887
-0.00018927451
0.00010260139
3.8894131e-05
5.5939476e-05
0.0002822647
0.00014733671
0.00034184513
0.00015738967
0.00022291492
0.00022313073
-9.2948353e-05
0.00026111508
-0.00015997185
0.00028143904
0.00016302069
0.00018136497
0.0002756817
5.9394814e-05
2.5491418e-05
9.5143497e-06
3.7795346e-05
-0.00013176926
0.00016484199
-0.00013719718
-0.00020652065
-0.00020048469
-0.00041553079
-8.4264533e-05
-0.00028796144
-5.6992023e-05
-0.00020684751
-5.9430017e-05
-1.6728234e-05
2.3121023e-05
0.0001165364
8.319916e-05
0.00031140893
8.8881552e-05
0.0002311186
0.00012219414
-0.00021382669
0.00015948301
-0.00035626089
0.00019420499
-0.00015632624
0.00015497577
0.00018713353
-0.00010540547
0.00010162289
3.7768941e-05
-0.00021169621
8.8951145e-05
8.1140438e-05
-0.00028827373
5.2877601e-05
6.1233553e-05
-0.00013052899
-0.00019892148
4.4403019e-05
5.9886839e-05
-0.0002176292
8.0160022e-06
0.00018106797
-0.00013752542
-7.9533918e-05
0.00014388845
6.7448755e-05
-0.00017193879
1.9378118e-05
0.00013505598
-8.814213e-05
-0.00014498317
0.00012513276
-6.9487287e-05
-0.00024747299
7.4950059e-05
-9.1182805e-05
-0.00012894825
-0.00024344241
-1.2222867e-05
4.1232914e-05
-0.00038347639
9.1429839e-05
0.00013088659
-0.00030454856
9.465174e-05
0.00018306993
-0.0002221116
3.225186e-05
0.0002576737
-0.0002089659
2.9731056e-06
0.00019816473
2.5176151e-05
-8.2162819e-05
8.7961459e-05
0.0001300003
-4.477682e-05
8.8115709e-06
0.0001051203
2.3226976e-05
2.8563243e-08
0.00010645732
2.2366833e-05
0.00016387678
-0.00017797256
-4.4783372e-05
0.00019486244
8.3503162e-05
-0.00011396022
0.00011006334
0.00016044079
-0.0001119635
-3.8303963e-05
0.00016142435
-1.8368138e-05
-0.00015877033
0.00014204347
3.899235e-06
-0.00025267267
0.00013086562
-4.9116717e-05
-0.00027214462
7.6132286e-05
-8.2571596e-05
-0.00013758676
-0.00013962859
-6.5522151e-05
7.6063832e-05
-0.00024218666
1.0694459e-05
0.00014411173
-0.0001269666
1.4715204e-05
0.00012147207
2.9776379e-06
-0.00012696773
7.8735001e-05
0.00021932854
-0.00020297656
5.1195998e-05
0.00021073324
-0.00019245662
-3.4899028e-05
8.3264146e-05
4.929007e-05
-0.00049761938
-1.1941836e-05
0.0002589983
-0.0004843048
-4.8174082e-05
0.00044571721
-0.00036375308
-0.00016395869
0.00038426741
0.00016959035
-0.00028602232
-2.6676421e-05
0.00064841147
-0.00014855279
-0.00027678105
0.00034170175
-5.9899037e-05
-0.00020604929
-3.7356927e-05
-0.00010465047
-1.9787731e-05
-0.00059355037
3.8918739e-05
0.00012164462
-0.00075512963
0.00012936129
0.00023467028
-0.00062009912
0.00016285271
0.00030287235
-0.00049902438
0.0001003304
0.00052200945
-0.00054241489
-9.2923221e-06
0.00054428285
2.4051466e-05
-0.0001010294
0.00018018988
0.00070116594
-9.9221741e-05
-0.00023106178
0.00070003407
5.5127579e-05
-0.00014937327
0.00016694674
2.2957538e-05
0.0002460284
-0.00053408028
-2.2633293e-05
0.00045107138
4.5709519e-06
-0.00011511613
0.00013087389
0.00062401809
-0.00015979625
-0.00014459573
0.00044513004
-9.2517174e-06
-0.00012340977
5.7005088e-05
1.7916298e-05
-0.00032213521
0.00036308589
-9.5274241e-05
-0.00032794698
0.00011749111
-0.00014058846
-6.7671585e-05
-0.00040044066
-4.0120112e-05
0.00016029308
-0.00053144472
7.2089748e-06
0.00028679452
-0.00040133062
4.8196393e-05
0.00028704586
2.5619601e-05
3.4172542e-05
1.169946e-06
-2.4390104e-05
4.1390399e-05
-5.2492945e-05
-3.7795056e-05
0.00024653491
-0.0003609884
-5.597974e-06
0.00021117795
-0.00049519429
-0.00013351424
-3.261479e-05
-0.00018953364
-0.00013613904
-0.00023633224
-9.7183439e-05
-9.2566923e-05
-0.0001376345
7.5018873e-05
-3.6579859e-05
3.2312141e-05
0.00060625304
-8.1531341e-05
0.00021421952
0.00020314002
8.4274533e-05
0.00026017392
-8.7207377e-05
0.00017845164
0.00017968345
-0.00041289619
0.00011615711
0.00015276712
-0.00059099743
4.5740506e-05
0.00015157049
-0.0005250156
-3.6343525e-05
0.00016301382
-0.00033311083
-4.4315212e-05
-0.00010029299
-0.0001506435
3.5924742e-05
-1.2322632e-05
-5.644768e-05
0.00016574853
9.1797019e-05
0.00064168348
1.0295854e-05
0.00012408753
0.00062887901
7.5613118e-05
0.00016318173
6.3685096e-05
7.5914355e-05
-0.00012442711
-0.00029115429
7.1474713e-06
-7.6643195e-05
-0.0001172207
-0.00012731357
9.4850739e-06
0.00052082367
-0.00012411969
-1.0473296e-05
0.00037973177
7.2656826e-05
3.1781403e-05
-4.2745621e-05
0.00023168275
3.3168043e-05
0.00024693716
0.00011833696
9.607563e-05
1.6196672e-05
5.1412014e-05
0.00013313947
-0.00044695706
0.0001061322
-8.2704313e-05
-0.00030345179
-2.3311674e-07
-0.00019813299
-0.00011380795
-7.3726665e-05
9.1365858e-05
-2.5207037e-05
-0.00015104571
0.00039266957
-0.00014194672
-0.0002221724
0.00016306718
-0.00015509039
-0.00023479001
-0.00036150676
2.6027814e-05
-0.00018873581
-0.00058667115
3.1179341e-05
-0.000190824
-0.00018095679
-1.5922267e-05
-0.00029422185
1.6924057e-05
-5.3841311e-05
-0.00026749052
6.716729e-05
9.7441975e-06
4.4158362e-05
0.00027777613
-7.157675e-05
0.00016015622
0.00013639374
-2.3907468e-05
0.00010991526
-1.2633702e-05
0.00010437167
0.00016706864
-0.00041531706
4.348272e-05
0.00017525865
-0.00057045571
2.3959725e-05
8.9517833e-05
-0.00048241933
-3.5946684e-05
0.00010959425
-0.000260491
-8.2188124e-05
2.8327095e-06
2.4179014e-05
-5.1833371e-05
-0.00015471798
0.00017284362
2.7258584e-05
3.3342421e-05
0.00035049805
0.00013692373
0.00024888646
0.00037546936
3.0834231e-05
0.00019541678
7.2991558e-05
5.8016291e-05
5.1550262e-06
-0.00022290845
-5.916781e-06
-0.00017750975
9.9579045e-05
-0.00017706407
5.0601593e-05
0.00019216562
-0.00010129955
0.00018282538
0.00019298712
3.0268407e-05
2.3718411e-05
0.00026904263
2.7833058e-05
-2.9766923e-05
0.00018546009
6.278667e-05
-3.5174849e-05
9.0200548e-05
8.9009751e-05
-4.3382773e-05
-0.00044094382
4.8637837e-05
-0.00011115856
-0.0002615373
-6.4964565e-06
-0.00023568312
8.1283308e-05
-0.00016034262
-6.5776546e-05
-8.2979693e-05
0.00030178056
-7.0463737e-05
0.00038664784
-0.00014177651
8.4953697e-05
-0.00016742125
-0.00034630397
2.8978553e-05
-0.00046132839
0.00012327653
-0.00038084026
7.195479e-05
-0.00024985491
3.8783315e-05
7.3447886e-05
1.0412797e-05
0.00033906237
1.8115958e-05
0.00049431665
-1.0498319e-05
0.00032960776
-2.747745e-05
9.6355462e-06
1.0631584e-05
-0.00027311465
8.17699e-05
-0.00042207672
6.9836042e-05
-0.00035764404
1.9141154e-05
-0.00017474467
-5.4139713e-07
1.9780298e-05
2.4203821e-05
0.00025218742
5.8650593e-06
0.00014653212
-2.1837818e-05
-0.00020830759
4.7666732e-05
-0.00022176322
5.6042651e-05
-0.00011774338
2.8715762e-05
1.1800894e-05
8.6563854e-05
0.00021394529
0.00015009738
0.00031909438
0.00016919254
0.00031330944
0.00021817963
-0.00011088567
0.00014273429
-0.00029278899
0.000114571
-0.00010418055
4.7650627e-05
1.7176427e-05
-0.00013963398
0.00016538454
1.5444829e-05
-0.00026489881
0.00014562277
6.474646e-05
-0.00031446165
4.2983259e-05
7.1808686e-05
-0.00025263929
-0.00010658402
9.2065913e-05
-0.00010715457
-0.00021231712
7.6445515e-05
3.2536364e-05
-0.00020721009
-1.1023078e-05
9.1841045e-05
-0.00012513057
-0.00010625734
-8.7597215e-05
7.8510198e-05
1.3381597e-05
-0.0002322131
2.2158752e-05
5.4476826e-05
-7.8613253e-05
-0.00032333006
7.7331493e-05
9.3306235e-05
-0.00027508707
9.0398949e-05
0.00013298161
-0.00013355991
0.00018558959
-7.7663878e-06
2.6943475e-05
0.00020867943
-8.3863795e-05
0.00010706336
1.3573252e-05
-9.4205395e-05
0.00017520671
-0.00024796771
0.00010311455
2.5638069e-05
-6.8001465e-05
0.00014117205
5.0840952e-05
-0.00014326653
8.6017509e-05
1.0385532e-05
4.9339681e-05
-0.00025316318
1.232107e-05
9.3261039e-05
-3.8503784e-05
-0.00012057356
-5.0562944e-05
8.9287689e-05
-6.0028585e-05
-0.00022574273
0.00012523653
3.0137985e-05
-0.0002488628
-6.4932892e-05
8.9134247e-05
-0.00021630405
-0.00015770428
7.4078967e-05
-0.0001512644
-0.00016452748
1.4636368e-05
6.1336313e-05
-0.00035976274
7.7771578e-05
0.00025958332
-0.00031038561
0.00011843057
0.0002092982
-4.4436531e-05
0.00010632048
0.00012506745
8.3400183e-05
-0.00025823392
0.00053688579
0.00010606122
-0.00041501643
0.00038693079
0.00012620774
-0.00029125217
-0.0001026578
0.00010514094
-0.00015756698
-0.00035156478
9.9353743e-05
2.8382794e-05
-0.00052915945
8.2718467e-05
0.00021889878
-0.0004749585
-8.6726262e-05
0.00030034819
-0.00030655829
-0.00018604401
-0.00018868022
0.00052826744
-0.00010928162
-0.00037012204
6.3207873e-05
8.0493658e-05
-0.00012799982
-0.00070080584
3.0703093e-05
7.8917113e-05
-0.00053120128
8.8116013e-05
0.00025388187
-0.00036811236
0.00018894899
-3.6931195e-06
0.0002112531
0.00023611809
-4.8048798e-05
0.00025174944
0.00016221223
-0.00031375874
0.00043207765
-0.00061886253
0.00039757911
-3.9085129e-05
-0.00017266471
0.00076701802
-4.7456998e-07
-0.00022172805
0.0001426964
1.5341988e-05
0.00014813007
-0.00064125819
-4.3963856e-06
0.00031274025
-0.00014331701
-0.00017491307
-6.4863494e-05
0.00049304902
-0.00018595384
-0.00038496576
0.0004755709
-3.9483834e-05
-0.0002838483
-0.00028434578
0.00013621172
-0.00019859475
-0.00043567361
9.7441522e-05
-0.00010158542
-0.00038106224
-2.1063027e-05
0.00011846548
-0.00069073784
7.0804083e-05
0.0003671148
-0.00064528384
9.3457879e-05
0.00041530515
-0.00017909491
0.00013466441
0.00047389459
9.2097601e-05
-5.8047511e-05
0.00051066249
5.9880719e-05
-6.99185e-05
0.0002828587
7.8148017e-05
-2.9331908e-05
-0.00014789302
-9.4933736e-07
4.1105704e-05
-0.00042879119
-0.00012672544
6.770433e-05
-0.000535243
-0.00015665411
-2.8395085e-05
-0.00031250828
-0.00015891774
-9.4082117e-05
-0.00013547882
-0.00014197231
0.00014846275
0.00038128816
-0.00017709694
0.00023733353
1.3261221e-05
4.5350393e-05
-9.2131988e-05
-0.000100557
-9.2331694e-05
-0.00025056066
-0.0003011891
4.4573611e-05
-0.00014305844
-0.00046470958
3.4835504e-05
0.00016307273
-0.00020943543
7.8213826e-05
0.00044921534
-7.8708378e-05
0.00025143102
-8.0049685e-05
-0.00010143036
-0.00010025261
-5.1112116e-05
-7.9107523e-05
6.6441204e-05
0.00069936954
2.5708284e-05
6.9021393e-05
7.0604784e-05
0.00014542579
-0.00014159769
-0.00047842497
5.4933361e-05
-0.00010143836
-0.00026206684
-4.8723067e-05
-7.4838622e-05
0.00036350655
-2.1176954e-05
8.5369115e-05
0.00038454675
3.4732272e-06
0.00011475865
-0.00012731124
4.5258642e-05
-4.7099694e-05
-0.00013629027
-1.9188046e-05
7.8432876e-08
-0.00036925617
-7.5721871e-06
-1.5109465e-05
-0.00057626657
6.848826e-06
-0.00015147444
-0.00045494725
-5.420474e-05
-0.0001373062
-0.00011848934
-0.0001485005
0.00032280734
-1.1425997e-05
0.0001355735
0.00024405206
-1.0909789e-05
0.00010776086
0.0001736321
-1.8051143e-05
-0.0001890985
0.00014005282
3.4941343e-05
-0.00021372662
-0.00038015295
7.169223e-06
-0.00017569304
-0.00056577114
-2.3427713e-05
-0.00015229519
-0.00032764542
-6.2102025e-05
-0.00013338126
-0.00012857036
-1.6078204e-05
0.00016939091
1.4902394e-05
-7.9631672e-06
5.3420966e-05
0.00017252093
-6.7197243e-05
-1.6131782e-05
3.2745328e-05
4.0622089e-05
-1.3881299e-05
-0.0003020185
4.2061633e-05
-4.3506327e-05
-0.00045029524
3.917041e-05
0.00013584827
-0.00040168937
-2.3047345e-05
0.00024631418
-0.00027136241
0.00013157694
-1.7145813e-05
-7.6782907e-05
0.00013536582
-0.00016352187
0.00014455517
0.00010605335
0.00040273141
5.7897142e-05
3.3336776e-05
0.00017473771
2.6599959e-05
-7.2731201e-05
-0.00041580538
3.7531629e-05
-0.0001672496
-0.00020969756
-0.00013491493
-4.2170644e-05
0.00016014522
-2.3017177e-05
0.00018410061
0.0001913527
-2.8088158e-06
3.0395982e-05
0.0001796608
-0.00012543438
-8.8850177e-05
3.8413925e-05
7.3286232e-06
-5.274149e-06
-0.00034454646
-1.9276003e-05
-2.0696934e-05
-0.00053959241
2.7386451e-05
-0.00010621401
-0.0004405269
6.4600256e-05
-0.0002390676
-5.9067476e-05
-8.6910914e-05
-1.5787984e-05
1.6548024e-05
0.00016864683
4.9414907e-06
0.00025098638
-5.048395e-05
0.00029766529
-7.4047336e-05
1.2556549e-05
-6.606565e-05
-0.00035101635
-7.8921707e-05
-0.00041915112
-0.00018755586
-0.0003279479
-0.00018099028
-0.00016534771
-0.000137285
0.0001678188
-0.00014252964
0.00036441664
-0.00017435083
0.00026913749
-0.00023421681
3.4754512e-05
-0.00020528068
-0.0001995412
-8.5623758e-05
-0.00040106756
-0.00039907222
-0.0002642478
-9.5488818e-05
0.00019496586
0.0001181418
0.00025779486
9.0070892e-05
-0.00013364914
2.3305366e-05
-0.00028896981
1.6657661e-06
-0.00015936583
5.9257005e-05
6.9454486e-05
4.9096225e-05
0.00033948749
5.9725174e-05
0.00045314832
9.3945628e-05
0.00029232636
3.4455119e-05
-4.7738733e-05
-5.679303e-05
-0.00028207708
-9.1617563e-05
-0.0001626262
-0.00013086774
-0.00016123777
-6.6638705e-05
0.00012728086
-4.24472e-05
-0.00015844228
0.0001441863
1.5512431e-05
-0.00022502389
0.0001116061
3.0795978e-05
-0.00026977306
0.00012053972
2.1066781e-05
-0.00024097399
4.0638915e-05
1.1915325e-05
-5.4803386e-05
-0.00019780264
2.309023e-06
0.00011148789
-0.0002168287
-5.5179115e-05
7.7951766e-06
2.1145478e-05
9.7132732e-05
-0.00016558965
0.00012460541
0.00010504381
-0.00011492653
-0.00011914696
0.00014781466
0.00011477885
-0.00028893745
0.00015089876
7.8994434e-05
0.00012907347
9.7243197e-05
0.00012647115
0.00016381489
-0.00018136023
0.0001273415
0.00010301383
-0.00020964863
-7.1166055e-05
0.00010795695
-1.9171661e-05
-0.0002535537
7.3267918e-05
0.00014408272
-0.00027144195
-1.4348066e-05
0.00014673547
-0.00010310291
3.8526705e-05
-1.4794917e-05
8.9541878e-05
0.00010029958
-0.00021072709
0.000133754
0.0001503147
-0.00025635455
-1.8069092e-05
0.00013790156
-6.2433629e-05
-0.00029060244
0.00010867448
0.0001446196
-0.00027113895
0.00013879793
0.00020328299
-0.00011167454
0.00016892932
0.00010939971
0.00012216684
7.5704335e-05
0.00014592859
4.335609e-05
-0.00024374586
0.00055121829
-7.4130346e-05
-0.00042572056
0.00054036692
-8.7998165e-05
-0.00027112389
1.0412392e-05
5.1737989e-05
-0.00019813793
3.8738459e-05
0.00010816904
-8.2218783e-05
-0.0001025623
0.00011000053
0.00010209293
-0.00051884554
5.0004917e-05
0.00039631039
-0.00054668476
-0.00015040541
0.00017096704
0.00020741716
-7.0209964e-05
-0.00028432913
0.00055316053
0.00010723471
-0.00020466835
-0.00033082611
0.00016272145
0.00013330373
-0.00066346737
0.00012467386
0.00027391817
9.9611033e-05
7.7796995e-05
0.00048741946
0.00014908795
-0.00037827625
0.00040906999
9.607318e-05
-0.00029466287
-0.00028107267
0.00014163523
-1.3560976e-05
-0.00056760748
2.8555508e-05
0.00021543025
-0.00060978445
-6.5561773e-05
0.00033153088
-0.00033201183
-7.3145554e-05
5.5858744e-05
0.00035152862
-2.5798446e-05
-0.00031666588
0.00048384639
0.00015864395
-0.00026560379
-0.00014296864
0.00017127898
6.9952075e-06
-0.00066286376
7.859928e-05
0.00025295512
-0.00059776264
0.00015146785
0.00041947305
-0.00035269043
0.00016795585
0.00032583819
0.00025260658
9.7859519e-05
0.00059500435
-3.1139987e-05
-4.5221303e-05
0.00056986619
8.6454134e-05
-4.8287909e-05
0.00046337952
0.00015820203
1.2882945e-05
-8.137362e-05
2.9665827e-05
9.9728676e-05
-0.00015385194
-2.0980775e-05
0.00031117578
-0.00046243462
-8.228896e-06
0.00012361523
-0.00027461525
-0.00021558748
-0.00017631429
-9.608394e-05
-0.00029264362
-5.7367972e-05
0.00011658164
-0.00020520774
0.00011755996
0.00046761115
-4.4028168e-05
-7.1392204e-05
-3.8608459e-05
-0.00019559719
-0.00045094787
-0.00011206277
-0.00012727532
-0.00030502478
-2.7659723e-05
1.6183174e-05
0.00016133981
9.9268697e-05
7.1327627e-05
0.00028268416
8.0766481e-05
8.7271818e-05
-0.00017315733
2.1566262e-05
6.9651835e-06
-0.00041333683
-1.9030638e-05
-0.00010739302
-0.0005111216
-3.3027704e-05
-0.0001002622
-0.00033990176
-2.0417826e-05
3.1776227e-05
0.00021102328
1.1940126e-05
0.00011745942
0.00038858201
5.4839814e-05
0.00016661423
-0.00021142974
1.1823279e-07
5.4599405e-05
-0.00049411445
-6.4306681e-05
-4.8558786e-05
-0.00044985967
-3.789596e-05
-0.00019658948
-0.00015664857
-0.00010221593
-0.00013841751
0.0001588403
-0.00011290621
0.00051992966
-7.4768825e-05
0.00013239732
0.00026519896
0.00016136014
0.00024116295
0.00019100957
0.00014555318
-0.00012236503
0.00039059575
-7.3500042e-05
-0.00022122178
-2.1295572e-05
-2.6530383e-05
-0.00012855116
-0.00053064335
-4.7889603e-05
-0.00014544432
-0.00022784281
-9.1981297e-05
-0.00026276101
7.6693738e-05
-7.1539203e-05
-0.00018968557
0.00015501974
-0.00011947671
0.00013550576
0.00016509706
-8.9874482e-05
4.7262629e-05
0.00019750945
-0.00010725269
-0.00024346014
0.00014534829
7.5373341e-05
-0.00032704331
1.0181956e-05
8.4911905e-05
-0.00024835206
5.9601214e-05
0.00015731192
0.00013945933
4.3810052e-05
9.1290055e-05
-6.1513572e-05
-1.9021931e-05
7.5458453e-05
-0.00037231511
1.234153e-05
-1.0944655e-05
-0.00050481692
-5.4816486e-05
-7.2069877e-05
-0.00024253286
-5.9260844e-05
-5.8567093e-06
0.00019972476
-5.7723467e-05
0.00014494504
0.00013373118
-2.1385307e-05
9.4320479e-05
-0.00012774116
-2.5735408e-05
-1.4829852e-05
-0.00046541207
6.117194e-05
-4.4763486e-05
-0.00039915901
6.6194027e-06
-0.00014193978
-5.686242e-05
6.1990388e-05
-0.00017223916
0.00013744565
-3.5216924e-05
0.00022325912
0.00014097939
0.00016753926
0.0001026012
0.00019825025
0.00010981464
0.00037066473
0.00014413395
0.00023577302
4.7530482e-05
-0.000230768
-0.00014302403
-0.00040945582
-0.00023671086
-0.00029563761
-0.00021811475
-0.00011095255
-0.00016695034
8.5696337e-05
-0.00017408148
0.00022809116
-0.00011923621
0.00029549039
-0.00015626774
0.00023667103
-0.00013627936
-9.7304784e-05
0.00024639679
1.1204335e-05
0.00036720889
-9.2254773e-05
0.00021215095
-0.00019395178
-6.5352105e-05
-0.00022564809
-0.00016162999
-8.6997966e-05
8.9781157e-05
-2.5901729e-06
0.00030663462
-2.3397105e-05
0.00027807856
-5.2394843e-06
-2.3450223e-05
-0.00012942818
-0.00027680827
-0.00020259401
-0.00030058047
-0.0001247078
-0.00017379299
-0.00012020959
-0.00011177165
-7.6838617e-06
0.00014357054
-0.00017297129
-5.9816144e-05
0.0001732263
-9.9644928e-05
-0.00011983385
0.00018109398
-8.3784754e-05
-0.00013012997
0.00015726174
-0.00012046731
-0.00016234456
0.00017769647
-0.00012876574
-0.00017031031
0.00014095525
-0.00012533412
1.7439188e-06
-0.00013470586
-9.0510174e-05
3.1579965e-05
7.6989443e-05
-6.8915424e-06
-3.1501515e-05
0.00015049338
1.8933035e-05
-3.1755415e-05
0.00012791252
2.3413626e-05