/*--------------------------------*- C++ -*----------------------------------*\
| =========                 |                                                 |
| \\      /  F ield         | OpenFOAM: The Open Source CFD Toolbox           |
|  \\    /   O peration     | Version:  v2012                                 |
|   \\  /    A nd           | Website:  www.openfoam.com                      |
|    \\/     M anipulation  |                                                 |
\*---------------------------------------------------------------------------*/
FoamFile
{
    version     2.0;
    format      ascii;
    class       volScalarField;
    location    "430/bottomWater";
    object      T;
}
// * * * * * * * * * * * * * * * * * * * * * * * * * * * * * * * * * * * * * //

dimensions      [0 0 0 1 0 0 0];


internalField   nonuniform List<scalar> 
1460
(
982.6272
977.70107
975.38039
972.9757
972.1123
974.09461
975.8831
976.23447
972.83546
965.0279
961.55025
958.27024
954.56683
951.21566
948.30986
946.49021
944.50188
941.73806
939.30611
940.73709
940.04464
940.68193
941.14772
939.93841
942.35407
941.13712
942.17373
941.07011
940.74531
938.96136
976.3135
972.88897
971.60836
971.00676
970.50926
970.19626
970.74852
971.38806
969.89876
964.17287
958.76181
956.7495
954.02986
951.57893
947.60991
946.14063
945.23272
940.85902
937.81532
938.69019
939.13844
939.47178
939.9265
940.39886
941.52534
940.74794
941.39022
942.39922
942.65531
942.14706
976.31168
973.68412
972.70975
971.65138
970.55046
969.73444
970.43516
971.01732
969.54871
964.25942
959.02813
956.72645
954.42747
951.95211
948.42859
948.41477
946.43003
940.88927
937.328
938.05956
938.85726
939.19558
939.70869
940.38142
941.1063
940.463
941.08302
942.60702
943.09892
942.27998
974.36901
970.60985
969.80868
968.94243
969.65636
970.10524
970.49656
970.01676
968.29744
963.42481
959.62654
958.94779
955.26706
951.8589
948.80706
948.46636
944.98654
940.71205
936.70331
937.42624
939.17177
939.05619
939.73176
940.52259
940.68326
939.57287
940.97798
942.95032
942.90875
942.39716
969.82898
968.72216
966.96541
967.69017
967.98041
968.35498
968.48559
966.90461
964.7725
961.66295
958.93506
957.63938
954.41242
951.07144
948.72676
947.50744
945.0951
941.72528
936.26092
936.6537
937.27918
937.42813
938.09513
939.05993
938.69604
938.75891
941.10087
941.60409
941.57538
941.75165
976.75551
973.00801
971.10683
971.02468
970.44648
971.55366
972.70979
969.16145
966.75549
964.26414
961.64132
959.23421
954.86345
951.863
947.54964
944.25267
943.76264
942.7006
940.60958
938.58582
938.36789
937.94512
936.47582
937.86973
940.24907
941.13749
942.73093
942.16439
942.909
941.79703
974.71457
972.07904
968.94106
968.16308
967.62707
967.58682
968.21446
966.99364
964.59655
962.64923
959.3701
957.17436
954.45486
951.92293
949.68015
946.67747
944.26963
942.67904
939.58732
938.68525
938.51037
938.47442
937.96412
939.4171
941.37456
941.99098
942.78567
943.0708
944.02172
943.86218
973.46991
972.36381
969.29371
968.3224
967.605
967.57679
968.16696
967.69798
965.40105
962.60488
959.30473
957.28646
955.33051
952.47195
950.13922
946.99131
945.6355
946.01448
939.96438
938.21092
937.7829
937.89037
937.80465
939.82817
941.78938
942.04314
941.88071
942.67928
944.41356
944.10123
972.52095
971.69016
968.38971
967.49811
968.08035
967.82102
968.27773
967.5428
965.75856
961.77838
959.98661
957.58065
954.44328
948.73583
946.60988
945.30309
945.55683
945.51244
938.34766
937.2456
937.5442
937.50151
937.7373
939.77368
941.08255
942.04706
940.64866
941.95472
944.39915
944.22346
972.95548
973.31204
968.78323
966.73721
966.77433
966.58823
966.46119
965.21637
964.00539
961.89055
959.86171
956.47631
951.39347
948.26586
946.67652
944.66755
941.6923
941.20155
937.13616
935.77816
936.29648
936.38111
936.82095
938.43611
939.79869
939.67108
940.30455
942.2176
943.06528
942.74543
982.11788
975.81946
972.94891
969.96019
968.39877
968.56414
969.93842
970.42576
961.72969
959.40876
958.67066
956.98655
952.47242
949.72405
947.65534
943.03089
938.2367
939.18861
939.80031
936.46697
936.56847
935.04414
937.64606
942.34332
943.52616
943.46197
943.25541
943.66177
944.24139
944.0286
976.87167
971.73318
969.51321
967.92575
966.60324
966.26993
966.50844
966.36757
959.0368
958.44146
959.12935
957.06426
951.53111
947.76765
947.44404
945.72391
943.31306
941.43912
939.17424
938.47248
937.28903
936.41962
938.46048
941.59765
942.13096
941.99627
941.86212
943.71524
945.06523
944.98978
977.32117
973.33922
971.45977
967.94116
966.50825
966.2624
966.4249
966.1485
960.75547
960.94454
959.56485
957.36087
950.47287
945.79473
947.18984
946.6001
943.7308
942.04311
940.39781
938.63622
936.88916
936.465
938.45867
940.72483
942.20749
942.65298
941.06236
943.36718
945.24854
945.25691
975.14461
972.95118
971.17682
966.13383
965.99638
966.20859
966.3294
965.92481
961.6507
961.04398
959.52703
957.21464
948.45595
941.67794
943.80581
944.90221
944.06294
942.28985
941.44112
938.17982
936.56041
936.72966
938.76791
940.04715
942.31228
942.34605
940.30154
943.27347
944.93828
944.40857
975.52451
974.92555
974.32085
966.39627
965.40662
965.20185
965.05688
964.94195
962.43058
961.22041
959.71636
957.17413
946.60103
942.32621
941.4471
942.31393
942.87444
940.98661
938.15009
935.79211
936.10371
936.65996
938.15269
939.15208
940.00685
939.6729
939.86115
941.95281
942.52479
941.62656
984.69717
977.62858
974.17045
970.92818
968.35672
968.00102
968.1879
964.5153
957.3705
955.76371
952.78826
954.80781
952.57341
935.76751
931.78722
931.53042
927.00469
933.07443
936.02556
934.44236
935.3948
934.23476
939.89502
941.13377
941.11602
940.97115
941.03098
942.93471
943.26174
942.92681
977.68655
972.20846
969.74595
967.23666
964.68004
965.19038
965.82896
963.51981
956.32745
956.58602
953.06383
951.36859
950.31098
936.79474
934.52816
936.05543
933.8504
934.9641
935.70257
935.10638
934.60676
935.52682
940.32648
940.99918
940.9058
940.5374
941.11791
943.78041
944.5129
944.37523
977.86508
972.62518
971.59138
968.12999
964.39279
964.70255
965.23791
964.11624
960.82132
957.57852
952.86464
948.21896
944.54431
937.33389
936.29715
937.49851
931.92968
935.83389
936.64042
935.02486
935.55938
936.50254
940.08422
940.74966
940.96423
940.11412
940.78572
944.06597
945.26186
944.64793
978.69179
975.0729
971.07648
968.09292
963.33119
963.11204
963.80591
964.27289
961.54922
960.09826
954.44852
948.4982
936.81674
930.13823
930.97926
934.5418
936.11119
936.31006
935.75474
934.29833
934.97706
937.34821
940.07175
940.5232
940.46492
939.64595
940.24565
943.27736
945.14876
944.82102
979.08655
976.77643
974.0507
971.40674
963.2141
961.99489
960.89238
959.83799
958.78549
955.00287
952.39399
949.31724
936.07228
927.09765
926.77427
928.66915
930.66929
935.19415
933.23037
933.75485
936.52444
937.3884
938.76917
939.07352
938.95343
938.77115
939.73148
942.62223
943.25595
943.63247
987.63026
981.68006
977.74607
974.50863
971.94129
969.24337
969.1809
969.54544
955.07675
949.40854
944.11383
951.89755
945.12807
920.84284
926.86685
925.73955
933.30425
934.99518
936.30139
941.98614
942.31788
941.51887
942.62913
943.53594
943.84178
943.37166
979.77193
975.39076
972.34429
969.82275
966.91674
967.06191
967.55252
967.88517
954.95337
945.90486
941.79749
947.6047
944.03207
921.12639
925.47696
923.76893
931.06264
934.47525
935.4903
940.72592
940.90845
940.76818
943.34856
944.49195
944.5489
944.50398
979.54635
975.28344
973.11208
968.2982
966.02183
967.33356
966.97378
965.6851
955.80964
947.95876
940.98142
940.31877
939.64754
919.75786
926.98576
923.72837
929.76344
935.76004
936.4062
940.64682
939.85289
940.31862
943.57662
945.21863
945.08916
944.92768
979.71361
976.50529
971.71935
966.11181
965.78087
964.02884
961.55097
960.44025
956.3766
953.14737
947.84424
939.16182
935.99061
920.30672
922.64199
921.85451
926.96732
935.02556
937.85724
940.79073
939.27762
939.42157
943.57866
944.89663
945.65237
945.25571
978.82022
976.95565
972.80248
971.45313
966.10434
962.6791
960.836
959.55233
957.33081
952.51273
948.95521
945.54272
939.16238
919.9564
920.95705
921.42714
926.15427
934.46979
937.37878
937.95969
937.38561
938.66415
943.51641
944.02216
944.6664
944.71102
984.53588
983.35405
982.52866
981.46094
980.11981
978.03104
974.19048
973.41938
964.19181
956.0235
949.61318
950.15778
936.08283
921.14053
931.11819
929.60494
933.57652
935.4116
936.91535
942.31697
944.1126
943.91212
943.7316
945.27756
944.42741
944.53452
980.38805
980.48796
979.13324
975.84656
974.05951
973.21346
971.09906
971.3797
958.66984
945.91818
940.17625
941.9062
933.30343
922.81995
928.20565
927.6999
932.32735
933.57257
934.70431
940.00363
943.0127
943.39538
944.27584
944.81526
944.84042
945.08696
979.47675
976.61574
976.53837
974.47884
973.88259
974.45174
970.03266
967.68488
957.60366
943.03108
936.14146
937.10465
930.71336
920.40135
923.85853
926.65448
932.15706
933.66577
937.25666
940.36971
943.18795
943.97033
945.39651
945.07113
945.20119
946.08365
978.5537
971.55724
967.69368
967.18419
971.34621
971.25273
963.84756
962.69616
957.73876
946.28617
938.87335
932.60024
928.51731
917.32907
920.55607
923.3674
927.71778
930.75365
936.77856
940.37258
942.6167
942.50554
945.22884
945.16524
945.44106
945.76996
976.58783
973.25724
972.33079
967.89551
965.85508
966.45655
962.14203
959.92639
957.5079
948.59532
942.55933
938.07809
933.55138
907.98791
922.68307
925.55776
927.90085
930.13963
935.03284
939.12158
939.96897
940.16368
943.85816
944.01928
944.80393
945.22543
979.46729
976.52445
975.37469
977.65005
979.19509
980.40292
977.14041
965.63756
950.65836
941.76703
934.9992
928.78167
924.43152
919.80503
921.59976
924.19629
919.84314
919.69699
929.63249
935.55984
936.96476
939.80336
939.88773
942.15669
942.7146
941.78333
942.9531
943.6096
943.90633
943.52085
974.97427
973.80583
972.35096
972.12359
974.43633
976.12407
975.85139
969.92733
942.2021
933.73548
928.93762
926.51415
924.15508
922.4299
925.57149
929.07471
926.78688
924.60111
928.92845
933.25368
935.8795
938.94926
939.43218
940.48315
941.25068
942.00502
943.82679
944.01483
944.18926
944.29784
977.31312
974.42874
972.26979
969.84501
974.59969
975.78276
971.39004
966.94951
942.92067
933.78542
931.12671
931.46137
929.76495
923.39341
928.82882
930.43846
927.66933
924.4679
928.78834
933.42847
936.77808
938.97834
939.43189
940.6081
941.56017
942.3395
943.73457
944.14767
944.50743
945.38399
975.79557
971.9358
971.98108
968.37557
974.31714
975.11688
965.85585
961.28219
945.73315
937.15048
936.61407
930.98571
930.12035
921.14655
926.22816
928.04622
924.49104
923.15223
929.0453
932.20689
935.3165
938.17478
939.50141
940.48513
941.43821
941.61819
943.05806
943.71464
944.65168
945.13507
974.84283
973.64824
972.80759
968.16133
966.68767
966.6773
962.38603
957.21298
948.87421
941.83962
938.65708
936.39152
935.61227
919.5674
920.22612
921.39423
921.41179
923.80326
929.6205
931.48879
932.78897
933.68175
932.77695
934.63813
936.72381
939.60644
940.18545
943.19556
943.92311
944.48262
976.51638
973.97633
973.95856
973.99842
975.00796
977.07313
978.82029
973.95476
959.54486
949.57343
943.49558
941.06761
941.82009
939.54036
938.55672
937.05002
934.64469
930.67973
936.92994
939.48529
941.12586
941.85302
941.26837
940.64779
939.8983
939.55664
942.00296
943.02027
943.50113
943.12868
974.65836
974.33317
973.29766
973.02306
971.92857
973.51798
974.77393
974.43099
961.22104
945.86768
943.32755
940.30603
941.81131
943.97744
939.48132
939.8977
938.91809
937.00577
937.07638
937.52698
939.66971
940.36228
939.63963
938.63451
938.19543
939.15597
942.23306
943.99983
944.44258
944.21117
976.03443
974.93224
973.72868
973.07064
970.24987
973.70792
973.30238
974.12538
963.89264
951.00549
945.88632
939.67863
941.95735
945.38132
940.6553
940.25871
939.19103
937.38501
937.0542
937.88692
939.61384
939.64761
939.55395
938.92896
937.54729
938.73558
942.13687
944.33254
945.121
944.62716
975.80484
975.09691
974.43632
974.0659
969.62197
971.1967
969.65138
968.09125
965.03778
954.6113
955.53898
946.26031
947.50222
943.49356
937.79842
939.2262
938.19102
937.1762
936.97504
937.94422
939.22881
938.94996
939.08002
938.56486
937.13182
938.06676
941.51157
943.92746
945.02801
945.24951
975.26962
974.9445
974.65048
973.71943
967.84854
967.70539
968.13205
966.74599
964.34959
959.24066
953.81195
950.68735
950.63363
942.6279
934.71052
934.4054
934.82752
935.05812
935.73533
936.273
935.93676
936.11745
937.05025
936.07448
935.75788
937.15336
940.94743
943.65507
944.05579
944.2811
977.86681
974.62945
974.23116
973.76722
973.98747
975.56404
976.4583
977.3985
978.46754
965.67947
957.53859
952.78327
950.8115
948.34534
947.17283
943.73722
939.92983
939.79271
940.98653
942.46178
942.55802
941.27166
939.27563
938.50943
937.93203
938.73961
941.79987
942.91115
943.1967
942.05018
975.16179
974.02851
973.94105
973.99427
973.00709
973.52237
973.4312
972.81214
974.21795
961.46188
952.73635
951.4799
952.93531
949.56636
946.21185
944.49912
942.58056
939.98345
938.95119
940.48612
940.66615
939.91009
939.31236
937.30934
936.56286
939.89664
943.00499
944.58493
945.38607
944.96006
975.37846
974.73915
974.76755
974.09553
973.01949
973.82226
970.72587
971.73568
974.25538
963.49717
954.53616
956.27532
953.77105
952.26186
945.31301
941.52499
942.07935
940.05561
938.37464
940.13387
940.69709
940.52711
939.90473
937.28673
936.0455
939.57016
943.29558
944.50659
945.56009
945.17499
976.03051
975.93964
975.93351
975.61583
974.06827
973.95585
970.57993
972.04564
972.49574
964.57182
960.89553
962.20575
958.80342
955.1236
944.95791
939.73768
940.60671
939.64729
938.82984
939.80932
940.54114
939.95204
939.16406
936.49244
935.5649
939.32505
943.04001
944.67436
945.49862
945.2587
977.25406
976.4123
975.84054
975.4252
975.07547
973.73977
968.5707
969.40387
969.99914
964.46314
959.76906
961.39965
959.95893
958.24268
944.5302
934.8421
935.21956
936.7851
937.06412
937.39159
937.58418
937.14347
936.64578
935.71204
935.18842
939.46731
943.21562
943.62229
943.98412
943.35562
981.39305
976.79996
975.11491
973.95213
973.36104
974.1199
973.04653
972.93703
975.85462
973.1214
968.12032
961.91073
960.64412
953.66546
943.96696
941.14072
939.37671
937.4447
936.74325
939.34051
941.58059
941.51439
939.92084
938.82
939.895
938.22667
940.76573
941.85875
942.50491
942.31892
975.93474
974.4206
974.08127
973.93602
973.78045
973.23196
972.01084
970.13321
971.95656
971.80913
970.34564
962.28985
959.5719
955.81623
946.87509
939.68799
937.92242
937.11993
937.95223
937.71332
940.44069
940.41707
939.89324
939.33398
939.15003
939.66338
941.40922
943.82278
944.04307
943.87954
976.1937
974.5936
974.2174
974.58542
973.95373
973.25294
971.79164
969.48635
972.86812
972.46303
970.13368
962.76359
955.93079
955.09316
947.69587
940.72778
937.8942
936.95822
938.1802
938.89663
940.41548
940.72332
939.59893
939.12991
939.50275
940.27637
941.74985
943.47817
945.30726
944.04793
976.70602
975.17485
974.7271
975.11278
975.16968
974.29986
972.41065
968.87259
969.94661
967.86288
967.08895
964.84921
957.71853
957.45304
947.9619
943.0973
937.11052
935.34128
937.07441
938.42248
939.95847
937.62626
937.26999
939.03411
938.58895
940.70425
941.90799
942.71072
944.3772
944.23793
977.40147
976.0454
975.47109
975.21159
975.04018
974.79877
972.55457
968.57622
967.39861
964.28908
963.3931
965.48771
964.00876
961.36329
946.60141
941.06489
934.569
934.195
935.06493
934.81502
934.07745
933.97579
934.49812
936.60964
936.80076
940.84305
942.84003
943.12902
943.89475
943.69624
)
;

boundaryField
{
    minX
    {
        type            zeroGradient;
    }
    maxX
    {
        type            zeroGradient;
    }
    minY
    {
        type            fixedValue;
        value           uniform 1073;
    }
    minZ
    {
        type            zeroGradient;
    }
    maxZ
    {
        type            zeroGradient;
    }
    bottomWater_to_rightSolid
    {
        type            compressible::turbulentTemperatureCoupledBaffleMixed;
        refValue        nonuniform List<scalar> 
130
(
752.22381
760.21999
768.59761
776.91834
784.84815
792.15835
798.69694
804.37019
809.13554
812.97199
815.85366
817.77469
818.73609
746.3626
755.69757
765.24035
774.49985
783.14201
790.97159
797.88168
803.81576
808.75354
812.7022
815.66566
817.6378
818.62087
734.56755
746.9767
759.03345
770.19157
780.20113
788.98664
796.54635
802.91827
808.14951
812.29294
815.384
817.43139
818.4483
716.86778
735.08605
751.21956
765.09734
776.88479
786.82467
795.13304
801.99399
807.55154
811.9126
815.14245
817.27237
818.33155
695.91639
723.68727
744.6434
761.13198
774.42794
785.26647
794.1302
801.34684
807.14466
811.66838
814.98751
817.17046
818.25357
695.61739
723.43875
744.42295
760.91084
774.20029
785.06352
793.96914
801.22358
807.04616
811.58705
814.92007
817.11409
818.20414
716.03959
734.33743
750.52859
764.44155
776.26815
786.25731
794.6417
801.59441
807.24257
811.67069
814.95021
817.11332
818.18994
733.3802
745.8776
758.01637
769.23937
779.31612
788.17695
795.82402
802.30377
807.66034
811.92027
815.09374
817.19373
818.24068
744.93847
754.36683
763.99746
773.33816
782.06719
789.99309
797.01013
803.07164
808.16402
812.24893
815.30349
817.33478
818.34718
750.65717
758.74749
767.20739
775.61292
783.64631
791.07832
797.75603
803.57784
808.50287
812.47327
815.45563
817.44581
818.43944
)
;
        refGradient     uniform 0;
        valueFraction   uniform 0.99248593;
        value           nonuniform List<scalar> 
130
(
753.64767
761.54279
769.86043
778.12334
785.99469
793.25499
799.75165
805.37952
810.10958
813.93478
816.79858
818.70495
819.66045
747.8266
757.06088
766.52181
775.71564
784.29349
792.06752
798.93782
804.83755
809.73727
813.66101
816.61659
818.58028
819.55356
736.11859
748.41312
760.36163
771.43829
781.3768
790.10754
797.61793
803.94838
809.13778
813.25151
816.33506
818.37138
819.37388
718.50831
736.57486
752.59116
766.38549
778.09086
787.96642
796.21464
803.02312
808.53754
812.87308
816.10036
818.21904
819.2731
697.5998
725.16947
745.97167
762.37205
775.63053
786.40949
795.21093
802.36904
808.13297
812.65911
815.95711
818.1285
819.20381
697.21318
724.93583
745.78399
762.1656
775.37198
786.19038
795.05981
802.26614
808.04646
812.58096
815.89015
818.07357
819.1586
717.60069
735.80481
751.88835
765.70653
777.45096
787.35829
795.6936
802.6098
808.2372
812.63639
815.91386
818.06619
819.13892
734.8956
747.30419
759.3558
770.49194
780.49434
789.29559
796.87783
803.30655
808.6334
812.88981
816.05978
818.14701
819.1878
746.38
755.73962
765.30034
774.57232
783.23244
791.09501
798.05231
804.06436
809.1507
813.23307
816.26774
818.28647
819.28655
752.03627
760.07232
768.46677
776.80359
784.77587
792.15603
798.79948
804.57895
809.49728
813.45292
816.41503
818.396
819.38066
)
;
        Tnbr            T;
        thicknessLayers List<scalar> 0();
        kappaLayers     List<scalar> 0();
        kappaMethod     fluidThermo;
        kappa           none;
        alphaAni        none;
        alpha           none;
        field           T;
    }
    bottomWater_to_leftSolid
    {
        type            compressible::turbulentTemperatureCoupledBaffleMixed;
        refValue        nonuniform List<scalar> 
130
(
890.87042
890.83203
890.75581
890.6568
890.53071
890.37475
890.1867
889.9669
889.73546
889.50761
889.30658
889.15147
889.05333
890.9644
890.91775
890.81098
890.67425
890.52056
890.34431
890.1429
889.91612
889.6805
889.44874
889.23789
889.06173
888.94549
891.094
891.03198
890.90552
890.71415
890.51564
890.30895
890.08745
889.84823
889.59288
889.34317
889.1128
888.91432
888.76509
891.21533
891.13399
890.98119
890.77127
890.52038
890.27522
890.02252
889.75498
889.47233
889.18355
888.91958
888.69431
888.5225
891.27418
891.18944
891.02709
890.81454
890.5581
890.29032
890.0115
889.71556
889.39817
889.06852
888.77107
888.52981
888.37268
891.30412
891.22288
891.07555
890.86327
890.62183
890.36296
890.06541
889.74204
889.39117
889.01469
888.68215
888.42644
888.27652
891.36236
891.29695
891.16639
890.96752
890.73397
890.47427
890.16848
889.82385
889.44728
889.06907
888.74925
888.51454
888.38917
891.45906
891.40633
891.29671
891.12611
890.89525
890.64434
890.36588
890.0572
889.72379
889.37938
889.07727
888.86064
888.749
891.562
891.51164
891.4123
891.26357
891.06588
890.82298
890.53565
890.24356
889.9436
889.63291
889.36526
889.18486
889.08078
891.61964
891.56766
891.47164
891.33197
891.14719
890.91666
890.63995
890.33723
890.04067
889.7591
889.52886
889.37011
889.27539
)
;
        refGradient     uniform 0;
        valueFraction   uniform 0.99248593;
        value           nonuniform List<scalar> 
130
(
891.46368
891.41727
891.32846
891.23562
891.11266
890.96069
890.77505
890.54495
890.29925
890.04971
889.82972
889.66605
889.54438
891.58047
891.53685
891.39683
891.2458
891.09354
890.91722
890.71636
890.48185
890.23889
889.99301
889.7685
889.5682
889.41471
891.72844
891.66238
891.53232
891.28279
891.07837
890.87171
890.65077
890.41247
890.14017
889.88321
889.64325
889.42714
889.19965
891.87566
891.77753
891.60539
891.37709
891.06661
890.81417
890.55511
890.28163
889.99312
889.67808
889.39653
889.14984
888.87985
891.932
891.83389
891.64151
891.42041
891.12571
890.83425
890.54372
890.24036
889.90868
889.54526
889.22339
888.95825
888.75439
891.9449
891.8393
891.68611
891.44206
891.18712
890.93472
890.60707
890.26948
889.90317
889.46243
889.0871
888.79956
888.61679
891.98958
891.91572
891.77985
891.54756
891.30468
891.04687
890.71116
890.33023
889.89402
889.4656
889.12429
888.87428
888.74404
892.0888
892.03403
891.92303
891.74674
891.47347
891.22337
890.95024
890.63349
890.28465
889.90432
889.56371
889.32524
889.21409
892.20595
892.14962
892.04672
891.89597
891.69715
891.4461
891.12201
890.83836
890.54519
890.19523
889.89429
889.72757
889.61337
892.26431
892.20248
892.10285
891.96226
891.77759
891.54697
891.25549
890.92513
890.62194
890.31916
890.08396
889.94214
889.83696
)
;
        Tnbr            T;
        thicknessLayers List<scalar> 0();
        kappaLayers     List<scalar> 0();
        kappaMethod     fluidThermo;
        kappa           none;
        alphaAni        none;
        alpha           none;
        field           T;
    }
    bottomWater_to_heater
    {
        type            compressible::turbulentTemperatureCoupledBaffleMixed;
        refValue        nonuniform List<scalar> 
92
(
733.04924
735.15202
739.24903
745.07223
723.63107
726.10088
730.94061
737.86672
703.8088
707.0037
713.41716
722.85151
345.65059
342.88858
342.92593
345.65643
422.38433
419.02511
419.27317
422.88594
487.90828
485.11588
485.87223
489.66401
543.55347
541.87816
543.84073
548.3981
671.56133
589.55077
675.56441
589.77328
684.15819
594.42285
698.00498
602.03586
345.65059
345.65643
422.38433
422.88594
487.90828
489.66401
543.55347
548.3981
589.55077
602.03586
345.54813
345.54813
342.83257
342.88822
345.62596
345.62596
422.22485
422.22485
418.93087
419.20653
422.83483
422.83483
487.74273
487.74273
485.01052
485.78895
489.59175
489.59175
543.39297
543.39297
541.76467
543.73531
548.27338
548.27338
589.37798
589.37798
589.62798
594.27391
601.83866
601.83866
670.72303
674.71883
683.30585
697.15329
702.63268
705.776
712.16107
721.60703
722.29102
724.67412
729.44714
736.38141
731.61508
733.62404
737.64855
743.451
)
;
        refGradient     uniform 0;
        valueFraction   nonuniform List<scalar> 
92
(
0.99248593
0.99248593
0.99248593
0.99248593
0.99248593
0.99248593
0.99248593
0.99248593
0.99248593
0.99248593
0.99248593
0.99248593
0.99248593
0.99248593
0.99248593
0.99248593
0.99248593
0.99248593
0.99248593
0.99248593
0.99248593
0.99248593
0.99248593
0.99248593
0.99248593
0.99248593
0.99248593
0.99248593
0.99248593
0.99248593
0.99248593
0.99248593
0.99248593
0.99248593
0.99248593
0.99248593
0.99248593
0.99248593
0.99248593
0.99248593
0.99248593
0.99248593
0.99248593
0.99248593
0.99248593
0.99248593
0.99248593
0.99248593
0.99248593
0.99248593
0.99248593
0.99248593
0.99248593
0.99248593
0.99248593
0.99248593
0.99248593
0.99248593
0.99248593
0.99248593
0.99248593
0.99248593
0.99248593
0.99248593
0.99248593
0.99248593
0.99248593
0.99248593
0.99248593
0.99248593
0.99248593
0.99248593
0.99248593
0.99248593
0.99248593
0.99248593
0.99248593
0.99248593
0.99248593
0.99248593
0.99248593
0.99248593
0.99248593
0.99248593
0.99248593
0.99248593
0.99248593
0.99248593
0.99248593
0.99248593
0.99248593
0.99248593
)
;
        value           nonuniform List<scalar> 
92
(
734.68744
736.75683
740.81389
746.5752
725.31899
727.7583
732.54651
739.39833
705.60101
708.7653
715.13711
724.5048
350.08488
347.31364
347.34875
350.02471
426.24963
422.89868
423.15634
426.72537
491.28534
488.50613
489.26585
492.98723
546.45838
544.80205
546.77661
551.3113
673.48148
592.08716
677.45203
592.30554
685.99542
596.93436
699.75315
604.50515
350.15498
349.97845
426.30388
426.62977
491.3025
492.89586
546.50226
551.19274
592.17785
604.4247
349.98536
349.86309
347.18136
347.25611
349.95047
349.94052
426.06506
425.98339
422.73768
423.03765
426.5918
426.62149
491.07115
491.01624
488.34529
489.13001
492.82894
492.8834
546.2868
546.23141
544.65348
546.62306
551.04663
551.10028
591.96419
591.85901
592.11207
596.73187
604.13911
604.2399
672.59283
676.56354
685.09483
698.83833
704.43606
707.49618
713.831
723.20916
724.06397
726.32617
730.99047
737.87546
733.34143
735.22441
739.17704
744.88706
)
;
        Tnbr            T;
        thicknessLayers List<scalar> 0();
        kappaLayers     List<scalar> 0();
        kappaMethod     fluidThermo;
        kappa           none;
        alphaAni        none;
        alpha           none;
        field           T;
    }
}


// ************************************************************************* //
