/*--------------------------------*- C++ -*----------------------------------*\
| =========                 |                                                 |
| \\      /  F ield         | OpenFOAM: The Open Source CFD Toolbox           |
|  \\    /   O peration     | Version:  v2012                                 |
|   \\  /    A nd           | Website:  www.openfoam.com                      |
|    \\/     M anipulation  |                                                 |
\*---------------------------------------------------------------------------*/
FoamFile
{
    version     2.0;
    format      ascii;
    class       volVectorField;
    location    "430/bottomWater";
    object      U;
}
// * * * * * * * * * * * * * * * * * * * * * * * * * * * * * * * * * * * * * //

dimensions      [0 1 -1 0 0 0 0];


internalField   nonuniform List<vector> 
1460
(
(-0.0011654476 -0.015451187 -0.00072017664)
(-0.0012844331 -0.015595727 -0.001856215)
(-0.0023381418 -0.013977874 -0.0019075987)
(-0.0017085327 -0.012066092 -0.00086418263)
(0.0025143962 -0.012946861 7.8357346e-05)
(0.0036728533 -0.01551936 -9.8917976e-05)
(0.0033277587 -0.015200319 -0.00054792195)
(0.0022164398 -0.015534128 -0.0010177823)
(0.0010061252 -0.016175733 -0.0002752637)
(-0.00049728914 -0.015802198 -9.7209763e-05)
(-0.0013179117 -0.016000699 -0.00029859515)
(-0.0020602563 -0.018075083 -0.00043431849)
(-0.0019644556 -0.017931668 -0.0015244483)
(-0.001900914 -0.016973229 -0.0010382687)
(-0.0027333664 -0.015843476 -0.00018863046)
(-0.0040444756 -0.01431109 0.0008262066)
(-0.0033297341 -0.011110106 0.0016381215)
(-0.0015542915 -0.011954162 0.0020137643)
(0.0012528131 -0.01256031 0.0012784708)
(0.0013182463 -0.01491815 0.0007072692)
(0.0027947973 -0.01349514 0.00083042617)
(0.0048374676 -0.013323818 0.00096185228)
(0.0037886165 -0.013867364 0.0004629055)
(0.0018410902 -0.016621409 0.00079468808)
(-0.0017183629 -0.015826201 0.00044438112)
(-0.001383468 -0.010967122 0.0014441187)
(0.00060655801 -0.011765563 0.001706534)
(0.0022095847 -0.013399263 0.00065398828)
(0.0031333239 -0.01563332 0.00060003965)
(0.0010284752 -0.01722546 0.00076775149)
(-0.0021305123 0.016951908 -0.0029632575)
(-0.0030706107 0.016350246 -0.0037584862)
(-0.0047378062 0.015145124 -0.0036599739)
(0.0023993219 0.0046327193 -0.0010692534)
(0.0040426668 0.0028899737 9.9778953e-08)
(0.0093653918 0.014402596 -4.3075909e-05)
(0.0080878444 0.016926956 -0.0011206144)
(0.0050488109 0.017123135 -0.0027759534)
(0.0033014364 0.017783092 -0.002828762)
(0.00081815754 0.017354807 -0.0021353274)
(-0.0027107702 0.017873169 -0.0035947821)
(-0.0030661776 0.019386227 -0.0020423272)
(0.0015741902 0.019225181 -0.0027091577)
(0.0016329603 0.018679774 -0.002789172)
(-0.0038305648 0.018002189 -0.00046319378)
(-0.0057548066 0.014784004 0.0017782187)
(-0.0024603734 0.0021704267 0.00063022345)
(-0.0017256762 -0.00018914439 0.0017535932)
(0.00028268265 0.0020382212 0.00076043132)
(0.001774703 0.012366312 0.00047713449)
(0.0033684807 0.0034753694 0.00052465952)
(0.0062207832 0.0093997641 0.0010195946)
(0.0071215638 0.01526157 0.0011468111)
(0.00028008731 0.018464168 0.0012814162)
(-0.0048583579 0.016712619 0.00054141409)
(-0.00010350044 0.0022931725 0.00032677252)
(0.002342844 0.0035080797 0.0011762205)
(0.0048597089 0.005947818 0.0003723538)
(0.0075005837 0.015837164 -0.00045052116)
(0.0049802269 0.018507187 -1.5552316e-05)
(-0.00049755073 0.0013205536 -0.00083065158)
(0.0027618852 -0.0034571561 -0.00034913841)
(0.0061461703 -0.010517983 -0.00087549807)
(0.0069306052 -0.014138586 -0.00076936009)
(0.00041147938 -0.015572198 -0.00019677209)
(-0.003816014 -0.013748915 0.0001642581)
(0.001956615 0.0012787072 -0.0011959188)
(0.0011482482 -0.0018648897 -0.00089667457)
(0.0016758924 -0.0010313532 -0.00077477073)
(0.0016631375 0.0014718837 0.00018857328)
(-0.00011657184 0.004027267 -0.0021144161)
(0.001511871 -0.014243804 -0.00028993999)
(0.00014233265 -0.017306512 0.0010524587)
(0.0023678123 0.0018049026 -0.0013670385)
(-0.00067569691 0.0046965774 -0.00089733285)
(0.003857813 -0.014098359 -0.0031620101)
(0.00091570289 -0.013882041 -0.0023709456)
(-2.1253267e-05 -0.013774783 -0.0003201672)
(-0.0018433493 -0.014015892 -0.0012880075)
(0.0024591143 -0.014352401 -0.00093055917)
(0.0017985238 -0.01600992 -0.0017717461)
(-0.004060597 -0.014570493 -0.0028093776)
(0.0018910528 -0.0021794322 -0.0013460501)
(-0.00017189788 0.0039043808 0.00018015505)
(0.0036588285 -0.013833737 -0.0018270294)
(0.0031238827 -0.014014923 -0.0022676128)
(0.0036315377 -0.013361845 -0.0019538604)
(0.00036488811 -0.015100698 -0.0014752571)
(-0.001976906 -0.0063475574 -0.00090063873)
(0.0018301491 0.0058389062 0.00054856117)
(0.00083750322 0.007417617 0.0024123085)
(0.0035507709 0.0039460196 0.0018192559)
(0.0057495276 0.0096086459 0.00034420477)
(0.0034300302 0.0112877 0.0006532082)
(0.00030397784 0.011607893 0.00087266697)
(-0.0031179833 0.010734943 -0.00090727365)
(-0.0016936977 0.0077557532 -0.00024418785)
(0.00076673847 0.0087639037 0.002500793)
(0.00018723199 0.0087928105 0.0037708057)
(0.0014250047 0.0092693319 0.0010501105)
(0.0034622215 0.009250938 1.0146245e-05)
(0.0069186176 0.013217535 -0.00092790444)
(-0.00091695074 0.013102761 -0.00081572864)
(-0.0018082449 0.0084904258 0.001426342)
(0.0023334224 0.0085090881 0.0011529729)
(0.0032764536 0.012126455 -0.0024259593)
(-0.0016930171 0.0020209381 -0.00053931893)
(0.00031098865 -0.0034211503 -0.0005340918)
(-0.0017839201 -0.0044103938 -0.0011255836)
(0.00073811177 0.0041700213 -0.0016643063)
(-0.00039736178 0.011503866 -0.0001998159)
(-0.0034326466 0.0095213359 -0.0020710641)
(-0.0016599931 0.0072123068 -0.00084978547)
(0.0021315047 0.0085150848 0.00031932677)
(0.0032862145 0.012577133 0.0010955092)
(0.001588803 -0.0011805877 -0.001157018)
(0.0012479306 0.00072676685 0.00075264901)
(-0.00070402899 0.0099001348 -0.00081364872)
(-0.0043397968 0.0082904186 0.00099765036)
(-0.00096388594 0.0097177949 0.00053266168)
(0.0010323411 -0.0085963982 -0.0023984446)
(0.00024109193 -0.011033831 -0.00024606574)
(-0.0033164903 -0.009626693 0.0023659254)
(-0.0014880129 -0.0046466123 0.0017989787)
(-0.0027193084 -0.0085478958 0.0020766151)
(-0.0031697323 -0.0061131133 0.001556493)
(-0.0024603516 -0.0013516124 0.0010376369)
(-0.00012129982 -0.0024212467 0.0014434244)
(0.00024601348 -0.004168558 0.00091022145)
(0.0013146082 -0.0011216077 0.0022972761)
(0.0014720468 -0.0027621643 0.0024219025)
(0.0012447277 -0.0049462496 0.0030911135)
(0.0005907378 -0.00065845661 0.0022074726)
(0.0031500548 -0.0023372672 0.00099589112)
(0.0025674893 -0.0022758578 0.0016597471)
(0.0044774194 -0.0040192868 0.0013055221)
(0.0045651815 -0.0077267613 -0.00062134554)
(0.0030997009 -0.009071975 -0.0026088239)
(-0.0034464036 -0.010086615 -0.0025906535)
(-0.0062131263 -0.0093529317 -0.002012197)
(-0.0046789433 -0.0072947958 -0.0013330073)
(-0.0026036808 -0.0071634784 -0.0014943703)
(-0.0011708321 -0.0040340581 -0.0016030748)
(0.0014635734 -0.0016741026 -0.0010525521)
(0.0042559424 -0.0096161003 -0.0024830968)
(0.0043049927 -0.01085921 -0.0026072246)
(-0.0048691938 -0.0084527607 0.00022885099)
(-0.0042830872 -0.0046864027 0.00022439698)
(-0.003933398 -0.0033362234 0.0006065949)
(-0.0019936069 0.0025329803 0.0012414538)
(-0.0026036819 -0.015388964 -0.00033191614)
(-0.0016293157 -0.010696783 -0.00037233521)
(-0.00077453269 -0.012051749 -0.00069016993)
(-2.9163813e-05 -0.014690376 -0.00037459751)
(0.0020245128 -0.015222186 -0.00024634149)
(0.0029183691 -0.016068719 -0.0014653202)
(0.0021038949 -0.016141507 -0.0023438933)
(0.001355569 -0.016747158 -0.00082436798)
(0.0019013288 -0.017937511 -0.0012827766)
(0.00032072231 -0.015111605 -0.001855542)
(-0.00073893115 -0.013683261 -0.0033290407)
(-0.0021153793 -0.013265474 -0.0036520293)
(-0.0012837525 -0.012764494 -0.0034771167)
(0.00028115481 -0.017120733 -0.0037112543)
(-0.00053845217 -0.017024039 -0.0036081355)
(-0.0015787904 -0.017059558 -0.001993288)
(-0.0025926645 -0.015796615 0.0009107297)
(-0.0017537181 -0.014553845 0.0018992587)
(-0.00059079897 -0.012309559 0.0026519348)
(0.00092530913 -0.013553002 -0.00066659073)
(0.0030994589 -0.014448845 0.0011647098)
(0.0036410816 -0.014380539 0.00049945513)
(0.0023392467 -0.015629467 0.00025561242)
(6.3152422e-05 -0.018094272 0.0009517122)
(-0.0012346408 -0.020871022 0.0011799489)
(-0.0013660226 -0.015731994 0.0012463252)
(-0.0030263567 -0.013609572 0.00012371509)
(-0.00030051769 -0.011242533 0.00013520509)
(0.0025672607 -0.016713283 -0.00059687103)
(0.00054530803 -0.017005349 7.6643682e-05)
(-0.0024992176 0.01671995 -0.0016180021)
(3.7709542e-05 0.001161917 -0.00081046296)
(-0.00041090563 0.0042537708 -0.0018698732)
(0.0024239383 0.0079581304 -0.001830403)
(0.0047412172 0.0093590208 -0.0013057763)
(0.0075415015 0.016100997 -0.0032171133)
(0.0041422467 0.017763032 -0.0040304839)
(-0.00039713681 0.016201444 0.00051895792)
(0.0040363817 0.0191729 -0.00099280729)
(0.0015170132 0.017519609 -0.0022503166)
(-0.0013931894 0.015344097 -0.005383627)
(-0.0012216249 0.013597073 -0.0044210755)
(0.0014854813 0.0066153673 -0.0014425704)
(0.0034741995 0.015079019 -0.0031889103)
(0.0039942714 0.018074117 -0.004660466)
(0.001744268 0.018835052 -0.00083449704)
(-0.0036806902 0.016590078 0.0053166965)
(-0.0024429309 0.012196313 0.0053359809)
(-0.0015530055 0.0059383125 0.0031435934)
(0.0024295181 0.0092367353 0.00090208004)
(0.0047794799 0.009721152 0.0013005614)
(0.0075493204 0.015695715 0.001846653)
(0.0058427633 0.017449219 0.00097249237)
(-0.0013076129 0.019872476 -0.00013226567)
(-0.0023317778 0.021737659 0.0018283798)
(-0.0021396481 0.017475581 0.0011988949)
(-0.0042643432 0.014653231 0.0012039635)
(0.0020895014 0.00097318105 -0.0004710103)
(0.0050072943 0.015731909 -0.0027299006)
(0.0044219936 0.018659239 -0.0020744358)
(0.0028700256 -0.014784622 0.0011172535)
(0.0015442148 -0.013362069 -0.00012852461)
(0.0017065285 -0.013495673 -0.0018355189)
(0.0038806589 -0.015692244 -0.0032674133)
(-0.0025562494 -0.015744776 -0.00061498392)
(0.00028383932 -0.0050408015 -0.00094852463)
(0.00056139016 0.0036106905 -0.0016076292)
(0.00051494842 -0.015784875 0.0027130254)
(0.00073205503 -0.017029685 0.0041043517)
(0.0021939373 -0.00021500911 0.0022552924)
(0.00064879035 -0.0099133232 0.004166957)
(0.0027380888 -0.014306415 0.0038190199)
(0.0028069412 -0.01531631 0.0026228684)
(0.0001691638 -0.016796249 0.0051137871)
(0.00025065569 -0.011296933 0.002844486)
(0.0013514558 0.0032097007 0.00071541456)
(0.0019576511 -0.0027125481 0.0022271783)
(0.0036770914 -0.014378247 -0.00058441818)
(-0.00030128787 -0.014193472 -0.00099645188)
(0.0025870902 -0.014765771 -0.00093266079)
(-0.0014766616 -0.016156608 -0.0035788758)
(-0.00012344874 -0.004404706 -0.0020772222)
(0.0018820003 0.0027813405 -0.0012097162)
(-0.001532503 0.0027084467 0.00033151862)
(0.0013181712 -0.011828599 -0.00054835785)
(-0.00019533315 -0.0017722679 0.00072267453)
(0.0039511415 -0.010121532 0.00095434047)
(0.0029294933 -0.014569006 0.00026293493)
(-0.0056003014 -0.015429273 0.0028299051)
(0.0024129602 0.0033209136 -0.00016752017)
(-0.0020815346 0.010892527 0.0065310108)
(-0.00070670658 0.0013550659 0.0018433073)
(-0.0010591701 -0.0038701617 0.0008059899)
(0.00034759556 0.012228717 -0.0014030505)
(-0.0032090545 0.011511228 0.0007005365)
(-0.002371249 0.0079866964 -0.00081308503)
(0.0013703498 0.0089019843 0.00054702062)
(0.0048203344 0.013278476 -7.6017865e-05)
(-0.0010689029 0.014242605 0.0023269867)
(0.00029951447 0.0080107733 0.0031061075)
(0.0046693551 0.0078101009 0.0027303423)
(0.0025577764 0.0030446807 0.00088745332)
(0.0036642326 0.0070880011 -0.0028071778)
(-0.0028004303 0.013258118 0.0025270697)
(-0.0050345449 0.010754081 0.0026233069)
(-0.00029643156 0.0019905377 0.0010196636)
(0.0044516248 0.0067060958 0.00052948976)
(0.0033110822 0.010630589 -0.00010813621)
(-0.00046320561 -0.00091882113 -0.00078783878)
(0.00086146197 0.0046574882 -0.0026950577)
(-0.0024062237 0.010822233 -0.0018307167)
(-0.0029488273 0.007482152 -0.0036635032)
(-0.00022069431 0.0091134653 -0.0011290226)
(0.0022510621 0.0085241365 0.0024415466)
(0.0015133485 0.013028829 -0.00086526428)
(-0.0017979509 0.0074965146 0.003018343)
(0.0021604288 0.0012864478 0.0013025815)
(0.0024561026 0.0068805788 -0.0012139364)
(-0.0039328943 0.012033315 0.00022111339)
(-0.0021438253 0.0082752998 0.00081460331)
(0.0014446198 -0.0035613327 -0.0022110223)
(0.0043108796 -0.0079482586 -0.0039551497)
(-0.00192009 -0.010986714 0.00042276326)
(-0.0038497828 -0.011009187 0.0033802503)
(-0.0032529261 -0.010433651 0.0032376574)
(-0.0042245115 -0.0079035889 0.0022227289)
(-0.0036372371 -0.0031114441 0.0014865105)
(-0.00069364099 -0.0047006439 0.00073397863)
(0.0017924581 -0.0028138032 0.0022587216)
(0.0046150795 -0.0057194874 0.0034091358)
(0.0043953661 -0.0097861402 0.0048039831)
(0.00080013397 -0.010995252 0.0060330947)
(-0.0029145383 -0.0074374626 0.0062731336)
(-0.00063729166 0.00028380809 0.0039129986)
(0.0041938598 -0.0090283628 0.0030440879)
(0.0026855346 -0.01063819 0.0016715362)
(-0.0019371419 -0.006476098 -0.0037912273)
(0.0030209856 -0.0049015738 -0.0033916365)
(0.00067503662 -0.0098424244 -0.003927185)
(-0.0055859831 -0.0090029303 -0.0020611594)
(-0.0043431019 -0.0054067984 -0.0013937946)
(-0.0032704182 -0.0037250594 -0.0014463786)
(-0.0015989521 0.00088310251 -0.00082645836)
(0.0011015526 -0.00034645634 0.0004727991)
(0.0021597392 -0.00034959769 7.1337483e-05)
(0.0050978727 -0.0036813976 0.00065983814)
(0.00031151084 -0.010002272 0.0021032361)
(-0.0052731445 -0.0071443322 0.00265805)
(-0.0032410123 -0.0015533706 0.0019611733)
(-0.00097851767 -1.321152e-05 0.0027201762)
(-0.00057970433 -0.018335955 0.0014341615)
(-0.0019580323 -0.016141496 0.002410634)
(-0.0036866043 -0.01369057 0.0016690922)
(-0.0030943104 -0.011352816 0.00037564288)
(-0.00031429426 -0.012655706 -0.00058503872)
(0.0019553198 -0.013028801 -0.0019346227)
(0.0022602303 -0.014555571 -0.0031313188)
(0.0015020085 -0.017238788 -0.002131429)
(-0.00095312396 -0.017488797 -0.0026707326)
(-0.0029874634 -0.01275578 -0.0029561429)
(-0.0028430284 -0.010459479 -0.0015165614)
(-0.00028608431 -0.012143406 -0.00038024685)
(0.0012651076 -0.012201966 -0.00060417061)
(0.0018608783 -0.012037347 -0.0010167928)
(0.0029506334 -0.012094949 -0.00076084445)
(0.0032347449 -0.01569007 -0.0021249005)
(0.0015866175 -0.017805304 -0.0016489963)
(0.00084539988 -0.019099919 0.00029782001)
(-0.00071763013 -0.01590202 0.0017977737)
(0.00076950378 -0.011044626 -0.0013057405)
(0.002879787 -0.016274702 -0.0012182062)
(0.0023458639 -0.016928496 -0.002025856)
(0.00027472486 -0.015604053 -0.00057642762)
(-0.0012847052 -0.015777093 -0.00022866494)
(-0.0025963392 -0.016418478 -0.001842403)
(-0.0037326418 -0.014909671 -0.0024066152)
(-0.0031213174 -0.011774884 -0.002695965)
(-0.00012764264 -0.012354424 -0.00080628425)
(0.0019303976 -0.012746131 -0.00091639175)
(0.0015413268 -0.016185728 -0.00078735179)
(-0.0011860049 0.019162347 0.0041047937)
(-0.0018819446 0.016755893 0.0041809669)
(-0.0035956445 0.013681018 0.0019777681)
(-0.00081441775 0.0023903005 -0.00095659022)
(0.0022598441 0.0030459135 -0.0022561087)
(0.0038909529 0.0063869109 -0.0037468907)
(0.0064684856 0.014753244 -0.005675457)
(0.0035135119 0.018664416 -0.0026242843)
(-0.0040202439 0.018739311 -0.0028210919)
(-0.0034613372 0.013097922 -0.0035956174)
(-0.0012593831 -0.00021329366 0.000590905)
(0.00084318516 -0.0035327046 0.0012422212)
(0.0020883312 -0.00067507889 0.00026813991)
(0.0034985719 0.0021338819 -0.00038744371)
(0.0045320317 0.002666936 0.00044285864)
(0.0077576565 0.01471102 -0.0023264309)
(0.0060283457 0.019073228 -0.0014028209)
(-0.0014759492 0.019850721 0.0033779447)
(-0.0040900376 0.016743749 0.0026658313)
(0.00072742828 0.00271602 -0.00036447576)
(0.0051532492 0.016744676 -0.00085257184)
(0.0054150801 0.018854431 -0.0023028834)
(-0.0019367833 0.017536229 -0.00098023879)
(-0.0011986865 0.017384682 -0.0012928261)
(-0.002377752 0.017755603 -0.0044187279)
(-0.0052740834 0.015243022 -0.0048211611)
(-0.0027279078 0.0049793436 -0.0024147581)
(0.0013511408 0.0017073679 -0.0012088886)
(0.0022153328 0.0064328554 -0.00057781942)
(0.0044851489 0.017297029 -0.0011745417)
(0.0017970932 -0.015138361 -0.0032137607)
(-0.0011187303 -0.01374279 -0.0042000365)
(0.0024766597 -0.013546929 -0.002212712)
(0.0029235347 -0.013655695 -0.0025279774)
(0.0024264998 -0.014143792 -0.0027348611)
(-0.0031340613 -0.014191665 -0.00038871822)
(-0.0031909376 -0.0073523832 0.0001203176)
(0.0003037985 0.0054521007 -0.0010015564)
(0.00039074056 -0.0051014545 0.0010035962)
(0.0043983215 -0.013123774 0.0044663167)
(0.0024318067 -0.013594346 0.0034852114)
(0.0022256306 -0.014814113 0.0025292354)
(0.0016343747 -0.013941991 -0.00067278265)
(0.002410287 -0.013388 -0.00058822668)
(0.0011668017 -0.015150304 0.0026546004)
(-0.003353608 -0.012874196 0.0050994742)
(0.0029947094 0.0067484915 -0.00039189352)
(-0.00032445403 0.0060627515 0.0022838541)
(0.0029467226 -0.0093522893 0.0013630027)
(0.0011277994 -0.014763372 -0.00060108801)
(-0.0039866106 -0.015488558 -0.0035585476)
(0.0018899807 0.0044175106 -0.002966239)
(-0.0015167979 -0.00014142268 0.0007414685)
(0.0010936122 -0.014216274 0.0060350925)
(-9.0239662e-05 -0.0033086474 0.00063515949)
(0.00073681598 -0.009716771 -0.00037444429)
(0.0018817968 -0.013528798 0.0022235253)
(0.0014225627 -0.013845973 0.00015014242)
(-0.0038401344 -0.015069149 0.00041692785)
(-0.00046537546 -0.0055560439 -0.00083146387)
(-0.0011392998 0.014341648 -0.0030705791)
(-0.0030208903 0.01113989 -0.0024308924)
(-0.0020433564 2.3363344e-05 -0.00044580614)
(-0.0034785559 -0.003649964 0.00099835069)
(-0.0016254464 0.0069890196 -0.0011046914)
(-0.00323707 0.010132454 -0.00099673961)
(-0.0045866238 0.008501482 0.00034531902)
(-0.0014315989 0.0095655266 -0.00272346)
(0.0023903274 0.0093320681 -0.0010121943)
(0.0011375496 0.0093291226 0.0016115703)
(0.001978642 -0.00091770458 0.0015506662)
(0.0025220092 -0.0052134081 0.0014861366)
(0.0015411273 -0.0041716506 0.00018725901)
(0.00040671757 0.0012877438 -0.0019716708)
(0.0027187411 0.0092554522 -0.0018065595)
(-0.0027354742 0.010188519 0.0020823868)
(-0.00058909607 0.0094048395 0.00094716389)
(0.0016210037 0.0096679659 8.2101648e-06)
(0.0036482145 0.01019254 0.0012514917)
(0.0021261272 0.0040887772 -0.0017903849)
(-0.002178851 0.010502698 -0.0037994009)
(-0.0014190268 0.0084015698 -0.0034076296)
(0.0024371873 0.0088401601 0.00015250621)
(0.0015542471 0.012037473 0.0036372095)
(-0.0006766349 0.0086337345 -0.00075197533)
(-0.00040086689 0.0095755375 0.0022606776)
(-0.0001707531 -0.0023381916 0.00063028465)
(-0.0010060149 0.0027926979 -0.00010953703)
(-0.0021921231 0.010384659 -0.0033180086)
(-0.0031420806 0.0070654137 -0.001070052)
(0.0022846937 -0.00025537574 -0.0031173731)
(0.0046197482 -0.0048610737 -0.0037123775)
(0.0053343536 -0.0091560523 -0.0041475203)
(-0.0032364569 -0.012404427 0.00327256)
(-0.0055470145 -0.011502516 0.0039405164)
(-0.0055341359 -0.0092879796 0.0032916301)
(-0.0043167256 -0.00577482 0.0026531434)
(-0.001519246 0.00013471094 0.0013987847)
(0.0031321255 -0.00428627 0.0027663711)
(0.0057511939 -0.0094017824 0.0027763391)
(0.0059021151 -0.010427379 0.0034095173)
(0.0028479902 -0.010856027 0.0042642888)
(-0.002625896 -0.0090516756 0.0041514112)
(-0.0046781761 -0.0079521706 0.0022362643)
(-0.0052857675 -0.0081545978 -0.00060590576)
(-0.0034738071 -0.0037826252 -0.0011732594)
(-0.0011719501 0.0025469336 -0.00090269058)
(0.0017683704 0.0030239525 -0.0015083849)
(0.0044233159 -0.0072200513 -0.0031190703)
(-0.0011182948 -0.0097764787 -0.0010327158)
(-0.0036593024 -0.0065645244 -0.00065456089)
(-0.0020156247 -0.0016193561 -0.00064167537)
(-0.0012027591 -0.001858981 0.0015646138)
(0.0016382227 -0.0023303761 0.0028700958)
(0.0031774541 -0.0019657422 0.0029037013)
(0.005183803 -0.0059893872 0.0037009345)
(0.0021378024 -0.0095005393 0.0035572518)
(-0.0046241613 -0.009529704 0.0043202322)
(-0.0025396421 -0.0072096108 0.0034462563)
(-0.0002077748 -0.008390725 0.0039616834)
(-0.00079143361 -0.015219693 -2.6695752e-05)
(-0.0027654046 -0.015767457 0.00077053647)
(-0.0039768019 -0.015309087 0.00085250126)
(-0.003763384 -0.012237744 0.0014067471)
(-0.0024205791 -0.011347078 0.00094659139)
(-0.00038034997 -0.011954456 -0.0012069797)
(0.0012913999 -0.013230032 -0.0030645488)
(0.00086537563 -0.018524476 -0.0010388556)
(-0.0032425317 -0.017187624 1.603762e-05)
(-0.0021394042 -0.012122683 -9.9474689e-05)
(-1.7147002e-06 -0.012600115 0.0010929898)
(0.0022389475 -0.012608212 0.0035796058)
(0.0011308971 -0.017297146 0.0038995071)
(-0.0012638938 -0.016520542 0.0020742623)
(-0.001120463 -0.011866479 0.0008096924)
(0.0016056896 -0.01238844 -0.00099230882)
(0.0023257489 -0.016378546 -0.00015863036)
(0.00049432285 -0.018466585 0.0004569467)
(-0.0023965317 -0.016373975 -0.00097014799)
(-0.00082550278 -0.010725622 -0.00038229239)
(0.0018479861 -0.01385201 -0.0027646484)
(0.0007337925 -0.017397464 -0.0018776642)
(-0.0021549029 -0.016161678 3.8213102e-06)
(-0.0032704091 -0.013858579 0.00045915547)
(-0.0030268923 -0.012377788 0.00026313533)
(-0.0025256876 -0.012794172 -0.0004184426)
(-0.0010695356 -0.012897612 0.0004503577)
(0.0026732166 -0.012281114 0.001304113)
(0.0035067459 -0.014175631 0.0015039035)
(0.0019499759 -0.016607419 0.0009339365)
(-0.0020734581 0.017306349 0.0036731419)
(-0.004746104 0.017460893 0.0033892597)
(-0.0050813932 0.015017149 0.0013980447)
(-0.0024748046 0.0068120572 0.00057612693)
(-0.0012734896 0.0018884194 0.00036254069)
(0.0020676376 0.0026854662 -0.0024037153)
(0.003681633 0.0070667717 -0.0043097574)
(0.002965278 0.01888362 -0.0025469688)
(-0.0072180074 0.016219407 0.00085475288)
(-0.0014241209 -0.0013796751 0.00020291134)
(-0.0014955472 0.00082893622 0.0011414342)
(0.0030853216 0.0060682728 0.0031189471)
(0.0032946881 0.01639822 0.0051458678)
(-0.003371412 0.017382722 0.003637448)
(0.0023498888 0.0069093673 -0.00089339216)
(0.0021740829 0.0015216812 -0.0009790941)
(0.0077227028 0.015431094 -0.0019481294)
(0.001706665 0.019959889 -0.0011571425)
(-0.0054678919 0.016854183 -0.0016197568)
(8.0085806e-05 -0.00041687022 -0.00055316321)
(0.0034986728 0.011002886 -0.0036487407)
(0.0037345629 0.017884624 -0.0040821368)
(-0.0053102834 0.017332644 0.0005479741)
(-0.0037594514 0.010200371 0.0018918121)
(-0.0031943445 0.004881603 0.0013905614)
(-0.0021139087 0.005042351 1.0919943e-06)
(-0.00010264074 -0.00198672 0.0011242322)
(0.0030452732 -0.00088947041 0.0014311353)
(0.005425032 0.011117888 0.0021295247)
(0.0052890069 0.017756174 0.0019917722)
(-0.00057601152 0.0030917701 0.0020665742)
(-0.0010624025 -0.0022617231 0.002472292)
(-0.00084650445 -0.016273357 0.0018574314)
(0.00032742396 -0.014114875 -0.0025224766)
(0.00041033932 -0.014075097 -0.0024389271)
(0.0015926573 -0.013403739 -0.0026876206)
(-0.0024952595 -0.013352703 -0.0012581124)
(0.00051846463 0.0010351253 -0.0023414063)
(0.0033105206 -0.01289261 0.001835328)
(0.0018220999 -0.015558229 0.0018048037)
(-0.0036087503 -0.013011017 0.0013798382)
(-0.0032835459 -0.013829227 -0.00052172195)
(0.00021308468 -0.0073663314 -0.00037160545)
(0.0037158321 -0.0068951733 -0.00073312693)
(0.0066706036 -0.013278212 -0.0010300044)
(-0.00017469008 -0.016053809 0.0014675623)
(-0.0020332833 -0.015466436 0.00075985034)
(0.00057869386 0.0080063054 0.00012981683)
(0.0013685974 -0.010361019 0.0018359246)
(-2.1793697e-05 -0.014544452 0.00090095939)
(-0.0031447187 -0.013135384 -0.0014043257)
(0.00071271386 0.0010213996 -0.0015322832)
(-0.0023068777 0.0010190224 0.001684302)
(0.0040057615 -0.015766371 0.0019505579)
(-0.00083487227 -0.014412714 0.0033657284)
(-0.00017625754 -0.013146474 0.0024056917)
(0.00015339358 -0.014540111 0.0019417403)
(-0.00042594878 -0.014293626 -0.00013829416)
(-0.0039100624 -0.014121441 -0.0029551813)
(0.0010713133 0.00050712162 2.5342676e-05)
(0.00012107665 0.0092077783 -0.001596382)
(0.0035317439 0.008530305 -0.0026469164)
(-0.0013956838 0.010167134 0.001403599)
(-0.0025785589 -0.0012224216 0.0002924548)
(-0.0030531962 -0.0043052303 0.00069022644)
(-0.0012536375 0.0021267647 -0.00072265876)
(-0.0031263835 0.0079095454 0.00010897606)
(0.00050198879 0.0081198303 0.00010976935)
(0.0029440707 0.012697086 -0.00019270807)
(-0.0012688523 0.01146531 0.002568928)
(0.00073799463 0.0019896928 -0.00020420691)
(-0.00097896071 -0.0025043023 -0.00075878822)
(8.1686361e-05 -0.00070639548 -0.0014639253)
(0.0029023795 0.0033861495 -0.0011501376)
(0.0029050272 0.0097910324 -0.00036284987)
(0.00087338929 0.011889172 -0.00080950307)
(-0.0033042685 0.011869958 0.003635701)
(0.00012085743 0.0098890177 0.00097188397)
(0.0017804132 0.011309484 0.00083087263)
(-0.0005604813 -0.0021674392 0.0015834412)
(-0.001737179 0.003229453 -0.0025195331)
(-0.001883126 0.0074831365 -0.00066869019)
(0.00078464273 0.0079746818 0.0010816507)
(0.0033396227 0.01053515 -0.0024247935)
(-0.0024677576 0.0089031965 0.0027471514)
(0.00010102511 -0.0001729592 0.0015051183)
(-0.00014204263 -0.0051285772 0.0014341608)
(-0.00045538346 -0.0015831858 -3.4154807e-05)
(-0.0026839973 0.0092775759 -0.0026771215)
(-0.0025545289 0.0069563347 -0.0016094099)
(0.00088864982 -0.00058753893 -3.6283268e-05)
(0.0032033867 -0.0022380454 -0.0020337354)
(0.0031918236 -0.0048427756 -0.0025007971)
(0.0040280668 -0.0088569334 -0.0022625161)
(-0.0037238493 -0.011480047 0.00046220221)
(-0.0052702695 -0.010911106 -0.00097447991)
(-0.004835993 -0.010881645 -0.0014742591)
(-0.0037374429 -0.0074218725 -0.0011534804)
(3.7765005e-05 -0.0063107061 -0.0019914459)
(0.0039092367 -0.010056961 -0.0032595476)
(0.0046169059 -0.0098488803 -0.0045627023)
(0.0024215985 -0.0098053266 -0.0039315074)
(-0.0013670532 -0.010114919 -0.00081702961)
(-0.004134786 -0.010366057 0.00067042499)
(-0.0055585104 -0.0099796372 0.0012186803)
(-0.0039755026 -0.0069017835 0.0011295457)
(-0.0028072466 -0.0063443753 0.0017428347)
(0.0005345329 0.0036174279 0.0017556161)
(0.0044729508 -0.0047868475 0.0022587686)
(0.0014166398 -0.0090973731 0.0027474651)
(-0.0044081749 -0.0083449563 0.0026859577)
(-0.0029400582 -0.0017373432 0.0016439361)
(-0.0010124559 -0.0011416726 0.0018408608)
(0.0029446176 -0.0039778177 0.0025184645)
(0.0051910391 -0.0072367513 0.0037212862)
(0.0056220088 -0.0088713311 0.0041632779)
(0.0021751335 -0.0099052671 0.0021029384)
(-0.0035351979 -0.010526382 -0.00012586668)
(-0.0032851923 -0.01048553 -0.0016789301)
(-0.00058733313 -0.0071532572 -0.0032340921)
(-1.1403702e-05 -0.016023857 0.00068075212)
(-0.0016140715 -0.016960998 0.0018177873)
(-0.0024282508 -0.017856173 0.0019080541)
(-0.0032926928 -0.014930983 0.0019101136)
(-0.0037092831 -0.013164203 0.0017028894)
(-0.0019658985 -0.010760918 0.00085752018)
(0.00063924458 -0.011693858 -0.0010522786)
(0.0019755331 -0.017911346 0.0014993815)
(-0.0017699224 -0.016112325 0.0019406408)
(-0.002473752 -0.012528627 0.0027080943)
(-0.00014027116 -0.010993825 0.0021378289)
(0.0026458749 -0.013053955 0.0029660336)
(-0.00040282722 -0.016708403 0.003809285)
(-0.0016361713 -0.015440968 0.0015464549)
(-0.0029693351 -0.012764975 0.0014266568)
(-0.0021497178 -0.011799494 0.00078026362)
(0.0016378479 -0.011670628 -0.0017377681)
(0.0020150293 -0.012462725 -0.00050632179)
(0.0017164509 -0.017727541 0.0010890301)
(-0.0021065853 -0.015996171 0.0026500894)
(-0.0034436704 -0.013922567 0.0022735352)
(-0.0025749582 -0.011452664 0.00096890255)
(0.00091683169 -0.011947139 0.0023119045)
(0.0025831895 -0.011880152 0.0029330597)
(0.002369111 -0.014487921 0.0023374763)
(0.00052351662 -0.017427078 0.0021200778)
(-0.0017566693 0.01728444 0.00053051692)
(-0.0048716187 0.018577034 0.001159887)
(-0.0049054527 0.018884273 0.0025389633)
(-0.002379818 0.016134825 0.0029128584)
(-0.0029162162 0.012775048 0.0024138244)
(0.0011726472 0.0018144545 -0.0010277371)
(0.0017189753 0.0020772362 -0.0027470939)
(0.0071611905 0.01684717 -0.0013755879)
(-0.0030262507 0.017345917 0.0018581666)
(-0.0032359193 0.0066208664 0.00077804553)
(-0.0020705899 -0.0012842529 0.0017998397)
(0.0048749182 0.014431976 0.0036723934)
(0.0025166671 0.017991407 0.0042082633)
(-0.0049022883 0.016673199 0.0011512334)
(-0.0043247609 0.0087490494 0.0022416783)
(-0.0024429057 0.00073563164 0.00046868124)
(0.0020397378 -4.705587e-05 -0.0024543531)
(0.0029545342 0.0071013624 -0.0023325758)
(0.0049923439 0.018238851 -0.0018658446)
(-0.003484514 0.017370742 0.0028903623)
(-0.0045091385 0.011702203 0.0018312889)
(-0.0016009077 -0.00099364145 -0.00086605292)
(0.0018195578 0.00022061297 0.0013688304)
(0.0040902345 0.006169348 0.001823051)
(0.0057426982 0.015600854 0.0026882036)
(0.0029947655 0.018985555 0.0015215618)
(0.00018031114 0.0037612111 0.00057817497)
(-0.0015688427 0.0019836451 0.00083014143)
(0.00053297996 -0.01738264 -0.0018097451)
(-0.00013726592 -0.013796386 -0.0022119648)
(0.0027601998 -0.013992111 -0.0029336057)
(0.0045338433 -0.013622239 -0.0037594644)
(-0.0018601087 -0.014794957 -0.0044622397)
(-0.0017597126 -0.0079616082 -0.0039293163)
(2.3886436e-05 0.0034469069 -0.00020412331)
(0.0027777198 -0.013527657 -0.0050283111)
(-0.0047966465 -0.014517902 -9.6165374e-05)
(-0.0060170953 -0.009656171 0.0015681283)
(-0.00099543499 0.00063102454 0.0029227656)
(-0.0011805777 -0.00068800992 0.00098675383)
(0.0025799033 -0.014268559 0.0030333059)
(-2.370023e-05 -0.013838269 0.0013656819)
(0.00016130816 -0.014197504 -0.000386534)
(-0.0032149833 -0.013931075 0.00054224769)
(0.0011830809 -0.0042030826 -0.0015094499)
(-0.00054901351 0.0011578614 3.1714039e-05)
(0.0032095733 -0.013844791 -0.0039758765)
(0.0011290732 -0.014639342 -0.0027626815)
(0.00041845928 -0.014121812 -0.0017450859)
(-0.0019054224 -0.013542884 -0.002255703)
(-0.0027168943 -0.0050953153 -0.0029166307)
(-0.00028784347 0.00347063 -0.00045309163)
(0.00051801397 0.0099364259 0.0011003546)
(0.0031580541 0.0089921037 0.0019123239)
(0.0020060423 0.013573835 -0.00026014931)
(-0.0045312574 0.0073971495 -0.00016117513)
(-0.0012132211 -0.0027102837 -0.0018239662)
(-0.0018020668 0.0034496983 -0.0018980372)
(-0.0021888919 0.010781158 -0.00078220034)
(-0.0042677191 0.0099972113 -0.00053531775)
(1.3865044e-05 0.0079260471 -0.0019376128)
(0.0028958721 0.011611842 -0.0012512839)