/*--------------------------------*- C++ -*----------------------------------*\
| =========                 |                                                 |
| \\      /  F ield         | OpenFOAM: The Open Source CFD Toolbox           |
|  \\    /   O peration     | Version:  v2012                                 |
|   \\  /    A nd           | Website:  www.openfoam.com                      |
|    \\/     M anipulation  |                                                 |
\*---------------------------------------------------------------------------*/
FoamFile
{
    version     2.0;
    format      ascii;
    class       volScalarField;
    location    "46";
    object      p;
}
// * * * * * * * * * * * * * * * * * * * * * * * * * * * * * * * * * * * * * //

dimensions      [0 2 -2 0 0 0 0];


internalField   nonuniform List<scalar> 
64000
(
-9.10552e-22
-4.94728e-21
-3.81e-21
-5.6455e-21
-9.0377e-21
-3.41621e-21
-5.35957e-21
-5.19198e-21
-5.94448e-21
-6.49244e-21
-4.47405e-21
-7.73518e-21
-5.68113e-21
-8.06282e-21
-5.80238e-21
-6.28043e-21
-2.47758e-21
-2.09229e-21
-2.36711e-21
-2.48679e-21
-2.20572e-21
-3.43605e-21
-4.00899e-21
-4.29713e-21
-2.99015e-21
-1.71428e-21
7.70696e-22
-5.89229e-21
-2.71908e-21
-1.79836e-21
-1.57044e-21
-1.68856e-21
-2.65701e-21
-2.34704e-21
-2.1268e-21
-4.96142e-21
-6.5498e-22
-5.37731e-22
-9.78996e-22
-1.13283e-21
-7.9027e-21
-1.18608e-20
-1.18441e-20
-9.19301e-21
-1.17682e-20
-1.20519e-20
-9.12097e-21
-7.54167e-21
-5.27324e-21
-1.24641e-20
-1.24837e-20
-1.20562e-20
-7.09645e-21
-7.81729e-21
-9.04968e-21
-7.91933e-21
-6.51121e-21
-6.50956e-22
-3.08279e-21
-3.99239e-21
9.0725e-23
-4.376e-21
-8.1243e-21
-1.1089e-20
-6.05466e-21
-3.65513e-21
-3.47458e-21
-6.42589e-21
-2.94707e-21
-2.36558e-21
-7.79463e-23
-1.62388e-21
-6.79249e-21
-4.44749e-21
-1.59359e-21
-1.6831e-21
-5.79665e-22
-1.70575e-22
-2.11396e-21
-2.41359e-21
-6.83392e-21
-8.79403e-21
-1.40667e-20
-1.16844e-20
-1.05485e-20
-1.25291e-20
-1.20417e-20
-8.94581e-21
-8.97774e-21
-1.15013e-20
-1.00496e-20
-1.20915e-20
-9.42433e-21
-8.14663e-21
-6.78249e-21
-4.13504e-21
-1.16204e-20
-6.27337e-21
-2.53968e-21
-5.70882e-22
-3.26097e-21
-8.54063e-21
-1.00218e-20
-8.46348e-21
-4.99563e-21
-5.21345e-21
-4.46108e-21
-6.10915e-21
-3.42802e-21
-3.64809e-21
-1.85392e-21
-1.96894e-21
-4.75553e-21
-3.25795e-21
-2.5957e-21
-1.87974e-21
-6.3061e-22
1.13237e-21
-5.28955e-22
-1.42454e-22
-8.91291e-21
-9.91649e-21
-1.18348e-20
-1.52313e-20
-1.31839e-20
-1.66666e-20
-1.56156e-20
-6.78371e-21
-9.59333e-21
-1.23722e-20
-1.06566e-20
-1.22461e-20
-1.08885e-20
-8.77967e-21
-8.21086e-21
-7.80456e-21
-7.23642e-21
-8.52109e-21
-1.97124e-21
-4.03592e-22
-4.9592e-21
-7.49647e-21
-1.23663e-20
-9.57333e-21
-9.71923e-21
-1.78044e-21
-5.31796e-21
-4.56956e-21
-5.13579e-21
-5.97026e-21
-2.34301e-21
-2.46036e-21
-3.78362e-21
-3.27132e-21
-3.12176e-21
-2.05252e-21
-2.24598e-21
5.98952e-22
-1.56182e-21
-8.64731e-23
-1.6741e-20
-1.12162e-20
-1.13045e-20
-1.43246e-20
-1.38261e-20
-1.69894e-20
-1.39654e-20
-9.48608e-21
-7.9784e-21
-1.45027e-20
-1.44847e-20
-8.06986e-21
-9.44259e-21
-8.0418e-21
-1.16138e-20
-1.41685e-20
-7.27844e-21
-5.00367e-21
-5.32947e-21
-1.30489e-21
-4.41815e-21
-7.97063e-21
-1.08988e-20
-1.11017e-20
-6.80926e-21
-3.3693e-21
-4.51464e-21
-6.40441e-21
-7.37308e-21
-3.11299e-21
-2.11753e-21
-4.74195e-22
-2.33041e-21
-2.2963e-21
-5.19891e-21
-3.77547e-21
-1.38821e-21
-1.0628e-21
9.57377e-22
-6.14198e-22
-1.36919e-20
-1.17129e-20
-1.06747e-20
-1.5415e-20
-1.45475e-20
-1.439e-20
-1.12871e-20
-1.44019e-20
-1.29112e-20
-1.33082e-20
-1.20452e-20
-9.43936e-21
-1.13146e-20
-8.16801e-21
-1.01297e-20
-1.24207e-20
-5.98512e-21
-4.51037e-21
-3.29953e-21
-4.47668e-21
-4.19264e-21
-9.20478e-21
-1.1525e-20
-1.08294e-20
-9.00374e-21
-2.72048e-21
-4.62255e-21
-3.83667e-21
-6.58901e-21
-4.25396e-21
-4.50544e-21
-3.73194e-21
-2.28888e-21
-1.24841e-21
-3.72157e-21
-1.24587e-21
-1.79858e-21
-1.39898e-21
-2.19987e-22
6.88243e-22
-1.51193e-20
-1.49388e-20
-1.02475e-20
-1.36307e-20
-1.50205e-20
-1.50371e-20
-1.15178e-20
-1.33287e-20
-1.45841e-20
-1.2384e-20
-1.24393e-20
-1.21676e-20
-1.1484e-20
-9.61645e-21
-8.51079e-21
-1.0444e-20
-6.33411e-21
-1.87024e-21
-3.41048e-21
-5.3586e-21
-6.85304e-21
-1.15988e-20
-1.25686e-20
-1.28582e-20
-5.01206e-21
-5.60742e-21
-5.68621e-21
-2.1442e-21
-4.47947e-21
-3.13036e-21
-6.21746e-21
-6.36796e-21
1.05908e-21
-8.01324e-22
-3.03055e-21
-2.79474e-21
-2.14852e-21
-1.38032e-21
-2.60385e-21
-1.38557e-21
-1.43618e-20
-1.40895e-20
-1.23707e-20
-1.18319e-20
-1.50516e-20
-1.31098e-20
-1.23649e-20
-1.89148e-20
-1.63619e-20
-1.3126e-20
-1.06736e-20
-1.04503e-20
-1.07681e-20
-1.11154e-20
-8.17243e-21
-1.02271e-20
-6.52205e-21
-3.23479e-21
-5.76881e-21
-4.21714e-21
-6.3969e-21
-9.99285e-21
-1.06878e-20
-1.01107e-20
-6.26374e-21
-7.07672e-21
-4.17288e-21
-4.72822e-21
-4.03293e-21
-3.76221e-21
-4.43702e-21
-4.86638e-21
-1.09054e-21
-2.93654e-21
-4.87219e-21
-2.83597e-21
-1.12412e-21
-2.98679e-21
-1.54579e-21
-1.82479e-21
-1.95924e-20
-1.60305e-20
-1.25696e-20
-1.3713e-20
-1.5045e-20
-1.62714e-20
-1.41526e-20
-1.36641e-20
-1.43497e-20
-1.70267e-20
-8.35441e-21
-9.23474e-21
-1.38354e-20
-1.00264e-20
-9.81502e-21
-1.01981e-20
-5.96118e-21
-1.02925e-21
-6.75153e-21
-9.81565e-21
-3.82709e-21
-7.55842e-21
-1.25593e-20
-9.30105e-21
-3.58902e-21
-5.61331e-21
-8.66531e-21
-7.31739e-21
-4.92428e-21
-4.71801e-21
-4.1341e-21
-3.07126e-21
-9.27452e-22
-3.22052e-21
-6.30798e-21
-2.29224e-21
-7.11631e-22
-1.64694e-21
-1.73117e-21
-1.62333e-21
-1.28201e-20
-1.34147e-20
-1.35506e-20
-1.26784e-20
-1.66832e-20
-1.77123e-20
-1.28706e-20
-1.34717e-20
-1.3255e-20
-1.61479e-20
-1.27421e-20
-8.91802e-21
-1.14005e-20
-8.93229e-21
-1.14668e-20
-9.40023e-21
-6.89462e-21
-5.45219e-21
-3.39814e-21
-6.57711e-21
-7.68793e-21
-9.13162e-21
-1.10294e-20
-9.80385e-21
-7.51903e-21
-5.70549e-21
-5.21345e-21
-5.33491e-21
-6.66188e-21
-5.60678e-21
-2.52604e-21
-2.72947e-21
-3.0625e-21
-3.20549e-21
-6.90067e-21
-4.81095e-21
-2.55148e-21
-2.2228e-22
-7.81665e-22
-1.8957e-22
-1.09152e-20
-1.46251e-20
-1.54968e-20
-1.71832e-20
-1.43247e-20
-1.58054e-20
-1.77611e-20
-1.1751e-20
-1.38031e-20
-1.52834e-20
-1.21118e-20
-9.97821e-21
-1.12416e-20
-1.0219e-20
-1.18616e-20
-1.21234e-20
-6.27861e-21
-1.6625e-21
-1.74801e-22
-7.15265e-21
-1.07518e-20
-1.39103e-20
-1.09123e-20
-1.04837e-20
-9.9159e-21
-5.26694e-21
-1.73978e-21
-3.90864e-21
-6.02391e-21
-9.20946e-21
-3.53601e-21
-1.34971e-21
-4.98783e-21
-2.80918e-21
-1.36746e-21
-7.65588e-21
-3.02057e-21
-1.00586e-21
-1.1185e-21
-9.1301e-22
-1.15616e-20
-1.61945e-20
-1.61205e-20
-1.52481e-20
-1.57394e-20
-1.83693e-20
-1.32318e-20
-1.55443e-20
-1.15725e-20
-1.52504e-20
-1.80117e-20
-1.0148e-20
-8.21635e-21
-1.17522e-20
-1.03179e-20
-1.11928e-20
-8.20799e-21
-3.16997e-21
-3.41993e-21
-3.96382e-21
-8.94206e-21
-1.35116e-20
-1.23031e-20
-1.20097e-20
-1.19545e-20
-4.2743e-21
-4.16821e-21
-5.0392e-21
-6.51653e-21
-5.08936e-21
-2.65399e-21
-2.93125e-21
-4.35328e-21
-4.51539e-21
-3.53033e-21
-3.59804e-21
-9.21654e-22
-1.05853e-21
-1.96526e-21
-2.9255e-21
-1.65465e-20
-1.5894e-20
-1.57314e-20
-1.56658e-20
-1.79889e-20
-1.75642e-20
-1.79195e-20
-1.84942e-20
-1.23898e-20
-1.38472e-20
-1.55304e-20
-1.13993e-20
-9.81538e-21
-1.24748e-20
-1.06254e-20
-1.18226e-20
-7.43511e-21
-2.62404e-21
-2.64897e-21
-9.11691e-21
-8.26794e-21
-1.1804e-20
-1.16988e-20
-1.25379e-20
-7.44222e-21
-4.45456e-21
-4.27946e-21
-5.66649e-21
-6.28993e-21
-4.06753e-21
-6.92922e-21
-4.45846e-21
-8.35189e-22
-6.4077e-21
-7.13741e-21
-2.062e-21
-5.03344e-22
-2.22116e-21
-9.13039e-22
-1.8073e-21
-1.8903e-20
-1.87544e-20
-1.55537e-20
-1.79937e-20
-1.49755e-20
-1.60196e-20
-1.7129e-20
-1.5723e-20
-1.33708e-20
-1.74454e-20
-1.38676e-20
-1.18697e-20
-1.31287e-20
-1.22993e-20
-1.16191e-20
-1.11333e-20
-8.08379e-21
-1.2218e-21
-2.00007e-21
-8.05942e-21
-9.40075e-21
-1.23297e-20
-1.2137e-20
-1.20712e-20
-7.84768e-21
-2.69027e-21
-8.78455e-22
-5.88935e-21
-6.83178e-21
-2.35834e-21
-4.09556e-21
-8.2438e-21
-3.47742e-21
-4.17748e-21
-6.94563e-21
-3.95797e-21
-1.54956e-21
-5.65983e-22
6.30305e-23
-2.12475e-21
-1.27598e-20
-1.99805e-20
-1.95133e-20
-1.6668e-20
-1.42894e-20
-1.62673e-20
-1.85654e-20
-1.99252e-20
-1.55644e-20
-1.35866e-20
-1.12206e-20
-1.51518e-20
-1.39408e-20
-1.07486e-20
-9.13004e-21
-1.03181e-20
-9.5485e-21
-5.5852e-21
-5.08447e-21
-5.91486e-21
-1.12009e-20
-9.36393e-21
-1.06421e-20
-1.23958e-20
-6.94999e-21
-3.68426e-21
-4.79278e-21
-7.03889e-21
-4.69945e-21
-2.86728e-21
-2.0275e-21
-4.62289e-21
-4.04677e-21
-3.36595e-21
-6.35188e-21
-2.7455e-21
-4.19791e-22
-2.47329e-21
-1.40573e-21
2.48329e-22
-1.39082e-20
-1.55088e-20
-2.05803e-20
-1.65727e-20
-1.55422e-20
-1.68376e-20
-1.62895e-20
-1.75301e-20
-1.55735e-20
-1.17713e-20
-1.51544e-20
-1.43311e-20
-1.41842e-20
-1.09969e-20
-1.21276e-20
-1.24277e-20
-9.09938e-21
-5.41367e-21
-3.23444e-21
-6.00208e-21
-1.11704e-20
-1.32549e-20
-1.1793e-20
-7.33362e-21
-4.66575e-21
-6.18334e-21
-6.72486e-21
-4.35505e-21
-3.77646e-21
-2.16133e-21
-3.06268e-21
-3.77848e-21
-4.91764e-21
-4.50397e-21
-7.36134e-21
-5.38884e-21
1.22102e-21
4.915e-22
-1.54462e-21
-1.88804e-22
-1.45033e-20
-1.4266e-20
-1.77405e-20
-1.36778e-20
-1.43113e-20
-1.74086e-20
-1.8243e-20
-1.91522e-20
-1.62881e-20
-1.45573e-20
-1.18565e-20
-1.63749e-20
-9.11863e-21
-1.09999e-20
-1.3584e-20
-1.27925e-20
-1.00123e-20
-6.00938e-21
-7.66102e-21
-5.266e-21
-1.18679e-20
-1.23574e-20
-1.11336e-20
-5.41507e-21
-6.58643e-21
-1.19611e-21
-5.79887e-21
-8.80415e-21
-1.41884e-21
-3.8066e-21
-3.4909e-21
-5.31811e-21
-5.85364e-21
-2.37482e-21
-1.6735e-21
-4.38292e-21
-2.41354e-21
-8.02204e-22
1.94044e-22
-1.57747e-21
-1.04508e-20
-1.51689e-20
-1.94381e-20
-1.3811e-20
-1.30779e-20
-1.967e-20
-1.57903e-20
-1.57262e-20
-1.71694e-20
-1.6671e-20
-1.4159e-20
-1.33421e-20
-1.0605e-20
-1.04265e-20
-1.68338e-20
-1.33369e-20
-9.57693e-21
-2.47585e-21
-6.56146e-21
-9.21915e-21
-1.50203e-20
-1.01531e-20
-6.6718e-21
-6.37739e-21
-6.42328e-21
-5.79341e-21
-6.81377e-21
-6.45618e-21
-4.20073e-21
-4.79222e-21
-4.26994e-21
-2.07261e-21
-3.26905e-21
-2.10325e-21
-6.18704e-22
-3.3751e-21
-2.57766e-21
-3.35479e-21
1.31248e-21
-1.58282e-22
-8.41906e-21
-1.16658e-20
-1.61192e-20
-1.58833e-20
-1.6908e-20
-1.72101e-20
-1.56149e-20
-1.43434e-20
-1.64855e-20
-1.67438e-20
-1.32267e-20
-1.38481e-20
-1.11453e-20
-8.55576e-21
-1.4842e-20
-1.53254e-20
-1.0018e-20
-7.90643e-21
-1.11254e-20
-1.0494e-20
-1.13855e-20
-4.46142e-21
-6.32505e-21
-6.85217e-21
-4.86665e-21
-5.9308e-21
-8.38047e-21
-5.33545e-21
-3.79366e-21
-4.98909e-21
-6.57164e-21
-2.07834e-21
-2.33106e-21
-2.67603e-21
-5.70122e-22
-2.68403e-21
-9.54632e-22
-2.1854e-21
-2.87125e-21
-2.98074e-21
-6.3358e-21
-1.22717e-20
-1.81188e-20
-1.67804e-20
-1.55053e-20
-1.35286e-20
-1.26716e-20
-1.59871e-20
-1.98987e-20
-1.58761e-20
-1.30445e-20
-1.34899e-20
-1.06335e-20
-1.14496e-20
-1.37804e-20
-1.27272e-20
-8.64508e-21
-7.64232e-21
-1.45048e-20
-9.49785e-21
-1.00623e-20
-8.1871e-21
-6.06922e-21
-7.09543e-21
-3.41609e-21
-3.10736e-21
-1.1515e-20
-9.21736e-21
-8.04019e-21
-1.43421e-21
-1.88873e-21
-1.92183e-21
-3.47397e-21
-2.42831e-21
-2.66329e-21
-3.14875e-21
-2.68058e-21
-1.72567e-21
-3.02653e-21
-2.69023e-21
-1.03337e-20
-1.22007e-20
-1.61463e-20
-1.32717e-20
-1.32002e-20
-1.37166e-20
-1.56947e-20
-1.59313e-20
-1.69443e-20
-1.61022e-20
-1.65185e-20
-1.45463e-20
-9.5027e-21
-1.3493e-20
-1.4506e-20
-7.2698e-21
-8.61109e-21
-6.8588e-21
-1.32622e-20
-9.55559e-21
-9.59586e-21
-5.47492e-21
-6.48495e-21
-9.66534e-21
-8.12213e-21
-3.7612e-21
-7.87775e-21
-7.00758e-21
-6.25223e-21
-2.7318e-21
-3.77383e-21
-1.73187e-21
-4.62288e-21
-2.28766e-21
-2.81384e-21
-4.98917e-21
-1.15162e-21
-2.1818e-21
-2.29082e-21
-2.6216e-21
-1.61085e-20
-1.44374e-20
-1.39214e-20
-1.31232e-20
-1.61217e-20
-1.24169e-20
-1.52307e-20
-1.52357e-20
-1.5121e-20
-1.52623e-20
-1.53853e-20
-1.58876e-20
-1.37557e-20
-1.68966e-20
-1.17898e-20
-8.79286e-21
-7.77258e-21
-7.52069e-21
-1.03115e-20
-9.66455e-21
-1.06209e-20
-2.57901e-21
-7.61696e-21
-9.35647e-21
-8.02004e-21
-5.69181e-21
-6.8213e-21
-9.44183e-21
-4.96139e-21
-1.54575e-21
-3.934e-21
-1.92661e-21
-2.08871e-21
-3.29122e-21
-5.96162e-21
-5.85991e-21
-1.0118e-21
-1.69839e-21
-6.54696e-22
-3.39076e-23
-1.82483e-20
-1.78521e-20
-1.38535e-20
-1.42066e-20
-1.52879e-20
-1.72708e-20
-1.47323e-20
-1.26807e-20
-1.74394e-20
-1.21449e-20
-1.49322e-20
-1.7225e-20
-1.40188e-20
-1.18686e-20
-1.10473e-20
-8.55176e-21
-5.56945e-21
-4.63437e-21
-7.03254e-21
-1.15408e-20
-1.1658e-20
-5.68019e-21
-8.88526e-21
-9.7511e-21
-8.92818e-21
-9.46369e-21
-6.88098e-21
-6.74124e-21
-3.41002e-21
-1.66541e-21
-3.80329e-21
-4.51673e-21
-1.21252e-21
-9.51237e-22
-9.22989e-21
-4.89977e-21
-1.36066e-21
-2.92839e-22
-1.62715e-21
-1.39568e-21
-1.59766e-20
-1.62279e-20
-1.76963e-20
-1.42609e-20
-1.49012e-20
-1.63854e-20
-1.586e-20
-1.72616e-20
-1.32445e-20
-1.46023e-20
-1.64115e-20
-1.65682e-20
-9.14039e-21
-1.44062e-20
-1.54168e-20
-8.55376e-21
-4.14514e-21
-4.27774e-21
-8.48534e-21
-6.87469e-21
-7.93424e-21
-9.72743e-21
-1.09931e-20
-9.15324e-21
-1.0916e-20
-5.02261e-21
-6.67588e-21
-8.13975e-21
-1.49665e-21
-3.01691e-21
-6.9093e-21
-6.73491e-21
-1.03578e-22
-5.47239e-21
-8.10806e-21
-5.0243e-21
-2.53822e-21
7.54766e-22
-2.43578e-21
-3.42886e-21
-1.04877e-20
-1.53794e-20
-1.68875e-20
-1.60947e-20
-1.34674e-20
-1.69316e-20
-1.59605e-20
-1.55262e-20
-1.20171e-20
-1.66118e-20
-1.88396e-20
-1.45624e-20
-8.79443e-21
-1.06384e-20
-1.23452e-20
-6.99699e-21
-6.77335e-21
-9.99315e-21
-7.63016e-21
-7.57251e-21
-8.0653e-21
-1.02873e-20
-8.10601e-21
-8.34894e-21
-1.04038e-20
-7.96136e-21
-4.82139e-21
-5.07226e-21
-4.8215e-21
-4.46969e-21
-5.07759e-21
-6.03447e-21
-1.36564e-21
-4.06665e-21
-9.07315e-21
-5.90473e-21
-1.92564e-21
-9.42346e-22
-1.47055e-21
-1.9576e-21
-1.32621e-20
-1.65265e-20
-1.91276e-20
-1.33881e-20
-1.20945e-20
-1.56198e-20
-1.59969e-20
-1.84991e-20
-1.15052e-20
-1.44063e-20
-2.00369e-20
-1.59535e-20
-1.10133e-20
-1.15603e-20
-7.52173e-21
-7.64791e-21
-8.71741e-21
-6.36178e-21
-5.0858e-21
-8.48832e-21
-8.6141e-21
-1.24361e-20
-1.06239e-20
-1.11935e-20
-8.84467e-21
-8.61136e-21
-5.10506e-21
-7.42349e-21
-5.30781e-21
-2.64944e-21
-3.54584e-21
-4.63583e-21
-1.1353e-21
-2.40117e-21
-6.05556e-21
-8.72844e-21
-3.60605e-21
-1.71242e-21
-9.11763e-22
-7.98028e-22
-1.2129e-20
-1.45156e-20
-1.61783e-20
-1.7616e-20
-1.52756e-20
-1.8282e-20
-1.5738e-20
-1.16682e-20
-1.25653e-20
-1.39254e-20
-1.75109e-20
-1.45331e-20
-9.80158e-21
-1.1364e-20
-1.05219e-20
-1.18267e-20
-8.32489e-21
-6.83386e-21
-2.96877e-21
-5.09018e-21
-7.2622e-21
-1.33373e-20
-1.0172e-20
-8.46542e-21
-9.0738e-21
-9.1533e-21
-4.93111e-21
-2.92941e-21
-7.40477e-21
-3.8502e-21
-1.80594e-21
-7.23058e-21
-5.06392e-21
-3.09736e-21
-5.72973e-21
-4.03297e-21
-4.29527e-21
-2.89879e-21
-1.25756e-21
-2.04012e-21
-1.03151e-20
-1.44977e-20
-1.57442e-20
-1.62128e-20
-1.44205e-20
-1.60377e-20
-1.49074e-20
-1.32999e-20
-1.3526e-20
-1.42617e-20
-1.71088e-20
-9.80553e-21
-1.05136e-20
-1.20026e-20
-1.02111e-20
-7.79246e-21
-1.0493e-20
-7.81708e-21
-7.1814e-21
-7.10391e-21
-7.97795e-21
-6.68202e-21
-9.53975e-21
-9.87467e-21
-7.12398e-21
-6.6173e-21
-6.81692e-21
-4.50336e-21
-5.44501e-21
-3.24895e-21
-4.09576e-21
-5.23529e-21
-6.91317e-21
-7.61186e-21
-5.39481e-21
-4.32964e-21
-3.56193e-21
-3.67113e-21
-1.16e-21
-1.58416e-21
-1.30759e-20
-1.87515e-20
-1.53344e-20
-1.20413e-20
-1.72692e-20
-1.70337e-20
-1.53348e-20
-1.26727e-20
-1.33087e-20
-1.38008e-20
-1.36365e-20
-1.07202e-20
-1.26596e-20
-9.83257e-21
-1.3561e-20
-6.96291e-21
-8.82511e-21
-5.33386e-21
-7.52536e-21
-5.6232e-21
-9.52155e-21
-8.00094e-21
-7.32614e-21
-8.7329e-21
-1.01834e-20
-4.33589e-21
-5.55794e-21
-6.42209e-21
-3.12136e-21
-5.38219e-21
-4.12494e-21
-4.95392e-21
-7.59386e-21
-5.17402e-21
-8.27419e-21
-3.97805e-21
-2.87093e-21
-5.33868e-21
-1.43522e-21
-5.65531e-23
-1.15769e-20
-1.57533e-20
-1.79823e-20
-1.22655e-20
-1.37665e-20
-1.93327e-20
-1.60217e-20
-1.06782e-20
-1.24805e-20
-1.54868e-20
-1.19825e-20
-1.18671e-20
-1.43478e-20
-1.05573e-20
-1.08581e-20
-9.22405e-21
-5.91261e-21
-1.03366e-20
-6.34852e-21
-4.21447e-21
-9.12272e-21
-9.33884e-21
-9.48135e-21
-9.73188e-21
-1.01329e-20
-6.42123e-21
-5.79505e-21
-9.43293e-22
-3.58135e-21
-4.41828e-21
-4.51887e-21
-6.36213e-21
-4.3811e-21
-4.17436e-21
-6.46024e-21
-6.41748e-21
-3.16154e-21
-2.81648e-21
-1.57274e-21
-6.36451e-22
-1.29537e-20
-1.30413e-20
-1.35396e-20
-1.40174e-20
-1.50649e-20
-1.52046e-20
-1.57653e-20
-1.3689e-20
-1.2156e-20
-1.28989e-20
-1.20482e-20
-1.0507e-20
-1.27829e-20
-1.29865e-20
-1.09766e-20
-1.01572e-20
-5.44426e-21
-7.394e-21
-5.08878e-21
-7.14093e-21
-7.89315e-21
-7.14625e-21
-1.04861e-20
-1.36873e-20
-9.85867e-21
-6.02491e-21
-3.46681e-21
-4.49289e-21
-5.75218e-21
-3.25058e-21
-4.13946e-21
-4.38402e-21
-2.54725e-21
-3.28157e-21
-4.66746e-21
-6.42131e-21
-2.29864e-21
-2.67749e-21
-2.55953e-21
-2.34102e-21
-1.66996e-20
-1.38386e-20
-1.18004e-20
-1.38737e-20
-1.69802e-20
-1.67361e-20
-1.45032e-20
-1.33973e-20
-1.44439e-20
-1.24178e-20
-9.60208e-21
-1.15923e-20
-1.45735e-20
-1.17071e-20
-8.88842e-21
-9.61247e-21
-6.06737e-21
-4.9122e-21
-3.55186e-21
-6.67396e-21
-6.90751e-21
-9.44562e-21
-1.57316e-20
-1.06534e-20
-8.34578e-21
-8.48912e-21
-3.88268e-21
-2.35032e-21
-2.69152e-21
-6.17278e-21
-5.15806e-21
-7.73229e-21
3.47884e-22
-2.21298e-21
-5.5896e-21
-1.96749e-21
-1.70077e-21
-1.58711e-21
-2.90972e-21
-3.12089e-21
-1.0568e-20
-1.06223e-20
-1.33385e-20
-1.21435e-20
-1.86766e-20
-1.56267e-20
-1.39106e-20
-1.41299e-20
-1.40442e-20
-1.37273e-20
-1.36622e-20
-9.85652e-21
-1.11125e-20
-9.33907e-21
-7.11048e-21
-1.08685e-20
-7.3069e-21
-5.86856e-21
-4.16489e-21
-1.94408e-21
-7.70653e-21
-1.27523e-20
-1.18791e-20
-1.05153e-20
-1.09122e-20
-9.29694e-21
-2.03406e-22
-2.09388e-21
-5.61972e-21
-5.10997e-21
-4.71879e-21
-6.15625e-21
-7.86279e-22
-3.80668e-22
-2.8515e-21
-2.17825e-21
-1.84337e-21
-4.85031e-21
-2.12793e-21
-1.02797e-21
-1.17975e-20
-1.2239e-20
-1.3225e-20
-1.47568e-20
-1.60191e-20
-1.11461e-20
-1.33366e-20
-1.25356e-20
-1.39501e-20
-1.18737e-20
-1.22922e-20
-1.40557e-20
-9.97056e-21
-7.8652e-21
-8.23143e-21
-1.0944e-20
-8.41894e-21
-5.25435e-21
-5.35953e-21
-5.36446e-21
-5.03293e-21
-7.9616e-21
-1.22657e-20
-1.11396e-20
-8.07469e-21
-7.7694e-21
-4.51796e-21
-3.53451e-21
-3.54722e-21
-5.95632e-21
-4.89272e-21
-4.46089e-21
-8.21712e-22
8.33426e-23
-1.01727e-22
-2.81154e-21
-1.10936e-21
1.09116e-21
-4.72415e-21
-2.58548e-21
-1.29457e-20
-1.07228e-20
-1.07816e-20
-1.1198e-20
-1.46884e-20
-1.48832e-20
-1.3896e-20
-1.60282e-20
-1.43273e-20
-1.12116e-20
-6.30534e-21
-1.19796e-20
-6.16261e-21
-6.55233e-21
-9.23254e-21
-1.10378e-20
-1.11538e-20
-5.74299e-21
-5.77891e-21
-7.01108e-21
-3.36716e-21
-8.18967e-21
-1.03058e-20
-9.10844e-21
-1.00423e-20
-6.81122e-21
-6.00426e-21
-9.28282e-21
-3.37434e-21
-4.45048e-21
-5.62145e-21
-3.71514e-21
-2.94019e-21
-1.86144e-21
2.62238e-22
6.40941e-22
-2.35227e-21
-1.00687e-22
5.22211e-22
-1.06021e-21
-7.86004e-21
-1.0559e-20
-1.30017e-20
-1.09308e-20
-1.2214e-20
-1.4184e-20
-1.14125e-20
-1.26347e-20
-1.27338e-20
-1.19877e-20
-1.0227e-20
-6.8107e-21
-8.62403e-21
-8.47551e-21
-9.06121e-21
-8.71777e-21
-7.57894e-21
-5.5042e-21
-6.08504e-21
-6.60507e-21
-3.68423e-21
-6.95007e-21
-1.02904e-20
-1.14561e-20
-9.24862e-21
-7.07565e-21
-4.18068e-21
-5.03408e-21
-6.19574e-21
-2.59587e-21
-5.11722e-21
-4.53386e-21
-2.93258e-21
-2.34951e-21
-3.18433e-21
-6.50615e-22
7.96511e-22
4.81132e-22
8.40581e-22
-1.57704e-21
-6.2776e-21
-9.08978e-21
-1.18575e-20
-1.35398e-20
-1.01944e-20
-1.19917e-20
-1.24083e-20
-1.06192e-20
-8.82841e-21
-1.12728e-20
-1.01309e-20
-7.57868e-21
-1.0087e-20
-7.23477e-21
-8.56098e-21
-8.88498e-21
-6.35999e-21
-1.19037e-21
-3.08603e-21
-9.49867e-21
-3.3458e-21
-9.83964e-21
-1.17313e-20
-1.00789e-20
-8.35335e-21
-8.5434e-21
-8.15405e-21
-2.8951e-21
-3.91984e-21
-1.51611e-21
-4.75709e-21
-4.34052e-21
-5.20581e-21
-2.25191e-21
-9.82666e-22
-6.16419e-22
7.16621e-22
-1.44095e-21
-1.23937e-21
-1.34476e-21
-4.18834e-21
-9.10245e-21
-1.2001e-20
-8.39513e-21
-8.86413e-21
-1.19769e-20
-1.03785e-20
-1.0658e-20
-9.79005e-21
-1.08403e-20
-6.88662e-21
-9.56552e-21
-8.88268e-21
-9.1189e-21
-7.2225e-21
-4.15565e-21
-3.87665e-21
-4.77258e-21
-3.82048e-21
-9.85983e-21
-6.7044e-21
-8.69536e-21
-1.23094e-20
-1.29944e-20
-4.7547e-21
-5.25303e-21
-6.70297e-21
-5.99119e-21
-2.42549e-21
-2.78845e-21
-5.23741e-21
-4.82951e-21
-6.45021e-21
-2.22363e-21
-1.45155e-21
-2.99277e-21
2.31021e-21
3.43502e-21
-1.35099e-21
-2.06417e-21
-5.77265e-21
-8.97034e-21
-1.03081e-20
-6.83963e-21
-5.89388e-21
-1.35675e-20
-1.02488e-20
-7.99143e-21
-1.04236e-20
-9.27589e-21
-7.06318e-21
-8.90469e-21
-7.59872e-21
-7.71696e-21
-8.15118e-21
-8.36292e-21
-1.11608e-21
-1.66375e-21
-5.40043e-21
-5.9562e-21
-3.22339e-21
-7.49176e-21
-1.0993e-20
-1.15961e-20
-7.61848e-21
-5.34104e-21
-5.54068e-21
-2.37209e-21
-4.35877e-21
-4.51006e-21
-3.467e-21
-3.83217e-21
-4.4133e-21
-1.45769e-21
-7.0638e-22
-3.74583e-21
2.57221e-23
1.68211e-21
-1.39512e-21
-2.10603e-23
-6.43211e-21
-5.37862e-21
-6.79042e-21
-3.69133e-21
-4.42759e-21
-2.7948e-21
-8.44839e-21
-5.2855e-21
-6.98356e-21
-6.29117e-21
-2.72729e-21
-3.04558e-21
-6.21229e-21
-5.61102e-21
-2.71286e-21
-5.26815e-21
-1.26592e-21
1.11415e-21
-5.70949e-21
-1.42165e-21
-4.23577e-21
-9.61772e-21
-7.32893e-21
-5.41496e-21
-2.61915e-21
-3.64736e-21
-3.7616e-21
-2.3187e-21
-1.91596e-21
-1.44878e-22
-1.34598e-21
-1.97774e-21
-3.64353e-21
-2.11469e-21
8.49832e-22
-2.30672e-21
-1.13354e-21
-1.54579e-21
-3.26107e-21
1.22022e-22
-6.34196e-21
-9.90552e-21
-1.51419e-20
-1.05701e-20
-9.34307e-21
-1.17497e-20
-8.86952e-21
-5.63398e-21
-1.25607e-20
-1.09696e-20
-6.64272e-21
-1.1522e-20
-1.10463e-20
-6.8832e-21
-8.61104e-21
-1.07627e-20
-7.38032e-21
-1.47739e-21
-2.88558e-21
-5.6559e-21
-4.54514e-21
-6.31392e-21
-6.92996e-21
-5.35291e-21
-2.60929e-21
-1.65112e-21
-2.13552e-21
-4.98154e-21
-5.45005e-21
-3.22058e-21
-3.46203e-21
-2.60104e-21
-4.70645e-21
-4.7028e-21
-5.35337e-21
-3.3569e-21
-2.91547e-22
-2.87725e-21
-1.0052e-21
-4.33989e-22
-1.18416e-20
-1.51295e-20
-1.9146e-20
-1.47845e-20
-1.35253e-20
-1.72271e-20
-1.5216e-20
-1.14903e-20
-1.10536e-20
-1.80832e-20
-1.55374e-20
-1.36928e-20
-1.29792e-20
-1.09939e-20
-1.25114e-20
-1.16943e-20
-1.01677e-20
-8.16278e-21
-8.76925e-21
-6.94725e-21
-7.00546e-21
-8.28976e-21
-9.75577e-21
-1.03949e-20
-5.30029e-21
-4.36001e-21
-5.76933e-21
-5.58872e-21
-7.38816e-21
-3.73125e-21
-4.16526e-21
-3.05192e-21
-5.24001e-21
-5.82142e-21
-7.77772e-21
-2.61768e-21
5.23347e-22
1.63011e-21
4.7666e-22
5.44386e-22
-1.29172e-20
-1.50351e-20
-1.46438e-20
-1.5665e-20
-1.6587e-20
-2.07828e-20
-1.64014e-20
-1.53477e-20
-1.49819e-20
-1.45533e-20
-1.41872e-20
-1.40082e-20
-1.24122e-20
-1.18785e-20
-1.26452e-20
-1.15082e-20
-1.18028e-20
-9.84957e-21
-7.7902e-21
-6.88042e-21
-7.94621e-21
-6.90013e-21
-7.56574e-21
-9.26764e-21
-8.28232e-21
-5.10969e-21
-6.87608e-21
-9.6797e-21
-3.55242e-21
-7.07245e-21
-8.06439e-21
-3.54907e-21
-4.03669e-21
-5.64933e-21
-4.81858e-21
-3.33721e-21
-1.14696e-22
-1.80989e-23
2.79974e-22
3.69003e-22
-1.66866e-20
-1.66447e-20
-1.81899e-20
-1.75861e-20
-1.73347e-20
-1.88137e-20
-1.81696e-20
-1.30327e-20
-1.50022e-20
-1.56752e-20
-1.59242e-20
-1.74971e-20
-1.12773e-20
-1.26087e-20
-1.44667e-20
-1.29438e-20
-1.11908e-20
-1.07821e-20
-9.8422e-21
-4.75515e-21
-8.63022e-21
-1.08201e-20
-1.01654e-20
-9.19109e-21
-7.28348e-21
-5.8598e-21
-7.41814e-21
-6.69296e-21
-6.12689e-21
-8.87161e-21
-7.03828e-21
-1.7812e-21
-7.41356e-21
-5.23297e-21
-4.72287e-21
-2.57079e-21
-5.10523e-22
-9.28617e-22
-4.59127e-22
-1.71626e-22
-1.83073e-20
-1.69538e-20
-1.60667e-20
-1.91281e-20
-2.11679e-20
-2.1185e-20
-1.75314e-20
-1.37141e-20
-1.35669e-20
-1.65859e-20
-1.56209e-20
-1.43284e-20
-1.20379e-20
-1.44881e-20
-1.82926e-20
-1.53311e-20
-1.09325e-20
-1.08634e-20
-8.5279e-21
-6.16289e-21
-9.67612e-21
-1.08854e-20
-1.14777e-20
-1.01009e-20
-9.05797e-21
-4.99094e-21
-6.94152e-21
-7.59163e-21
-7.282e-21
-6.30037e-21
-6.02851e-21
-5.99994e-21
-4.46258e-21
-3.07913e-21
-3.89241e-21
-2.96299e-21
-5.44052e-22
-1.04051e-21
1.26136e-22
-8.79224e-22
-1.66248e-20
-1.79903e-20
-1.77024e-20
-1.95433e-20
-2.17104e-20
-2.25906e-20
-1.67781e-20
-1.97421e-20
-1.7288e-20
-1.56857e-20
-1.40405e-20
-1.68275e-20
-1.38606e-20
-1.26711e-20
-1.69864e-20
-1.45618e-20
-1.25761e-20
-8.62232e-21
-8.76578e-21
-7.2652e-21
-9.94314e-21
-1.25283e-20
-1.13895e-20
-1.08733e-20
-8.4477e-21
-6.31554e-21
-6.62063e-21
-7.49186e-21
-8.15656e-21
-6.98267e-21
-5.97777e-21
-4.24486e-21
-2.61382e-21
-2.45742e-21
-4.21259e-21
-3.39905e-21
-3.27548e-22
9.2568e-22
2.60407e-21
-1.87557e-21
-2.0202e-20
-2.25666e-20
-1.83871e-20
-2.04248e-20
-2.27368e-20
-2.13777e-20
-1.83961e-20
-1.84501e-20
-2.0645e-20
-1.93134e-20
-1.40387e-20
-1.51977e-20
-1.42391e-20
-1.53301e-20
-1.58135e-20
-1.472e-20
-9.84645e-21
-7.88656e-21
-8.60568e-21
-9.00464e-21
-1.11494e-20
-1.19504e-20
-1.2333e-20
-1.35915e-20
-8.46411e-21
-7.60771e-21
-7.82435e-21
-7.07699e-21
-6.11811e-21
-6.224e-21
-6.86965e-21
-4.70909e-21
-8.68755e-22
1.62293e-22
-4.17369e-21
-4.90049e-21
-7.65691e-22
-1.01623e-21
-5.26172e-23
-2.2247e-21
-1.77255e-20
-2.01616e-20
-1.85901e-20
-2.00586e-20
-2.35591e-20
-2.36848e-20
-1.74664e-20
-2.02595e-20
-2.16825e-20
-1.79266e-20
-1.61568e-20
-1.64293e-20
-1.43819e-20
-1.35591e-20
-1.627e-20
-1.67301e-20
-1.13501e-20
-7.77918e-21
-3.56487e-21
-5.27396e-21
-1.03865e-20
-1.41597e-20
-1.28424e-20
-1.22753e-20
-1.01256e-20
-7.60025e-21
-7.13001e-21
-9.03879e-21
-4.31796e-21
-4.99517e-21
-7.01317e-21
-4.3604e-21
-4.6998e-21
-4.20764e-21
-3.31546e-21
-3.28758e-22
1.1251e-21
-4.99671e-22
-1.97367e-21
-5.59654e-22
-1.97454e-20
-2.34309e-20
-2.24511e-20
-2.25535e-20
-2.1669e-20
-2.10044e-20
-1.9717e-20
-2.02973e-20
-2.04109e-20
-1.93202e-20
-1.60835e-20
-1.87532e-20
-1.40958e-20
-1.39395e-20
-1.55408e-20
-1.46918e-20
-1.2866e-20
-7.58827e-21
-8.96353e-21
-1.0206e-20
-7.73262e-21
-1.22966e-20
-1.26593e-20
-1.4173e-20
-8.6542e-21
-8.00802e-21
-7.99345e-21
-8.64815e-21
-4.1092e-21
-5.3861e-21
-6.88573e-21
-4.93493e-21
-3.55759e-21
-2.91398e-21
-2.68236e-21
-1.52981e-21
-3.78132e-22
-5.36541e-23
-1.89936e-21
-1.43326e-21
-1.73211e-20
-1.98366e-20
-2.00677e-20
-2.36837e-20
-2.41299e-20
-2.15148e-20
-2.4113e-20
-2.0705e-20
-1.77608e-20
-1.90719e-20
-1.82596e-20
-1.5952e-20
-1.52491e-20
-1.52857e-20
-1.70252e-20
-1.46971e-20
-1.13e-20
-8.50583e-21
-8.49759e-21
-7.06961e-21
-1.03947e-20
-1.47803e-20
-1.46794e-20
-1.35122e-20
-8.95329e-21
-7.3984e-21
-5.12108e-21
-7.21851e-21
-7.39518e-21
-6.80109e-21
-4.5236e-21
-4.48429e-21
-4.99887e-21
-3.73413e-21
-3.26127e-21
-1.8367e-21
-2.85872e-23
1.498e-22
-2.17377e-21
-9.73673e-22
-2.32945e-20
-2.43659e-20
-2.16385e-20
-2.15472e-20
-2.12348e-20
-2.18258e-20
-2.23632e-20
-2.36785e-20
-2.27577e-20
-2.01945e-20
-1.62445e-20
-1.3919e-20
-1.46337e-20
-1.3054e-20
-1.6139e-20
-1.58217e-20
-1.20956e-20
-8.37588e-21
-8.2731e-21
-9.98755e-21
-1.26629e-20
-1.29636e-20
-1.45341e-20
-1.56319e-20
-8.91551e-21
-4.7878e-21
-6.73966e-21
-1.05137e-20
-6.79147e-21
-6.17255e-21
-4.70192e-21
-4.13345e-21
-2.41599e-21
-4.65682e-21
-3.21042e-21
-1.8136e-21
-2.25696e-21
-1.71471e-21
-2.59453e-21
-2.73246e-21
-2.26209e-20
-2.50428e-20
-2.04703e-20
-2.06945e-20
-2.27017e-20
-2.28563e-20
-2.34069e-20
-2.28864e-20
-1.92816e-20
-2.23594e-20
-1.7364e-20
-1.35259e-20
-1.59422e-20
-1.48261e-20
-1.45802e-20
-1.57335e-20
-1.51485e-20
-6.9973e-21
-7.05492e-21
-9.25635e-21
-1.36622e-20
-1.49336e-20
-1.33804e-20
-1.30839e-20
-9.92791e-21
-9.63829e-21
-8.25573e-21
-7.61778e-21
-4.25703e-21
-7.92889e-21
-5.94538e-21
-4.89501e-21
-2.71036e-21
-4.26635e-21
-3.6054e-21
-3.24469e-21
1.92489e-22
-1.96093e-21
-2.90281e-21
7.50157e-22
-2.50597e-20
-2.34417e-20
-2.14475e-20
-2.31342e-20
-2.31441e-20
-2.4785e-20
-2.16595e-20
-2.12127e-20
-2.05251e-20
-2.0757e-20
-1.73343e-20
-1.64173e-20
-1.64283e-20
-1.51067e-20
-1.52613e-20
-1.39012e-20
-1.13703e-20
-7.1762e-21
-9.94027e-21
-1.3137e-20
-9.65754e-21
-1.28204e-20
-1.42562e-20
-1.43806e-20
-1.08212e-20
-7.79886e-21
-7.81112e-21
-6.60724e-21
-6.25993e-21
-5.66152e-21
-6.61998e-21
-6.85084e-21
-3.45055e-21
-3.73728e-21
-8.50988e-21
-9.38056e-22
9.11266e-22
-4.43799e-21
-2.95725e-21
1.52467e-23
-2.61896e-20
-2.4583e-20
-2.23464e-20
-2.3577e-20
-2.28622e-20
-2.25868e-20
-2.33496e-20
-1.99094e-20
-2.08379e-20
-2.29698e-20
-1.89955e-20
-1.64982e-20
-1.72232e-20
-1.31323e-20
-1.50438e-20
-1.44388e-20
-1.60467e-20
-9.47074e-21
-6.40846e-21
-8.24856e-21
-1.31286e-20
-1.40168e-20
-1.28715e-20
-1.61831e-20
-9.52813e-21
-7.33421e-21
-6.43531e-21
-7.24639e-21
-7.70462e-21
-5.2056e-21
-6.33931e-21
-5.67294e-21
-3.50963e-21
-5.58428e-21
-7.04728e-21
-2.61343e-21
-1.05799e-24
7.23993e-22
-1.74475e-21
-1.15295e-21
-2.89617e-20
-2.57245e-20
-2.18944e-20
-2.17535e-20
-2.33571e-20
-2.12191e-20
-2.2757e-20
-2.03619e-20
-2.20103e-20
-2.06879e-20
-1.87916e-20
-1.7921e-20
-1.87545e-20
-1.54413e-20
-1.48823e-20
-1.2454e-20
-1.24637e-20
-1.00967e-20
-9.26335e-21
-1.11463e-20
-1.17076e-20
-1.42184e-20
-1.49735e-20
-1.29438e-20
-9.88198e-21
-9.0528e-21
-6.63478e-21
-6.73194e-21
-7.05335e-21
-3.87332e-21
-5.82486e-21
-5.12851e-21
-4.69074e-21
-3.05503e-21
-6.04641e-21
-4.84521e-21
1.49303e-21
-3.51819e-22
-1.95086e-21
-1.23338e-21
-2.53202e-20
-2.60487e-20
-2.52117e-20
-2.35074e-20
-2.27448e-20
-2.18132e-20
-2.13994e-20
-2.09588e-20
-2.08951e-20
-1.86552e-20
-1.96663e-20
-1.96964e-20
-1.98481e-20
-1.6146e-20
-1.59935e-20
-1.17944e-20
-1.29139e-20
-1.17136e-20
-8.43812e-21
-9.30759e-21
-1.3773e-20
-1.59582e-20
-1.49085e-20
-1.04343e-20
-8.71465e-21
-8.90326e-21
-6.83836e-21
-6.76892e-21
-6.92301e-21
-5.3416e-21
-4.48193e-21
-4.97598e-21
-4.62716e-21
-4.43239e-21
-5.60693e-21
-3.29334e-21
-5.29772e-22
-1.42715e-21
-1.2477e-21
-1.00175e-21
-2.20505e-20
-2.31044e-20
-2.42456e-20
-2.10758e-20
-2.54567e-20
-2.25281e-20
-2.1864e-20
-2.28898e-20
-2.26487e-20
-1.7943e-20
-1.83357e-20
-2.0761e-20
-1.88479e-20
-1.79889e-20
-1.65862e-20
-1.28718e-20
-1.26155e-20
-9.1577e-21
-1.27731e-20
-1.13393e-20
-1.44154e-20
-1.19973e-20
-1.12167e-20
-8.9742e-21
-9.31175e-21
-8.07776e-21