/*--------------------------------*- C++ -*----------------------------------*\
| =========                 |                                                 |
| \\      /  F ield         | OpenFOAM: The Open Source CFD Toolbox           |
|  \\    /   O peration     | Version:  v2012                                 |
|   \\  /    A nd           | Website:  www.openfoam.com                      |
|    \\/     M anipulation  |                                                 |
\*---------------------------------------------------------------------------*/
FoamFile
{
    version     2.0;
    format      ascii;
    class       surfaceScalarField;
    location    "46";
    object      phi;
}
// * * * * * * * * * * * * * * * * * * * * * * * * * * * * * * * * * * * * * //

dimensions      [0 3 -1 0 0 0 0];
oriented        oriented;


internalField   nonuniform List<scalar> 
187200
(
1.875e-06
2.12509e-22
1.81556e-22
1.875e-06
3.6813e-22
3.15538e-22
1.875e-06
4.31074e-22
5.53139e-22
1.875e-06
3.49696e-22
3.96497e-22
1.875e-06
3.74376e-22
2.67176e-22
1.875e-06
5.04261e-22
4.07414e-22
1.875e-06
4.09328e-22
3.72147e-22
1.875e-06
3.37127e-22
3.05796e-22
1.875e-06
2.6321e-22
4.23797e-22
1.875e-06
4.46869e-22
3.79739e-22
1.875e-06
4.47102e-22
3.13947e-22
1.875e-06
3.45479e-22
3.57054e-22
1.875e-06
2.86057e-22
3.38552e-22
1.875e-06
2.45647e-22
2.13538e-22
1.875e-06
2.72912e-22
3.19855e-22
1.875e-06
1.94285e-22
3.24433e-22
1.875e-06
2.92355e-22
2.9284e-22
1.875e-06
1.69457e-22
1.6701e-22
1.875e-06
1.62016e-22
1.23019e-22
1.875e-06
1.1141e-22
1.91427e-22
1.875e-06
4.78638e-23
2.15671e-22
1.875e-06
1.79451e-22
2.64653e-22
1.875e-06
2.87347e-22
2.40111e-22
1.875e-06
3.59785e-22
1.86454e-22
1.875e-06
2.5873e-22
1.31501e-22
1.875e-06
1.85838e-22
1.2563e-22
1.875e-06
2.10036e-22
1.66375e-22
1.875e-06
1.256e-22
1.23332e-22
1.875e-06
1.45553e-22
1.57951e-22
1.875e-06
1.21792e-22
1.27564e-22
1.875e-06
3.11856e-23
1.56411e-22
1.875e-06
5.27591e-23
1.17519e-22
1.875e-06
1.7553e-22
1.2037e-22
1.875e-06
9.156e-23
1.73604e-22
1.875e-06
2.45494e-23
1.65182e-22
1.875e-06
-5.6831e-23
2.43984e-24
1.875e-06
-3.84231e-23
3.73933e-23
1.875e-06
-3.25065e-23
1.12379e-22
1.875e-06
-1.89516e-23
1.06367e-22
-2.97568e-23
7.09683e-23
1.875e-06
6.18071e-23
3.29516e-22
1.875e-06
3.56586e-23
5.68809e-22
1.875e-06
2.91988e-22
7.53456e-22
1.875e-06
3.44346e-22
7.47238e-22
1.875e-06
2.87595e-22
6.2999e-22
1.875e-06
3.83132e-22
7.52753e-22
1.875e-06
4.51858e-22
8.27823e-22
1.875e-06
4.02525e-22
7.64578e-22
1.875e-06
4.0022e-22
8.06756e-22
1.875e-06
2.46606e-22
8.08771e-22
1.875e-06
2.51499e-22
7.11008e-22
1.875e-06
2.93266e-22
6.22463e-22
1.875e-06
2.8486e-22
6.6563e-22
1.875e-06
2.27182e-22
6.33172e-22
1.875e-06
1.54808e-22
6.47415e-22
1.875e-06
1.33227e-22
6.39736e-22
1.875e-06
3.15759e-22
5.5569e-22
1.875e-06
3.73099e-22
6.37971e-22
1.875e-06
1.78781e-22
5.49438e-22
1.875e-06
9.26943e-23
4.53318e-22
1.875e-06
2.17542e-22
5.84044e-22
1.875e-06
2.31753e-22
4.9574e-22
1.875e-06
2.66487e-22
3.67795e-22
1.875e-06
1.63117e-22
3.32161e-22
1.875e-06
1.61212e-22
2.67961e-22
1.875e-06
2.0513e-22
3.27439e-22
1.875e-06
1.76303e-22
3.50178e-22
1.875e-06
1.39527e-22
3.15702e-22
1.875e-06
9.97649e-23
3.63096e-22
1.875e-06
1.13771e-22
2.84223e-22
1.875e-06
1.19631e-22
3.17541e-22
1.875e-06
7.53466e-23
1.98356e-22
1.875e-06
-2.52886e-23
6.91748e-23
1.875e-06
1.35115e-23
2.43189e-22
1.875e-06
3.63897e-23
2.83614e-22
1.875e-06
4.43965e-24
1.20967e-22
1.875e-06
-6.95639e-24
4.24915e-23
1.875e-06
-3.46291e-23
2.82762e-23
1.875e-06
-7.63429e-23
3.69439e-23
-1.05215e-22
1.65297e-23
1.875e-06
1.9518e-22
4.38302e-22
1.875e-06
2.13033e-22
7.62395e-22
1.875e-06
1.03287e-22
7.11508e-22
1.875e-06
2.98476e-22
8.37559e-22
1.875e-06
3.22199e-22
8.93684e-22
1.875e-06
3.75061e-22
9.60164e-22
1.875e-06
3.99569e-22
9.53379e-22
1.875e-06
2.64605e-22
1.03697e-21
1.875e-06
3.02844e-22
1.01647e-21
1.875e-06
2.90767e-22
8.99821e-22
1.875e-06
2.76356e-22
8.56755e-22
1.875e-06
2.45683e-22
7.41582e-22
1.875e-06
2.40052e-22
7.30926e-22
1.875e-06
2.17556e-22
7.42399e-22
1.875e-06
2.66585e-22
8.08163e-22
1.875e-06
3.32866e-22
8.04598e-22
1.875e-06
1.23632e-22
6.20072e-22
1.875e-06
2.5589e-22
6.75991e-22
1.875e-06
1.80696e-22
6.25325e-22
1.875e-06
1.46292e-22
6.32151e-22
1.875e-06
1.82873e-22
6.44868e-22
1.875e-06
1.76675e-22
4.95323e-22
1.875e-06
1.96093e-22
2.78828e-22
1.875e-06
1.86896e-22
3.65878e-22
1.875e-06
2.80181e-22
4.5343e-22
1.875e-06
8.37912e-23
3.97432e-22
1.875e-06
1.33684e-22
4.36814e-22
1.875e-06
6.54328e-23
4.65992e-22
1.875e-06
1.35786e-22
3.51095e-22
1.875e-06
1.69618e-22
4.17581e-22
1.875e-06
1.3515e-22
4.39446e-22
1.875e-06
8.43583e-23
2.86501e-22
1.875e-06
-2.52957e-23
1.61554e-22
1.875e-06
-2.45522e-23
2.48667e-22
1.875e-06
1.76802e-23
2.12363e-22
1.875e-06
2.66087e-23
1.43679e-22
1.875e-06
5.07428e-23
4.85832e-23
1.875e-06
1.7957e-23
8.73066e-23
1.875e-06
5.17886e-24
5.16514e-23
-4.6375e-23
7.54363e-23
1.875e-06
2.70108e-22
4.47812e-22
1.875e-06
1.73859e-22
8.14327e-22
1.875e-06
9.69292e-23
9.41461e-22
1.875e-06
1.49604e-22
9.15593e-22
1.875e-06
2.25576e-22
9.64211e-22
1.875e-06
2.18848e-22
9.29566e-22
1.875e-06
1.97598e-22
9.68551e-22
1.875e-06
3.30142e-22
1.05394e-21
1.875e-06
2.65612e-22
1.0931e-21
1.875e-06
3.38755e-22
9.8957e-22
1.875e-06
3.30491e-22
9.5828e-22
1.875e-06
1.15515e-22
8.85033e-22
1.875e-06
1.61277e-22
7.6135e-22
1.875e-06
1.76185e-22
8.15643e-22
1.875e-06
2.96854e-22
8.80917e-22
1.875e-06
4.14582e-22
8.43868e-22
1.875e-06
2.27624e-22
7.00223e-22
1.875e-06
8.77314e-23
6.67374e-22
1.875e-06
1.96192e-22
7.94437e-22
1.875e-06
1.88159e-22
6.52491e-22
1.875e-06
1.55222e-22
6.15139e-22
1.875e-06
1.61763e-22
5.99081e-22
1.875e-06
1.06178e-22
3.94891e-22
1.875e-06
2.04555e-22
4.06431e-22
1.875e-06
1.08941e-22
3.78132e-22
1.875e-06
1.5301e-22
4.99791e-22
1.875e-06
7.04101e-23
4.43073e-22
1.875e-06
1.36136e-22
4.02675e-22
1.875e-06
1.03971e-22
3.52014e-22
1.875e-06
-1.1043e-23
3.73386e-22
1.875e-06
3.33514e-23
4.29244e-22
1.875e-06
1.17513e-23
2.67599e-22
1.875e-06
-3.0995e-23
3.34532e-22
1.875e-06
-6.6252e-23
2.65463e-22
1.875e-06
3.1189e-23
1.67066e-22
1.875e-06
6.9491e-23
8.69812e-23
1.875e-06
7.19507e-24
2.65012e-23
1.875e-06
7.25837e-23
8.69731e-23
1.875e-06
-3.9038e-23
3.44238e-23
-6.0762e-23
5.448e-23
1.875e-06
-2.48293e-23
2.83108e-22
1.875e-06
1.5487e-22
8.22438e-22
1.875e-06
1.18528e-22
9.46052e-22
1.875e-06
1.40343e-22
1.0307e-21
1.875e-06
1.5266e-22
1.11835e-21
1.875e-06
1.02924e-22
1.04176e-21
1.875e-06
9.48196e-23
1.07342e-21
1.875e-06
3.27221e-22
1.08082e-21
1.875e-06
3.91834e-22
1.12663e-21
1.875e-06
2.70425e-22
9.9403e-22
1.875e-06
1.86006e-22
9.05406e-22
1.875e-06
2.43531e-22
9.10153e-22
1.875e-06
2.47526e-22
8.6255e-22
1.875e-06
2.01853e-22
9.34248e-22
1.875e-06
1.71594e-22
9.46913e-22
1.875e-06
1.59378e-22
7.41188e-22
1.875e-06
1.05326e-22
7.19526e-22
1.875e-06
3.81051e-23
7.51614e-22
1.875e-06
7.91027e-23
7.41613e-22
1.875e-06
2.30715e-22
6.92323e-22
1.875e-06
1.73998e-22
6.96756e-22
1.875e-06
2.37277e-22
6.42943e-22
1.875e-06
1.76364e-22
5.40705e-22
1.875e-06
1.1775e-22
4.1352e-22
1.875e-06
1.95443e-22
5.09923e-22
1.875e-06
9.61702e-23
4.75186e-22
1.875e-06
1.00673e-22
4.39753e-22
1.875e-06
3.94225e-24
3.71386e-22
1.875e-06
1.11371e-23
3.4922e-22
1.875e-06
3.14161e-23
3.75734e-22
1.875e-06
1.02068e-22
3.69194e-22
1.875e-06
1.24311e-22
4.19208e-22
1.875e-06
-3.5448e-24
3.05036e-22
1.875e-06
-2.90995e-23
2.49146e-22
1.875e-06
-1.74412e-23
1.13398e-22
1.875e-06
-7.56443e-23
2.32056e-23
1.875e-06
3.14157e-23
1.61941e-23
1.875e-06
-1.25038e-23
5.91718e-24
1.875e-06
8.73922e-24
1.78177e-23
2.91644e-23
1.19625e-22
1.875e-06
7.76973e-23
3.77952e-22
1.875e-06
1.87889e-22
7.98528e-22
1.875e-06
9.66528e-23
1.00933e-21
1.875e-06
3.18655e-23
1.09382e-21
1.875e-06
1.56304e-22
1.23597e-21
1.875e-06
1.7036e-22
1.22881e-21
1.875e-06
1.5174e-22
1.22068e-21
1.875e-06
2.25526e-22
1.17307e-21
1.875e-06
3.57604e-22
1.10685e-21
1.875e-06
2.44825e-22
9.89488e-22
1.875e-06
2.30145e-22
9.38037e-22
1.875e-06
2.45924e-22
1.04898e-21
1.875e-06
2.14938e-22
8.95441e-22
1.875e-06
2.33493e-22
8.91e-22
1.875e-06
1.13054e-22
9.42712e-22
1.875e-06
8.4184e-23
8.13159e-22
1.875e-06
1.1225e-22
8.3673e-22
1.875e-06
2.52928e-23
7.38279e-22
1.875e-06
8.04089e-23
7.56738e-22
1.875e-06
1.41256e-22
6.63169e-22
1.875e-06
2.16878e-22
7.248e-22
1.875e-06
1.80027e-22
6.00526e-22
1.875e-06
2.13692e-22
5.64133e-22
1.875e-06
1.96869e-22
4.95658e-22
1.875e-06
-1.05079e-24
4.12172e-22
1.875e-06
1.51186e-22
4.98872e-22
1.875e-06
1.89543e-22
4.80813e-22
1.875e-06
3.25614e-23
4.39761e-22
1.875e-06
-4.02693e-23
3.62377e-22
1.875e-06
-1.52134e-23
3.78821e-22
1.875e-06
9.99484e-23
3.12978e-22
1.875e-06
1.1336e-22
2.5847e-22
1.875e-06
-3.7229e-23
2.56207e-22
1.875e-06
-4.18015e-24
2.35672e-22
1.875e-06
-8.15567e-24
1.44801e-22
1.875e-06
3.7996e-23
1.24971e-22
1.875e-06
6.42455e-24
-2.26944e-23
1.875e-06
4.37426e-23
-2.82744e-23
1.875e-06
1.29292e-22
-5.37302e-23
1.17216e-22
9.65683e-23
1.875e-06
1.12654e-23
4.41949e-22
1.875e-06
3.69148e-23
8.4937e-22
1.875e-06
1.64508e-22
1.09315e-21
1.875e-06
1.0983e-22
1.20999e-21
1.875e-06
1.23372e-22
1.27728e-21
1.875e-06
1.08493e-22
1.28052e-21
1.875e-06
1.72511e-22
1.2695e-21
1.875e-06
3.55129e-22
1.20847e-21
1.875e-06
2.89786e-22
1.20684e-21
1.875e-06
2.27953e-22
1.18381e-21
1.875e-06
1.31122e-22
9.76272e-22
1.875e-06
1.0123e-22
9.50321e-22
1.875e-06
1.3502e-22
9.14652e-22
1.875e-06
1.97323e-22
9.77224e-22
1.875e-06
1.52281e-22
9.60219e-22
1.875e-06
1.26504e-22
8.43028e-22
1.875e-06
1.0561e-22
8.05656e-22
1.875e-06
1.47829e-22
8.1924e-22
1.875e-06
1.81149e-22
6.73556e-22
1.875e-06
9.66236e-23
6.85337e-22
1.875e-06
1.02338e-22
7.28831e-22
1.875e-06
7.42932e-23
5.97292e-22
1.875e-06
7.2556e-23
5.57708e-22
1.875e-06
3.76155e-23
5.86012e-22
1.875e-06
1.123e-22
5.67694e-22
1.875e-06
1.62873e-22
5.29321e-22
1.875e-06
8.05235e-23
4.39946e-22
1.875e-06
1.43262e-22
4.43408e-22
1.875e-06
3.64257e-23
3.32459e-22
1.875e-06
5.86622e-23
3.70581e-22
1.875e-06
-1.49458e-23
2.78196e-22
1.875e-06
-1.94665e-23
1.85854e-22
1.875e-06
6.68967e-23
2.20276e-22
1.875e-06
1.02222e-22
1.64477e-22
1.875e-06
8.85634e-23
1.54131e-22
1.875e-06
2.24129e-23
1.1224e-22
1.875e-06
-3.32804e-23
-4.39147e-23
1.875e-06
5.18255e-23
-2.9727e-23
1.875e-06
-1.94188e-23
-8.06872e-23
6.79643e-24
1.8706e-23
1.875e-06
1.26894e-22
3.74126e-22
1.875e-06
8.03998e-23
8.2721e-22
1.875e-06
8.42657e-23
1.04237e-21
1.875e-06
1.37519e-22
1.2353e-21
1.875e-06
1.05131e-22
1.35431e-21
1.875e-06
2.32042e-22
1.40519e-21
1.875e-06
2.77528e-22
1.30849e-21
1.875e-06
6.07255e-23
1.18699e-21
1.875e-06
1.02292e-22
1.21479e-21
1.875e-06
2.44516e-22
1.12514e-21
1.875e-06
9.296e-23
1.08322e-21
1.875e-06
9.25703e-23
1.02977e-21
1.875e-06
2.03259e-22
9.30681e-22
1.875e-06
1.26183e-22
8.9918e-22
1.875e-06
1.77382e-22
9.72632e-22
1.875e-06
1.23385e-22
9.27213e-22
1.875e-06
9.09474e-23
8.51904e-22
1.875e-06
6.86929e-23
7.85363e-22
1.875e-06
1.43999e-22
5.53259e-22
1.875e-06
2.45229e-22
5.78441e-22
1.875e-06
6.20945e-23
6.87924e-22
1.875e-06
4.25145e-23
6.71879e-22
1.875e-06
1.16068e-22
6.60412e-22
1.875e-06
1.45314e-22
6.36947e-22
1.875e-06
6.63115e-23
6.41714e-22
1.875e-06
9.68686e-23
5.35196e-22
1.875e-06
1.69914e-22
4.30453e-22
1.875e-06
1.31811e-22
3.96493e-22
1.875e-06
1.22229e-22
2.98742e-22
1.875e-06
8.45214e-23
2.56115e-22
1.875e-06
2.26734e-23
2.96703e-22
1.875e-06
-5.6014e-23
2.44456e-22
1.875e-06
-1.35733e-23
2.99475e-22
1.875e-06
5.03963e-23
2.20891e-22
1.875e-06
9.14644e-23
5.32841e-23
1.875e-06
7.01418e-23
-5.35927e-23
1.875e-06
3.20303e-23
-1.19547e-22
1.875e-06
-7.12661e-23
-8.87647e-23
1.875e-06
-6.9802e-24
-2.10068e-23
-3.95221e-23
-7.72162e-23
1.875e-06
-1.68176e-22
2.80843e-22
1.875e-06
-5.26001e-23
9.21379e-22
1.875e-06
9.1404e-23
1.13833e-21
1.875e-06
5.49141e-23
1.26182e-21
1.875e-06
1.67958e-22
1.30298e-21
1.875e-06
1.96363e-22
1.30331e-21
1.875e-06
1.71127e-22
1.34065e-21
1.875e-06
1.60279e-22
1.34011e-21
1.875e-06
9.27081e-23
1.27463e-21
1.875e-06
1.05144e-22
1.12052e-21
1.875e-06
2.35561e-22
1.13368e-21
1.875e-06
1.12597e-22
1.11419e-21
1.875e-06
3.6377e-23
8.9514e-22
1.875e-06
7.9578e-23
9.00683e-22
1.875e-06
1.66746e-22
9.48393e-22
1.875e-06
1.07919e-22
9.16368e-22
1.875e-06
1.655e-22
9.32665e-22
1.875e-06
2.16036e-22
8.45755e-22
1.875e-06
2.17083e-24
6.92633e-22
1.875e-06
2.46088e-23
6.2425e-22
1.875e-06
2.07648e-22
7.02163e-22
1.875e-06
2.19004e-22
7.1342e-22
1.875e-06
1.08559e-22
6.15207e-22
1.875e-06
1.07242e-22
6.7827e-22
1.875e-06
2.30239e-22
6.64652e-22
1.875e-06
9.1648e-23
5.42336e-22
1.875e-06
-6.28166e-23
3.99185e-22
1.875e-06
-1.53515e-23
3.36059e-22
1.875e-06
9.717e-23
2.47109e-22
1.875e-06
7.98904e-23
2.86286e-22
1.875e-06
-4.58494e-23
3.03296e-22
1.875e-06
-1.02825e-23
2.79107e-22
1.875e-06
7.10956e-23
3.26622e-22
1.875e-06
2.85508e-23
1.6771e-22
1.875e-06
2.81945e-23
-9.95482e-23
1.875e-06
1.07202e-22
-1.39805e-22
1.875e-06
1.34501e-22
-8.8666e-23
1.875e-06
-2.92518e-24
-8.41347e-23
1.875e-06
-4.38801e-23
-9.91754e-23
2.72571e-24
-1.02525e-22
1.875e-06
-3.2571e-23
4.42107e-22
1.875e-06
6.92332e-23
8.50462e-22
1.875e-06
1.30732e-22
1.06563e-21
1.875e-06
2.50191e-22
1.37154e-21
1.875e-06
8.04349e-23
1.38387e-21
1.875e-06
7.31495e-23
1.31187e-21
1.875e-06
2.58732e-22
1.49178e-21
1.875e-06
1.17259e-22
1.40757e-21
1.875e-06
1.17564e-22
1.2593e-21
1.875e-06
5.51749e-23
1.12466e-21
1.875e-06
1.1645e-22
1.08425e-21
1.875e-06
1.3592e-22
1.06047e-21
1.875e-06
7.22732e-23
9.53052e-22
1.875e-06
1.17048e-22
9.91419e-22
1.875e-06
1.28235e-22
9.60127e-22
1.875e-06
1.91718e-22
9.36172e-22
1.875e-06
8.39363e-23
8.58707e-22
1.875e-06
3.43639e-23
7.32867e-22
1.875e-06
-1.99926e-23
7.6034e-22
1.875e-06
6.87042e-23
6.06132e-22
1.875e-06
2.04773e-22
6.79519e-22
1.875e-06
2.85398e-22
7.59637e-22
1.875e-06
1.95645e-22
7.50832e-22
1.875e-06
1.42099e-22
6.60825e-22
1.875e-06
1.79508e-22
5.68009e-22
1.875e-06
9.26529e-23
5.26983e-22
1.875e-06
-5.579e-23
3.80488e-22
1.875e-06
-2.4295e-23
3.60903e-22
1.875e-06
8.60644e-24
3.20539e-22
1.875e-06
1.14117e-22
3.42234e-22
1.875e-06
4.27127e-23
3.19322e-22
1.875e-06
2.68644e-23
2.99914e-22
1.875e-06
1.99641e-23
2.77312e-22
1.875e-06
-7.51736e-25
1.16632e-22
1.875e-06
-1.46046e-22
-1.22433e-22
1.875e-06
8.89408e-23
-2.29476e-22
1.875e-06
4.65995e-23
-2.73059e-22
1.875e-06
6.07176e-23
-2.27349e-22
1.875e-06
4.11025e-23
-1.64163e-22
5.125e-23
-1.47019e-22
1.875e-06
8.08005e-23
6.66664e-22
1.875e-06
1.57724e-22
9.98526e-22
1.875e-06
1.37297e-22
1.09509e-21
1.875e-06
9.02877e-23
1.22197e-21
1.875e-06
1.6417e-22
1.38129e-21
1.875e-06
1.54651e-22
1.36129e-21
1.875e-06
-2.23952e-24
1.34381e-21
1.875e-06
2.21584e-22
1.49956e-21
1.875e-06
7.8275e-23
1.43071e-21
1.875e-06
1.36502e-22
1.22112e-21
1.875e-06
2.33747e-22
1.03084e-21
1.875e-06
8.5234e-23
1.02446e-21
1.875e-06
1.29421e-23
9.43718e-22
1.875e-06
1.26626e-22
8.96556e-22
1.875e-06
5.02137e-23
9.18263e-22
1.875e-06
1.02718e-22
9.07292e-22
1.875e-06
2.13097e-22
9.34947e-22
1.875e-06
1.34406e-22
8.22654e-22
1.875e-06
1.80145e-22
8.63498e-22
1.875e-06
3.97499e-24
7.50358e-22
1.875e-06
1.04208e-22
7.05307e-22
1.875e-06
1.38375e-22
6.1119e-22
1.875e-06
1.43572e-22
6.52623e-22
1.875e-06
1.22687e-22
6.71682e-22
1.875e-06
1.22937e-22
4.91619e-22
1.875e-06
2.03347e-23
4.20173e-22
1.875e-06
7.28339e-23
5.17887e-22
1.875e-06
4.4871e-23
5.12491e-22
1.875e-06
2.29981e-23
3.48992e-22
1.875e-06
-9.83349e-23
2.53522e-22
1.875e-06
-2.06014e-23
3.22528e-22
1.875e-06
7.39754e-23
2.82134e-22
1.875e-06
4.4919e-23
1.73498e-22
1.875e-06
3.73281e-23
1.38082e-22
1.875e-06
7.92647e-23
6.08351e-23
1.875e-06
-1.10767e-22
-2.75675e-22
1.875e-06
-1.5179e-22
-2.87936e-22
1.875e-06
-2.90103e-23
-2.36805e-22
1.875e-06
5.52301e-23
-2.03767e-22
8.64948e-23
-2.04101e-22
1.875e-06
1.80749e-22
6.72018e-22
1.875e-06
1.41116e-22
9.76825e-22
1.875e-06
8.90096e-23
1.05653e-21
1.875e-06
1.26593e-22
1.25939e-21
1.875e-06
1.53078e-22
1.40685e-21
1.875e-06
8.30944e-23
1.36007e-21
1.875e-06
1.97375e-22
1.43581e-21
1.875e-06
1.48409e-22
1.3251e-21
1.875e-06
9.24469e-23
1.35391e-21
1.875e-06
3.35157e-23
1.23611e-21
1.875e-06
3.38319e-23
9.4793e-22
1.875e-06
1.73496e-22
9.8453e-22
1.875e-06
1.82457e-22
1.04817e-21
1.875e-06
1.45229e-22
9.3823e-22
1.875e-06
1.44598e-22
9.56969e-22
1.875e-06
1.03193e-22
9.19104e-22
1.875e-06
5.18865e-23
9.10401e-22
1.875e-06
3.97878e-23
7.82264e-22
1.875e-06
1.04999e-22
7.92153e-22
1.875e-06
2.93553e-22
8.15782e-22
1.875e-06
1.12122e-22
8.39012e-22
1.875e-06
7.73936e-24
6.52116e-22
1.875e-06
5.64182e-23
5.60463e-22
1.875e-06
4.43689e-23
5.53557e-22
1.875e-06
-8.98279e-23
4.82755e-22
1.875e-06
-1.63889e-23
5.16603e-22
1.875e-06
-1.98291e-23
4.75988e-22
1.875e-06
3.86186e-24
4.28484e-22
1.875e-06
1.68038e-23
2.6302e-22
1.875e-06
-5.46072e-23
3.70318e-22
1.875e-06
7.89441e-23
3.94181e-22
1.875e-06
2.1092e-23
2.83093e-22
1.875e-06
-1.51487e-23
1.78995e-22
1.875e-06
9.98544e-23
7.85462e-23
1.875e-06
1.31332e-22
-5.38996e-23
1.875e-06
-4.11251e-23
-1.9415e-22
1.875e-06
-9.9085e-23
-2.79301e-22
1.875e-06
-3.86317e-23
-2.20892e-22
1.875e-06
-1.01073e-22
-2.66799e-22
-1.04073e-22
-4.53179e-22
1.875e-06
8.63962e-23
5.64797e-22
1.875e-06
1.20084e-22
9.20495e-22
1.875e-06
1.11e-22
1.10548e-21
1.875e-06
1.46334e-22
1.33369e-21
1.875e-06
-7.87371e-24
1.35869e-21
1.875e-06
6.15302e-24
1.39476e-21
1.875e-06
3.21154e-23
1.29017e-21
1.875e-06
2.95009e-23
1.21476e-21
1.875e-06
8.90324e-23
1.30006e-21
1.875e-06
1.25681e-22
1.21374e-21
1.875e-06
2.19311e-23
1.01254e-21
1.875e-06
7.71004e-23
9.82631e-22
1.875e-06
2.34219e-22
1.08264e-21
1.875e-06
1.27094e-22
1.00087e-21
1.875e-06
1.20471e-22
9.6021e-22
1.875e-06
5.9311e-23
8.18212e-22
1.875e-06
1.09163e-22
8.36881e-22
1.875e-06
1.17996e-22
8.51165e-22
1.875e-06
9.25474e-23
8.94615e-22
1.875e-06
1.00831e-22
7.87821e-22
1.875e-06
1.36714e-22
7.03419e-22
1.875e-06
1.14043e-22
6.44962e-22
1.875e-06
5.84407e-23
5.77249e-22
1.875e-06
3.50569e-23
6.45831e-22
1.875e-06
-4.09621e-23
5.58132e-22
1.875e-06
-7.05129e-23
4.90474e-22
1.875e-06
-9.92562e-23
4.61372e-22
1.875e-06
-3.19756e-24
3.78245e-22
1.875e-06
-2.18749e-23
3.41967e-22
1.875e-06
-6.17969e-23
3.49417e-22
1.875e-06
-9.85359e-23
3.16859e-22
1.875e-06
5.72144e-23
3.25122e-22
1.875e-06
6.6538e-23
2.54912e-22
1.875e-06
-1.59423e-23
1.13776e-23
1.875e-06
9.62186e-24
-9.15874e-23
1.875e-06
3.14283e-23
-2.2286e-22
1.875e-06
-4.43289e-23
-3.14161e-22
1.875e-06
-1.01564e-22
-2.1664e-22
1.875e-06
-1.3925e-22
-2.29872e-22
-9.04156e-23
-3.34614e-22
1.875e-06
-1.4747e-22
5.05489e-22
1.875e-06
2.52374e-23
8.93326e-22
1.875e-06
1.69933e-22
1.15125e-21
1.875e-06
3.91193e-23
1.28432e-21
1.875e-06
-4.0126e-24
1.4072e-21
1.875e-06
-5.97339e-24
1.40472e-21
1.875e-06
5.5839e-23
1.32932e-21
1.875e-06
1.15314e-22
1.2419e-21
1.875e-06
1.22957e-22
1.28477e-21
1.875e-06
-4.34022e-23
1.15716e-21
1.875e-06
-1.78295e-23
1.10466e-21
1.875e-06
2.06351e-22
1.07002e-21
1.875e-06
1.19202e-22
9.88445e-22
1.875e-06
6.11887e-23
9.3314e-22
1.875e-06
1.97097e-23
9.4294e-22
1.875e-06
5.88554e-23
8.83735e-22
1.875e-06
1.37504e-22
9.50393e-22
1.875e-06
2.70136e-22
9.46231e-22
1.875e-06
2.29089e-22
8.63e-22
1.875e-06
2.08724e-23
6.14326e-22
1.875e-06
1.59843e-22
7.43024e-22
1.875e-06
3.48527e-23
6.65852e-22
1.875e-06
-7.71235e-24
5.7054e-22
1.875e-06
-4.85842e-23
6.20212e-22
1.875e-06
-9.27235e-23
5.56814e-22
1.875e-06
-9.91893e-24
5.63352e-22
1.875e-06
1.4131e-22
5.13567e-22
1.875e-06
1.02806e-22
3.96574e-22
1.875e-06
-6.9183e-23
3.71202e-22
1.875e-06
-7.23514e-23
3.64483e-22
1.875e-06
-1.14703e-22
3.65051e-22
1.875e-06
-1.16411e-22
2.18278e-22
1.875e-06
-1.19585e-23
1.99534e-22
1.875e-06
-1.88599e-23
1.13842e-22
1.875e-06
-4.25121e-23
-1.31681e-22
1.875e-06
-8.89307e-23
-3.47126e-22
1.875e-06
-4.65692e-23
-3.68938e-22
1.875e-06
-2.85646e-24
-2.77924e-22
1.875e-06
-4.86134e-23
-1.85349e-22
-2.35597e-22
-2.8104e-22
1.875e-06
-3.97914e-23
7.55772e-22
1.875e-06
-1.71086e-22
9.69986e-22
1.875e-06
-2.04731e-24
1.10936e-21
1.875e-06
9.64748e-24
1.28215e-21
1.875e-06
-7.25932e-24
1.43829e-21
1.875e-06
4.01003e-23
1.33642e-21
1.875e-06
-3.49556e-23
1.28646e-21
1.875e-06
-3.03722e-23
1.16842e-21
1.875e-06
3.11329e-23
1.25344e-21
1.875e-06
-3.0235e-23
1.2007e-21
1.875e-06
1.28968e-22
1.1836e-21
1.875e-06
8.84531e-23
1.06056e-21
1.875e-06
9.16833e-23
1.05367e-21
1.875e-06
6.92069e-23
1.03292e-21
1.875e-06
1.38302e-22
9.99538e-22
1.875e-06
1.21607e-22
8.25322e-22
1.875e-06
1.17586e-22
8.13292e-22
1.875e-06
1.04649e-22
8.10676e-22
1.875e-06
8.31661e-23
7.76256e-22
1.875e-06
1.68282e-22
7.63213e-22
1.875e-06
1.41656e-22
6.73005e-22
1.875e-06
1.45801e-22
7.28485e-22
1.875e-06
7.12278e-24
6.86817e-22
1.875e-06
-1.75367e-22
5.51946e-22
1.875e-06
-1.01727e-22
6.33165e-22
1.875e-06
7.03272e-23
6.35129e-22
1.875e-06
6.89592e-23
4.09994e-22
1.875e-06
-9.67195e-23
3.03607e-22
1.875e-06
-4.805e-23
3.96854e-22
1.875e-06
-4.45713e-23
2.9681e-22
1.875e-06
-1.01343e-23
3.60443e-22
1.875e-06
-6.20706e-23
2.77415e-22
1.875e-06
-3.34021e-24
2.58847e-22
1.875e-06
-1.2218e-23
8.9863e-23
1.875e-06
-4.8552e-23
-1.07698e-22
1.875e-06
5.84865e-24
-2.20857e-22
1.875e-06
-7.36913e-23
-3.32249e-22
1.875e-06
-1.41852e-22
-3.03868e-22
1.875e-06
-9.49442e-23
-2.33247e-22
-7.71993e-23
-1.73809e-22
1.875e-06
-6.77225e-23
7.17926e-22
1.875e-06
-1.30337e-22
1.11253e-21
1.875e-06
-1.47731e-22
1.18363e-21
1.875e-06
-1.52346e-22
1.33481e-21
1.875e-06
-2.54255e-23
1.43991e-21
1.875e-06
8.3191e-24
1.34252e-21
1.875e-06
4.46105e-24
1.29052e-21
1.875e-06
2.73364e-23
1.24958e-21
1.875e-06
5.3549e-23
1.25001e-21
1.875e-06
1.32479e-22
1.21859e-21
1.875e-06
-6.7019e-24
1.1762e-21
1.875e-06
8.12534e-23
1.11613e-21
1.875e-06
-9.80447e-23
1.09369e-21
1.875e-06
4.83406e-23
1.06248e-21
1.875e-06
1.81185e-22
9.98211e-22
1.875e-06
2.14028e-22
7.9904e-22
1.875e-06
9.13182e-23
8.13159e-22
1.875e-06
6.94157e-23
9.00111e-22
1.875e-06
2.06497e-22
7.50668e-22
1.875e-06
9.60414e-23
7.36458e-22
1.875e-06
7.64619e-23
6.92459e-22
1.875e-06
8.44629e-23
7.16829e-22
1.875e-06
-6.69376e-23
6.61949e-22
1.875e-06
-1.17643e-22
6.18427e-22
1.875e-06
-9.21267e-24
5.86405e-22
1.875e-06
-1.24942e-22
5.44484e-22
1.875e-06
-6.84173e-24
3.96597e-22
1.875e-06
1.08643e-22
3.57889e-22
1.875e-06
-7.35476e-24
3.82155e-22
1.875e-06
4.6603e-23
3.66654e-22
1.875e-06
2.2665e-23
3.12042e-22
1.875e-06
3.24193e-23
2.76945e-22
1.875e-06
-6.15442e-23
2.29745e-22
1.875e-06
-1.4616e-22
1.31539e-22
1.875e-06
-2.47336e-22
-1.13771e-22
1.875e-06
-1.0656e-22
-3.35567e-22
1.875e-06
1.06633e-22
-1.95439e-22
1.875e-06
1.71207e-23
-1.02279e-22
1.875e-06
-1.27986e-22
-1.62784e-22
-3.67049e-23
-2.49699e-22
1.875e-06
-1.63287e-22
6.038e-22
1.875e-06
-8.2396e-23
1.06028e-21
1.875e-06
-3.84085e-23
1.25149e-21
1.875e-06
-6.29275e-23
1.41654e-21
1.875e-06
-5.38262e-23
1.54095e-21
1.875e-06
-3.24683e-24
1.36752e-21
1.875e-06
-9.58506e-23
1.29218e-21
1.875e-06
-1.40354e-22
1.27812e-21
1.875e-06
4.07204e-23
1.301e-21
1.875e-06
1.32874e-22
1.18841e-21
1.875e-06
1.30091e-22
1.18274e-21
1.875e-06
-1.15397e-23
1.13334e-21
1.875e-06
6.26894e-23
1.24483e-21
1.875e-06
3.94437e-23
1.15732e-21
1.875e-06
1.56024e-22
9.67686e-22
1.875e-06
8.45026e-23
7.29573e-22
1.875e-06
5.31528e-23
7.81495e-22
1.875e-06
2.04504e-23
8.33583e-22
1.875e-06
6.92598e-23
7.81164e-22
1.875e-06
2.19694e-22
7.77287e-22
1.875e-06
1.4701e-22
7.11257e-22
1.875e-06
-8.56025e-23
5.53216e-22
1.875e-06
-1.59486e-22
5.92903e-22
1.875e-06
-2.15976e-23
5.76267e-22
1.875e-06
-2.34939e-23
5.53124e-22
1.875e-06
8.76864e-23
6.16944e-22
1.875e-06
6.57942e-23
4.33971e-22
1.875e-06
1.64023e-23
3.58804e-22
1.875e-06
8.00603e-23
4.69372e-22
1.875e-06
5.32616e-23
3.35541e-22
1.875e-06
5.13245e-23
2.55286e-22
1.875e-06
-1.45639e-22
2.14997e-22
1.875e-06
-1.03964e-22
2.32177e-22
1.875e-06
-9.9645e-23
2.50232e-22
1.875e-06
-1.2486e-22
1.05712e-22
1.875e-06
-1.39322e-22
-2.61488e-22
1.875e-06
-4.45164e-23
-2.919e-22
1.875e-06
6.65399e-23
-1.13065e-22
1.875e-06
2.34191e-23
-1.28977e-22
-4.39085e-23
-3.60618e-22
1.875e-06
-8.94026e-23
6.72789e-22
1.875e-06
-1.70758e-22
1.09701e-21
1.875e-06
-1.58796e-22
1.19204e-21
1.875e-06
3.20701e-23
1.38006e-21
1.875e-06
6.92871e-23
1.496e-21
1.875e-06
-1.08127e-22
1.44238e-21
1.875e-06
-8.417e-23
1.35172e-21
1.875e-06
-9.2405e-23
1.30527e-21
1.875e-06
-1.87759e-23
1.31705e-21
1.875e-06
7.35135e-23
1.27161e-21
1.875e-06
2.52044e-23
1.15892e-21
1.875e-06
5.56459e-23
1.13303e-21
1.875e-06
5.34565e-23
1.21532e-21
1.875e-06
2.71113e-23
1.21919e-21
1.875e-06
1.12951e-23
9.69131e-22
1.875e-06
4.65197e-23
8.15908e-22
1.875e-06
6.08221e-23
7.98e-22
1.875e-06
2.008e-22
8.76631e-22
1.875e-06
2.3646e-22
7.3481e-22
1.875e-06
1.0677e-22
6.20021e-22
1.875e-06
-7.9584e-23
5.61153e-22
1.875e-06
-1.62334e-22
7.1533e-22
1.875e-06
-5.52991e-23
6.88541e-22
1.875e-06
-4.3444e-23
5.11175e-22
1.875e-06
-5.11054e-23
6.11338e-22
1.875e-06
7.89863e-24
5.598e-22
1.875e-06
8.81088e-23
5.05253e-22
1.875e-06
5.8171e-23
4.04052e-22
1.875e-06
2.81671e-23
3.56798e-22
1.875e-06
4.79563e-23
2.86192e-22
1.875e-06
5.60249e-23
2.09954e-22
1.875e-06
-5.38639e-23
2.53015e-22
1.875e-06
-9.30841e-23
2.20294e-22
1.875e-06
-1.13848e-23
2.44716e-22
1.875e-06
-1.41952e-23
1.50645e-22
1.875e-06
-6.13678e-23
-1.32987e-23
1.875e-06
-1.08949e-22
-1.35874e-22
1.875e-06
-5.19787e-23
-1.50143e-22
1.875e-06
1.39848e-22
-1.49538e-22
1.92728e-22
-2.85918e-22
1.875e-06
5.30168e-24
7.32579e-22
1.875e-06
-3.96043e-23
1.14012e-21
1.875e-06
-7.81194e-24
1.28508e-21
1.875e-06
-4.10152e-23
1.45684e-21
1.875e-06
-1.09274e-22
1.4529e-21
1.875e-06
-1.79756e-22
1.42653e-21
1.875e-06
-1.67755e-22
1.4163e-21
1.875e-06
-4.0133e-24
1.42664e-21
1.875e-06
5.57682e-23
1.34994e-21
1.875e-06
-1.20742e-23
1.23466e-21
1.875e-06
4.95191e-23
1.20179e-21
1.875e-06
8.39057e-23
1.17715e-21
1.875e-06
3.73792e-23
1.22979e-21
1.875e-06
1.32456e-22
1.23834e-21
1.875e-06
6.89492e-25
9.73612e-22
1.875e-06
-8.54299e-23
8.6172e-22
1.875e-06
-4.76466e-23
8.34922e-22
1.875e-06
1.99753e-23
7.00969e-22
1.875e-06
1.35256e-22
6.48157e-22
1.875e-06
5.01415e-23
5.77147e-22
1.875e-06
-3.64551e-23
5.62107e-22
1.875e-06
-3.37969e-23
7.46676e-22
1.875e-06
-3.72521e-23
7.1716e-22
1.875e-06
1.77762e-24
6.72187e-22
1.875e-06
-1.39887e-23
6.13549e-22
1.875e-06
-4.61323e-23
5.30733e-22
1.875e-06
9.75123e-23
4.34022e-22
1.875e-06
1.45871e-22
4.69741e-22
1.875e-06
1.39091e-22
3.55439e-22
1.875e-06
-2.64497e-23
2.72161e-22
1.875e-06
-1.35722e-22
1.41396e-22
1.875e-06
-5.55175e-23
1.44947e-22
1.875e-06
1.13576e-23
1.80049e-22
1.875e-06
9.37983e-24
3.14293e-22
1.875e-06
7.76676e-23
2.00405e-22
1.875e-06
2.42049e-23
-8.93874e-24
1.875e-06
5.3673e-23
1.78642e-23
1.875e-06
-1.61692e-23
-3.43687e-23
1.875e-06
1.58979e-23
-2.3728e-22
2.44777e-23
-3.531e-22
1.875e-06
1.24906e-22
8.03935e-22
1.875e-06
8.81461e-23
1.16581e-21
1.875e-06
-2.77425e-23
1.14397e-21
1.875e-06
-1.68938e-22
1.31014e-21
1.875e-06
-1.01549e-22
1.46697e-21
1.875e-06
-5.89901e-23
1.52222e-21
1.875e-06
1.91978e-23
1.53257e-21
1.875e-06
-4.25264e-23
1.46031e-21
1.875e-06
-1.24177e-22
1.27121e-21
1.875e-06
6.82478e-25
1.39647e-21
1.875e-06
-2.43215e-22
1.20771e-21
1.875e-06
4.04145e-22
1.19857e-21
1.875e-06
1.19227e-22
1.2361e-21
1.875e-06
1.27341e-22
1.18159e-21
1.875e-06
2.59989e-23
1.12177e-21
1.875e-06
-1.63453e-22
9.50345e-22
1.875e-06
-4.40826e-23
7.94464e-22
1.875e-06
-7.01444e-23
6.20378e-22
1.875e-06
-1.04415e-22
6.27734e-22
1.875e-06
-4.10892e-23
6.03862e-22
1.875e-06
-5.91842e-23
5.90704e-22
1.875e-06
-1.10272e-22
6.83188e-22
1.875e-06
-1.08893e-23
8.15585e-22
1.875e-06
9.02824e-23
6.85858e-22
1.875e-06
1.77571e-22
6.01114e-22
1.875e-06
7.33927e-23
5.19813e-22
1.875e-06
-4.75452e-23
3.68635e-22
1.875e-06
-2.21081e-23
4.56827e-22
1.875e-06
-1.99029e-22
2.52776e-22
1.875e-06
1.8576e-22
2.49079e-22
1.875e-06
3.2511e-23
3.05492e-22
1.875e-06
1.15673e-23
2.72563e-22
1.875e-06
8.52905e-23
1.21467e-22
1.875e-06
-4.51426e-23
2.45704e-22
1.875e-06
5.98228e-23
2.33024e-22
1.875e-06
1.15787e-22
9.52836e-23
1.875e-06
-3.58948e-23
-1.66456e-23
1.875e-06
2.99445e-23
-1.94197e-22
1.875e-06
-7.84408e-23
-4.29222e-22
-1.83567e-23
-3.33676e-22
1.875e-06
1.28617e-22
6.69131e-22
1.875e-06
1.68955e-22
1.07317e-21
1.875e-06
-4.0455e-23
1.07259e-21
1.875e-06
-5.16534e-23
1.38801e-21
1.875e-06
5.59013e-23
1.41034e-21
1.875e-06
-4.36547e-23
1.51095e-21
1.875e-06
-2.76729e-23
1.4526e-21
1.875e-06
-3.02351e-23
1.42837e-21
1.875e-06
-1.37545e-22
1.3377e-21
1.875e-06
-7.76871e-23
1.42199e-21
1.875e-06
-1.16787e-23
1.24166e-21
1.875e-06
5.62262e-23
1.24859e-21
1.875e-06
1.55877e-22
1.3086e-21
1.875e-06
1.196e-22
1.07072e-21
1.875e-06
-1.03256e-22
1.01606e-21
1.875e-06
-5.73885e-23
1.00215e-21
1.875e-06
-1.57247e-22
7.77079e-22
1.875e-06
-6.75728e-23
6.1851e-22
1.875e-06
-1.24297e-22
7.75395e-22
1.875e-06
-7.86467e-23
7.02135e-22
1.875e-06
-3.49986e-23
6.55846e-22
1.875e-06
-1.07599e-22
7.663e-22
1.875e-06
2.53202e-23
7.82621e-22
1.875e-06
5.75114e-23
6.56825e-22
1.875e-06
8.15157e-23
4.99189e-22
1.875e-06
1.30118e-22
5.41911e-22
1.875e-06
1.02715e-23
3.51853e-22
1.875e-06
6.26581e-23
4.16624e-22
1.875e-06
4.08196e-24
4.12328e-22
1.875e-06
-4.66578e-23
2.438e-22
1.875e-06
6.53061e-25
2.27166e-22
1.875e-06
6.67004e-23
2.22225e-22
1.875e-06
-8.75259e-24
1.415e-22
1.875e-06
4.86685e-24
2.74594e-22
1.875e-06
1.56311e-22
2.22095e-22
1.875e-06
8.81029e-23
1.08303e-22
1.875e-06
4.76065e-24
-1.00684e-22
1.875e-06
6.54725e-24
-3.06085e-22
1.875e-06
-2.90097e-23
-3.36564e-22
-1.19043e-22
-3.06189e-22
1.875e-06
1.62243e-22
6.55715e-22
1.875e-06
2.03865e-22
1.06216e-21
1.875e-06
5.1815e-23
1.17244e-21
1.875e-06
6.59312e-23
1.25408e-21
1.875e-06
-6.42632e-23
1.26525e-21
1.875e-06
1.44879e-22
1.51139e-21
1.875e-06
3.69041e-23
1.45841e-21
1.875e-06
-9.76907e-23
1.36701e-21
1.875e-06
-2.13247e-24
1.43297e-21
1.875e-06
-1.50755e-22
1.472e-21
1.875e-06
-6.18862e-23
1.37075e-21
1.875e-06
2.60406e-24
1.15194e-21
1.875e-06
-4.04065e-23
1.18635e-21
1.875e-06
-1.90907e-22
1.05689e-21
1.875e-06
-9.87993e-23
1.02996e-21
1.875e-06
-1.00757e-22
9.88844e-22
1.875e-06
-1.5465e-22
8.62837e-22
1.875e-06
-1.7584e-22
7.38147e-22
1.875e-06
-1.56995e-22
7.14122e-22