/*--------------------------------*- C++ -*----------------------------------*\
| =========                 |                                                 |
| \\      /  F ield         | OpenFOAM: The Open Source CFD Toolbox           |
|  \\    /   O peration     | Version:  v2012                                 |
|   \\  /    A nd           | Website:  www.openfoam.com                      |
|    \\/     M anipulation  |                                                 |
\*---------------------------------------------------------------------------*/
FoamFile
{
    version     2.0;
    format      ascii;
    class       volVectorField;
    location    "46";
    object      U;
}
// * * * * * * * * * * * * * * * * * * * * * * * * * * * * * * * * * * * * * //

dimensions      [0 1 -1 0 0 0 0];


internalField   nonuniform List<vector> 
64000
(
(0.003 2.83644e-19 2.82025e-19)
(0.003 5.09131e-19 4.62294e-19)
(0.003 5.39272e-19 6.0199e-19)
(0.003 5.33199e-19 6.34766e-19)
(0.003 6.4387e-19 6.01212e-19)
(0.003 6.27196e-19 5.49006e-19)
(0.003 5.67507e-19 5.46767e-19)
(0.003 4.30837e-19 5.00343e-19)
(0.003 4.07802e-19 5.671e-19)
(0.003 6.33871e-19 4.98673e-19)
(0.003 6.38018e-19 4.12059e-19)
(0.003 5.83741e-19 5.95808e-19)
(0.003 5.21754e-19 5.62673e-19)
(0.003 5.14351e-19 4.54475e-19)
(0.003 4.5539e-19 5.31846e-19)
(0.003 3.7436e-19 5.16779e-19)
(0.003 3.26573e-19 3.72577e-19)
(0.003 1.887e-19 2.20404e-19)
(0.003 1.75381e-19 1.9544e-19)
(0.003 2.36879e-19 2.95804e-19)
(0.003 1.4212e-19 2.84718e-19)
(0.003 2.70552e-19 3.303e-19)
(0.003 4.26055e-19 3.62246e-19)
(0.003 4.90848e-19 2.76942e-19)
(0.003 3.94082e-19 1.83488e-19)
(0.003 2.59205e-19 1.66734e-19)
(0.003 1.80993e-19 1.8272e-19)
(0.003 2.86639e-19 2.74029e-19)
(0.003 2.82202e-19 2.52523e-19)
(0.003 1.38042e-19 2.3739e-19)
(0.003 3.47354e-20 2.12027e-19)
(0.003 7.24621e-20 1.68754e-19)
(0.003 2.20049e-19 2.04536e-19)
(0.003 1.68922e-19 2.08596e-19)
(0.003 1.0733e-19 2.05152e-19)
(0.003 5.70451e-20 1.66157e-19)
(0.003 -5.10602e-20 6.72672e-20)
(0.003 -5.27794e-20 1.35356e-19)
(0.003 -4.3187e-20 2.08809e-19)
(0.003 -3.8781e-20 1.44224e-19)
(0.003 2.61156e-19 5.02616e-19)
(0.003 3.9702e-19 9.63686e-19)
(0.003 6.38216e-19 1.1619e-18)
(0.003 6.21912e-19 1.12338e-18)
(0.003 5.55121e-19 1.11814e-18)
(0.003 7.29854e-19 1.24834e-18)
(0.003 7.44934e-19 1.23504e-18)
(0.003 6.62924e-19 1.02023e-18)
(0.003 5.78008e-19 9.15547e-19)
(0.003 5.71339e-19 1.17811e-18)
(0.003 5.82146e-19 1.17979e-18)
(0.003 5.50913e-19 1.07332e-18)
(0.003 4.73971e-19 9.71833e-19)
(0.003 3.88235e-19 9.29581e-19)
(0.003 3.28845e-19 9.50362e-19)
(0.003 2.79859e-19 9.10119e-19)
(0.003 5.13845e-19 8.14703e-19)
(0.003 4.90739e-19 6.70399e-19)
(0.003 3.02088e-19 6.40966e-19)
(0.003 1.6725e-19 5.78026e-19)
(0.003 2.55855e-19 5.59645e-19)
(0.003 3.70998e-19 6.47379e-19)
(0.003 4.18754e-19 6.77306e-19)
(0.003 4.28336e-19 6.95037e-19)
(0.003 3.42189e-19 5.48961e-19)
(0.003 3.1474e-19 4.51906e-19)
(0.003 3.60705e-19 4.4709e-19)
(0.003 2.54804e-19 4.95651e-19)
(0.003 2.10087e-19 5.04708e-19)
(0.003 2.12507e-19 3.95851e-19)
(0.003 1.5353e-19 2.69462e-19)
(0.003 1.23829e-19 2.50925e-19)
(0.003 1.32664e-19 3.57451e-19)
(0.003 9.60438e-20 3.37044e-19)
(0.003 3.37842e-20 3.22847e-19)
(0.003 -9.78676e-20 2.44741e-19)
(0.003 -4.09957e-20 3.24491e-20)
(0.003 -2.87844e-20 3.68779e-20)
(0.003 -7.53237e-20 1.05173e-19)
(0.003 -1.106e-19 9.28372e-20)
(0.003 1.36282e-19 5.77237e-19)
(0.003 1.73478e-19 1.00693e-18)
(0.003 3.19552e-19 1.24636e-18)
(0.003 5.01368e-19 1.32545e-18)
(0.003 4.71651e-19 1.3435e-18)
(0.003 6.1313e-19 1.43731e-18)
(0.003 6.93935e-19 1.4821e-18)
(0.003 5.66122e-19 1.41013e-18)
(0.003 5.77717e-19 1.31181e-18)
(0.003 4.52184e-19 1.27114e-18)
(0.003 4.10131e-19 1.20912e-18)
(0.003 3.9419e-19 1.18331e-18)
(0.003 4.11542e-19 1.10966e-18)
(0.003 3.41611e-19 1.0774e-18)
(0.003 3.26557e-19 1.05211e-18)
(0.003 3.18147e-19 9.89307e-19)
(0.003 3.79607e-19 1.00109e-18)
(0.003 5.31595e-19 9.05417e-19)
(0.003 3.27453e-19 7.25075e-19)
(0.003 1.72467e-19 6.25209e-19)
(0.003 3.04547e-19 7.17316e-19)
(0.003 3.33455e-19 7.99141e-19)
(0.003 3.69787e-19 7.50243e-19)
(0.003 2.75609e-19 6.9931e-19)
(0.003 3.18242e-19 6.06248e-19)
(0.003 2.45966e-19 5.67335e-19)
(0.003 2.33392e-19 5.69287e-19)
(0.003 1.22849e-19 6.28528e-19)
(0.003 1.79741e-19 5.40338e-19)
(0.003 2.69702e-19 5.23071e-19)
(0.003 2.43608e-19 4.52675e-19)
(0.003 1.20725e-19 3.08639e-19)
(0.003 -4.7799e-20 3.36497e-19)
(0.003 -2.24824e-20 3.50654e-19)
(0.003 5.20182e-20 3.16364e-19)
(0.003 3.66194e-20 2.28381e-19)
(0.003 3.4196e-20 7.14251e-20)
(0.003 -2.11137e-20 4.05885e-20)
(0.003 -7.70626e-20 5.87166e-20)
(0.003 -1.1757e-19 5.49062e-20)
(0.003 3.55521e-19 6.85461e-19)
(0.003 2.96618e-19 1.14183e-18)
(0.003 1.67271e-19 1.37306e-18)
(0.003 3.54939e-19 1.50429e-18)
(0.003 4.61957e-19 1.50253e-18)
(0.003 5.25369e-19 1.59869e-18)
(0.003 5.18556e-19 1.59593e-18)
(0.003 4.72686e-19 1.39833e-18)
(0.003 4.09725e-19 1.34773e-18)
(0.003 4.82773e-19 1.38112e-18)
(0.003 4.85856e-19 1.3836e-18)
(0.003 3.23438e-19 1.3771e-18)
(0.003 3.02022e-19 1.21498e-18)
(0.003 3.16215e-19 1.14582e-18)
(0.003 5.10606e-19 1.16566e-18)
(0.003 6.39766e-19 1.08361e-18)
(0.003 3.07257e-19 9.95375e-19)
(0.003 2.61117e-19 1.02296e-18)
(0.003 3.28639e-19 8.45854e-19)
(0.003 2.50786e-19 6.81685e-19)
(0.003 2.33981e-19 7.86304e-19)
(0.003 2.7253e-19 8.67823e-19)
(0.003 2.74686e-19 8.47263e-19)
(0.003 2.80118e-19 8.10746e-19)
(0.003 3.24364e-19 7.43764e-19)
(0.003 1.85525e-19 5.79758e-19)
(0.003 1.33725e-19 5.38511e-19)
(0.003 1.24781e-19 5.36786e-19)
(0.003 1.83606e-19 5.84911e-19)
(0.003 1.06864e-19 5.82692e-19)
(0.003 8.88685e-20 4.71567e-19)
(0.003 5.64044e-20 3.5026e-19)
(0.003 -5.34895e-20 4.05124e-19)
(0.003 -5.54767e-20 3.30098e-19)
(0.003 6.60691e-20 2.67597e-19)
(0.003 6.48534e-20 2.2234e-19)
(0.003 5.71916e-20 1.30929e-19)
(0.003 4.87835e-20 8.44531e-20)
(0.003 -3.33484e-20 8.44234e-20)
(0.003 -3.64825e-20 6.94483e-20)
(0.003 1.91238e-19 7.40425e-19)
(0.003 2.14363e-19 1.25733e-18)
(0.003 1.37996e-19 1.42571e-18)
(0.003 2.47347e-19 1.61673e-18)
(0.003 3.14811e-19 1.68962e-18)
(0.003 2.33539e-19 1.75034e-18)
(0.003 1.67916e-19 1.65757e-18)
(0.003 4.88897e-19 1.44437e-18)
(0.003 6.01137e-19 1.34495e-18)
(0.003 5.40471e-19 1.47161e-18)
(0.003 4.05137e-19 1.45644e-18)
(0.003 2.61088e-19 1.30473e-18)
(0.003 3.20891e-19 1.2476e-18)
(0.003 3.01804e-19 1.27252e-18)
(0.003 3.75605e-19 1.34278e-18)
(0.003 5.02724e-19 1.27136e-18)
(0.003 2.96229e-19 1.05315e-18)
(0.003 1.29521e-19 9.52654e-19)
(0.003 2.48621e-19 8.95107e-19)
(0.003 3.61222e-19 7.43544e-19)
(0.003 2.79097e-19 7.76328e-19)
(0.003 2.33317e-19 9.25893e-19)
(0.003 2.01649e-19 9.56736e-19)
(0.003 2.53987e-19 8.75723e-19)
(0.003 2.16887e-19 7.82555e-19)
(0.003 1.70997e-19 6.49582e-19)
(0.003 1.33837e-19 5.42163e-19)
(0.003 1.13086e-19 5.93787e-19)
(0.003 1.13937e-19 6.19641e-19)
(0.003 1.07602e-20 4.84e-19)
(0.003 7.5313e-20 4.11695e-19)
(0.003 1.01076e-19 4.09556e-19)
(0.003 -3.33019e-20 3.35017e-19)
(0.003 -5.31024e-20 2.88858e-19)
(0.003 -1.01085e-20 2.60814e-19)
(0.003 -3.33125e-20 1.96967e-19)
(0.003 6.11297e-21 1.56598e-19)
(0.003 3.66126e-20 1.90797e-20)
(0.003 -6.47763e-20 3.04069e-20)
(0.003 -5.22905e-20 1.53288e-19)
(0.003 4.1114e-20 7.51846e-19)
(0.003 2.16031e-19 1.27695e-18)
(0.003 1.20753e-19 1.46103e-18)
(0.003 8.32978e-20 1.68657e-18)
(0.003 1.95725e-19 1.82164e-18)
(0.003 2.09495e-19 1.7847e-18)
(0.003 2.10247e-19 1.69595e-18)
(0.003 4.43737e-19 1.71724e-18)
(0.003 6.00652e-19 1.58189e-18)
(0.003 4.34349e-19 1.41083e-18)
(0.003 3.71177e-19 1.39362e-18)
(0.003 4.10411e-19 1.46385e-18)
(0.003 3.64691e-19 1.3418e-18)
(0.003 3.47521e-19 1.20346e-18)
(0.003 2.19363e-19 1.36952e-18)
(0.003 1.84755e-19 1.3456e-18)
(0.003 1.60956e-19 1.1192e-18)
(0.003 1.1759e-20 9.36338e-19)
(0.003 8.2022e-20 8.63827e-19)
(0.003 2.94929e-19 7.82995e-19)
(0.003 3.30914e-19 8.42273e-19)
(0.003 3.57434e-19 9.76237e-19)
(0.003 3.30017e-19 9.66068e-19)
(0.003 2.85663e-19 9.04901e-19)
(0.003 1.70268e-19 7.75412e-19)
(0.003 2.16212e-19 6.53372e-19)
(0.003 2.16477e-19 6.39907e-19)
(0.003 2.31976e-20 5.78116e-19)
(0.003 -1.05679e-19 5.72332e-19)
(0.003 -2.68911e-20 5.72769e-19)
(0.003 2.07829e-19 4.89488e-19)
(0.003 2.15221e-19 3.73327e-19)
(0.003 -4.57156e-20 2.4874e-19)
(0.003 -6.00838e-20 2.80336e-19)
(0.003 -4.87055e-20 2.92863e-19)
(0.003 -6.41145e-21 1.30328e-19)
(0.003 2.51023e-20 6.52288e-20)
(0.003 4.45761e-20 1.24225e-20)
(0.003 1.00448e-19 -2.4728e-20)
(0.003 9.41118e-20 1.04871e-19)
(0.003 4.62754e-20 9.19804e-19)
(0.003 2.0212e-19 1.44812e-18)
(0.003 2.01691e-19 1.5109e-18)
(0.003 5.55222e-20 1.69356e-18)
(0.003 1.71858e-19 1.86049e-18)
(0.003 2.03547e-19 1.91271e-18)
(0.003 2.70635e-19 1.77149e-18)
(0.003 5.12322e-19 1.69163e-18)
(0.003 5.46463e-19 1.7099e-18)
(0.003 3.95493e-19 1.63194e-18)
(0.003 2.70774e-19 1.5282e-18)
(0.003 2.62273e-19 1.42607e-18)
(0.003 2.9415e-19 1.38685e-18)
(0.003 3.40998e-19 1.35227e-18)
(0.003 2.04102e-19 1.34992e-18)
(0.003 1.55963e-19 1.32644e-18)
(0.003 1.76191e-19 1.07006e-18)
(0.003 1.58529e-19 8.4897e-19)
(0.003 1.66556e-19 7.72442e-19)
(0.003 1.29277e-19 8.30217e-19)
(0.003 2.04815e-19 9.37607e-19)
(0.003 2.6132e-19 1.02537e-18)
(0.003 2.64159e-19 1.00608e-18)
(0.003 1.85962e-19 9.94145e-19)
(0.003 8.64697e-20 7.84942e-19)
(0.003 2.4379e-19 7.36465e-19)
(0.003 1.73637e-19 6.56688e-19)
(0.003 1.09423e-19 5.23725e-19)
(0.003 3.1786e-20 4.965e-19)
(0.003 3.86511e-20 4.91929e-19)
(0.003 6.18125e-20 5.07257e-19)
(0.003 6.60893e-20 3.79884e-19)
(0.003 5.68898e-20 1.48499e-19)
(0.003 8.17822e-20 1.98368e-19)
(0.003 6.41228e-20 2.43159e-19)
(0.003 7.97528e-20 1.80868e-19)
(0.003 6.77123e-21 9.51591e-20)
(0.003 6.23815e-20 1.79786e-20)
(0.003 1.20994e-19 1.64887e-20)
(0.003 9.41318e-20 7.90302e-20)
(0.003 1.55489e-19 7.99132e-19)
(0.003 1.74495e-19 1.35853e-18)
(0.003 2.06132e-19 1.52881e-18)
(0.003 1.86195e-19 1.7337e-18)
(0.003 1.92435e-19 1.94001e-18)
(0.003 2.52524e-19 1.93986e-18)
(0.003 3.66362e-19 1.80922e-18)
(0.003 3.34738e-19 1.83644e-18)
(0.003 3.05843e-19 1.81679e-18)
(0.003 3.60143e-19 1.72589e-18)
(0.003 1.96561e-19 1.59801e-18)
(0.003 1.6507e-19 1.48095e-18)
(0.003 2.60919e-19 1.36286e-18)
(0.003 2.77783e-19 1.30645e-18)
(0.003 2.62369e-19 1.37007e-18)
(0.003 1.85475e-19 1.38943e-18)
(0.003 1.20557e-19 1.13363e-18)
(0.003 1.63195e-19 8.30225e-19)
(0.003 2.85493e-19 7.08822e-19)
(0.003 2.70257e-19 6.80147e-19)
(0.003 1.24542e-19 8.54942e-19)
(0.003 8.63474e-20 1.05686e-18)
(0.003 1.13054e-19 1.08476e-18)
(0.003 8.71183e-20 1.03814e-18)
(0.003 1.45447e-19 8.72718e-19)
(0.003 2.18663e-19 7.51088e-19)
(0.003 2.37195e-19 6.02624e-19)
(0.003 2.39242e-19 5.67562e-19)
(0.003 1.36881e-19 4.46923e-19)
(0.003 1.15527e-19 4.31037e-19)
(0.003 -4.34159e-20 4.97661e-19)
(0.003 -5.0725e-20 4.03149e-19)
(0.003 6.80528e-20 2.90082e-19)
(0.003 1.03913e-19 2.85447e-19)
(0.003 1.85914e-19 2.38821e-19)
(0.003 6.40209e-20 5.15746e-20)
(0.003 -4.78548e-20 -5.24471e-20)
(0.003 1.0597e-21 1.74102e-20)
(0.003 4.75246e-21 4.65733e-20)
(0.003 1.19529e-20 2.52518e-20)
(0.003 -5.5004e-20 7.95142e-19)
(0.003 -1.58075e-20 1.55187e-18)
(0.003 1.43736e-19 1.65926e-18)
(0.003 1.673e-19 1.79722e-18)
(0.003 2.49884e-19 1.90748e-18)
(0.003 4.00591e-19 1.97415e-18)
(0.003 3.75885e-19 1.91265e-18)
(0.003 1.2842e-19 1.8271e-18)
(0.003 8.959e-20 1.82225e-18)
(0.003 2.64033e-19 1.8234e-18)
(0.003 2.46606e-19 1.61218e-18)
(0.003 1.58132e-19 1.51501e-18)
(0.003 2.14394e-19 1.44792e-18)
(0.003 1.93894e-19 1.31359e-18)
(0.003 2.57765e-19 1.34489e-18)
(0.003 1.7961e-19 1.33647e-18)
(0.003 2.25626e-19 1.13991e-18)
(0.003 2.16624e-19 8.37713e-19)
(0.003 8.25621e-20 8.58158e-19)
(0.003 1.71358e-19 8.77187e-19)
(0.003 2.16312e-19 8.40537e-19)
(0.003 1.92214e-19 1.00075e-18)
(0.003 2.27715e-19 1.10946e-18)
(0.003 2.29223e-19 1.07611e-18)
(0.003 2.27426e-19 8.21748e-19)
(0.003 1.5036e-19 7.08869e-19)
(0.003 1.07781e-19 6.50303e-19)
(0.003 1.3823e-19 5.88537e-19)
(0.003 1.68731e-19 4.50893e-19)
(0.003 1.30983e-19 4.56267e-19)
(0.003 -5.3281e-20 4.61873e-19)
(0.003 -9.3984e-20 3.98932e-19)
(0.003 6.85491e-20 3.2528e-19)
(0.003 9.02301e-20 2.36236e-19)
(0.003 5.84766e-20 2.11763e-20)
(0.003 1.03468e-19 -1.52569e-19)
(0.003 1.44644e-19 1.20777e-20)
(0.003 -1.05284e-20 5.11947e-20)
(0.003 -5.3429e-20 -8.28678e-20)
(0.003 -4.7663e-20 -1.90106e-19)
(0.003 -1.91926e-19 8.63582e-19)
(0.003 -2.70068e-20 1.39501e-18)
(0.003 1.75822e-19 1.607e-18)
(0.003 3.15652e-19 1.86395e-18)
(0.003 2.26979e-19 2.02394e-18)
(0.003 1.95165e-19 2.02872e-18)
(0.003 3.11525e-19 1.9954e-18)
(0.003 2.29643e-19 1.93433e-18)
(0.003 1.68993e-19 1.77648e-18)
(0.003 1.27238e-19 1.76253e-18)
(0.003 2.94339e-19 1.65012e-18)
(0.003 2.09187e-19 1.4622e-18)
(0.003 7.09489e-20 1.39294e-18)
(0.003 1.41136e-19 1.34829e-18)
(0.003 2.38485e-19 1.39414e-18)
(0.003 2.1966e-19 1.35532e-18)
(0.003 2.13197e-19 1.13478e-18)
(0.003 1.5845e-19 8.96179e-19)
(0.003 -4.68163e-20 7.82209e-19)
(0.003 4.62312e-20 7.52721e-19)
(0.003 3.12648e-19 9.07978e-19)
(0.003 4.02169e-19 1.10563e-18)
(0.003 2.5266e-19 1.1836e-18)
(0.003 2.71697e-19 1.12289e-18)
(0.003 3.98258e-19 9.43335e-19)
(0.003 1.59811e-19 7.06488e-19)
(0.003 -1.25681e-19 5.12583e-19)
(0.003 -8.7008e-20 5.4754e-19)
(0.003 6.97314e-20 5.83718e-19)
(0.003 1.53126e-19 4.79773e-19)
(0.003 4.54162e-20 3.69817e-19)
(0.003 -1.28314e-20 4.21128e-19)
(0.003 5.22651e-20 3.91113e-19)
(0.003 -2.75134e-21 2.71702e-19)
(0.003 -9.76718e-20 5.59183e-20)
(0.003 1.97897e-19 -2.26323e-19)
(0.003 2.306e-19 -3.35642e-19)
(0.003 5.44915e-20 -2.94352e-19)
(0.003 3.17197e-20 -1.83747e-19)
(0.003 3.222e-20 -1.96696e-19)
(0.003 4.11358e-20 1.02754e-18)
(0.003 1.82028e-19 1.57748e-18)
(0.003 2.39458e-19 1.72161e-18)
(0.003 2.69836e-19 1.88361e-18)
(0.003 1.91267e-19 1.93667e-18)
(0.003 1.77498e-19 1.99326e-18)
(0.003 1.87443e-19 2.06502e-18)
(0.003 2.30325e-19 2.01036e-18)
(0.003 1.45731e-19 1.88922e-18)
(0.003 1.77777e-19 1.72077e-18)
(0.003 2.62107e-19 1.53707e-18)
(0.003 1.85392e-19 1.43164e-18)
(0.003 1.03103e-19 1.34497e-18)
(0.003 1.88471e-19 1.2456e-18)
(0.003 1.69467e-19 1.36193e-18)
(0.003 2.64887e-19 1.39686e-18)
(0.003 2.2525e-19 1.14596e-18)
(0.003 9.24534e-20 8.75116e-19)
(0.003 6.18039e-20 7.93578e-19)
(0.003 8.57571e-20 8.87239e-19)
(0.003 2.5379e-19 1.02111e-18)
(0.003 3.37079e-19 1.16269e-18)
(0.003 2.62866e-19 1.19212e-18)
(0.003 2.07202e-19 1.13334e-18)
(0.003 2.11646e-19 9.1338e-19)
(0.003 8.27574e-20 6.06975e-19)
(0.003 3.47279e-20 5.66554e-19)
(0.003 3.43658e-20 5.92812e-19)
(0.003 1.17799e-20 5.24495e-19)
(0.003 3.50856e-20 5.71934e-19)
(0.003 4.76378e-21 5.20541e-19)
(0.003 1.29562e-20 3.92113e-19)
(0.003 9.25529e-20 3.1044e-19)
(0.003 5.48376e-20 2.3095e-19)
(0.003 -4.1683e-20 1.00874e-19)
(0.003 -5.56379e-20 -1.20777e-19)
(0.003 -1.02497e-19 -4.56287e-19)
(0.003 2.5041e-20 -3.3049e-19)
(0.003 7.47481e-20 -2.62408e-19)
(0.003 9.14445e-20 -2.69171e-19)
(0.003 2.16119e-19 1.03921e-18)
(0.003 2.11455e-19 1.64172e-18)
(0.003 1.39735e-19 1.76494e-18)
(0.003 1.54106e-19 1.81892e-18)
(0.003 2.58524e-19 1.99957e-18)
(0.003 2.09799e-19 2.09101e-18)
(0.003 1.65806e-19 2.01102e-18)
(0.003 2.76687e-19 1.98359e-18)
(0.003 1.34795e-19 1.80925e-18)
(0.003 9.45679e-20 1.79335e-18)
(0.003 2.11484e-19 1.62003e-18)
(0.003 2.04166e-19 1.4026e-18)
(0.003 1.61828e-19 1.3962e-18)
(0.003 1.95865e-19 1.29449e-18)
(0.003 1.38434e-19 1.29168e-18)
(0.003 1.30372e-19 1.33143e-18)
(0.003 1.56377e-19 1.20024e-18)
(0.003 1.9522e-19 9.41749e-19)
(0.003 3.19057e-19 8.53294e-19)
(0.003 2.85622e-19 9.02363e-19)
(0.003 1.42611e-19 1.05865e-18)
(0.003 8.10355e-20 1.13163e-18)
(0.003 9.61961e-20 1.08973e-18)
(0.003 1.50917e-19 1.06971e-18)
(0.003 3.79946e-20 9.99942e-19)
(0.003 1.37182e-21 7.45095e-19)
(0.003 6.56698e-20 6.294e-19)
(0.003 6.61859e-20 5.96521e-19)
(0.003 2.65078e-20 4.65635e-19)
(0.003 -1.55401e-19 5.50384e-19)
(0.003 3.42943e-20 5.24324e-19)
(0.003 1.45887e-19 3.97902e-19)
(0.003 -3.60791e-23 3.33057e-19)
(0.003 8.54734e-20 1.59412e-19)
(0.003 1.77945e-19 1.98469e-20)
(0.003 -1.07858e-19 -1.95166e-19)
(0.003 -2.3819e-19 -4.21073e-19)
(0.003 -6.86664e-20 -3.21337e-19)
(0.003 2.31061e-20 -3.37592e-19)
(0.003 2.57012e-20 -4.40364e-19)
(0.003 2.46354e-19 1.05706e-18)
(0.003 2.66847e-19 1.63614e-18)
(0.003 2.10413e-19 1.78701e-18)
(0.003 2.46177e-19 1.94568e-18)
(0.003 1.22049e-19 2.10086e-18)
(0.003 5.38894e-20 2.07771e-18)
(0.003 1.60936e-19 1.98825e-18)
(0.003 1.56096e-19 1.95364e-18)
(0.003 1.92155e-19 1.78055e-18)
(0.003 1.20206e-19 1.6984e-18)
(0.003 3.97621e-20 1.61999e-18)
(0.003 1.73684e-19 1.50608e-18)
(0.003 2.62664e-19 1.45423e-18)
(0.003 2.18695e-19 1.40146e-18)
(0.003 1.96939e-19 1.33564e-18)
(0.003 1.36698e-19 1.27357e-18)
(0.003 1.54113e-19 1.10681e-18)
(0.003 1.4564e-19 8.92956e-19)
(0.003 1.70922e-19 8.93133e-19)
(0.003 2.64563e-19 1.04061e-18)
(0.003 2.35204e-19 1.00063e-18)
(0.003 1.35425e-19 1.0674e-18)
(0.003 1.18904e-19 1.11868e-18)
(0.003 4.2826e-20 1.12996e-18)
(0.003 -1.05919e-19 9.47388e-19)
(0.003 -9.23314e-20 7.11492e-19)
(0.003 -9.77505e-20 6.22926e-19)
(0.003 2.13926e-20 5.64927e-19)
(0.003 2.43581e-20 5.28793e-19)
(0.003 -1.29391e-19 5.15253e-19)
(0.003 3.52771e-20 5.4162e-19)
(0.003 1.33327e-19 4.78101e-19)
(0.003 4.34406e-21 2.79494e-19)
(0.003 7.37084e-20 2.03023e-19)
(0.003 1.21629e-19 7.43788e-20)
(0.003 -1.60628e-20 -3.06056e-19)
(0.003 -6.03429e-20 -4.3824e-19)
(0.003 -9.41936e-20 -2.59454e-19)
(0.003 -2.05442e-19 -2.83313e-19)
(0.003 -1.82885e-19 -3.80689e-19)
(0.003 -1.34295e-20 1.10058e-18)
(0.003 1.78056e-19 1.72801e-18)
(0.003 2.67712e-19 1.8283e-18)
(0.003 1.45154e-19 1.97001e-18)
(0.003 -1.51592e-20 2.03125e-18)
(0.003 -1.24178e-20 2.06493e-18)
(0.003 8.70776e-20 1.96938e-18)
(0.003 1.40118e-19 1.84464e-18)
(0.003 1.50402e-19 1.78731e-18)
(0.003 5.71498e-20 1.78503e-18)
(0.003 -2.31573e-21 1.65265e-18)
(0.003 2.16456e-19 1.51167e-18)
(0.003 2.81724e-19 1.51721e-18)
(0.003 1.51885e-19 1.39957e-18)
(0.003 9.30016e-20 1.33909e-18)
(0.003 8.62955e-20 1.26676e-18)
(0.003 1.84693e-19 1.19248e-18)
(0.003 3.27604e-19 9.75221e-19)
(0.003 2.98448e-19 8.13754e-19)
(0.003 1.75297e-19 9.34566e-19)
(0.003 2.37377e-19 1.05626e-18)
(0.003 1.23849e-19 1.11552e-18)
(0.003 8.9559e-20 1.11422e-18)
(0.003 -1.47679e-20 1.12432e-18)
(0.003 -9.19259e-20 9.9844e-19)
(0.003 -1.09374e-20 7.46598e-19)
(0.003 3.14348e-20 5.42233e-19)
(0.003 1.62857e-20 6.06448e-19)
(0.003 -7.34196e-20 5.9415e-19)
(0.003 -9.77323e-20 4.61759e-19)
(0.003 -2.19161e-19 5.29047e-19)
(0.003 -9.52262e-20 5.0676e-19)
(0.003 6.61426e-20 3.50838e-19)
(0.003 -3.10783e-20 2.24788e-19)
(0.003 -4.80915e-20 2.87133e-20)
(0.003 -1.87895e-20 -3.51341e-19)
(0.003 -7.21542e-20 -5.17811e-19)
(0.003 -1.33253e-19 -4.6027e-19)
(0.003 -1.99103e-19 -3.88785e-19)
(0.003 -2.64037e-19 -4.43231e-19)
(0.003 -2.12965e-19 1.14419e-18)
(0.003 -1.60105e-19 1.71167e-18)
(0.003 1.43912e-19 1.87985e-18)
(0.003 6.72436e-20 1.92168e-18)
(0.003 8.6979e-21 2.03564e-18)
(0.003 2.26822e-20 2.03926e-18)
(0.003 2.48632e-20 1.99096e-18)
(0.003 1.14589e-19 1.89728e-18)
(0.003 1.07515e-19 1.81853e-18)
(0.003 -7.88262e-20 1.76175e-18)
(0.003 5.84351e-20 1.65471e-18)
(0.003 2.36405e-19 1.60394e-18)
(0.003 2.02336e-19 1.57566e-18)
(0.003 9.76383e-20 1.4043e-18)
(0.003 1.22306e-19 1.25596e-18)
(0.003 1.27944e-19 1.23984e-18)
(0.003 1.96336e-19 1.16293e-18)
(0.003 3.31521e-19 9.90712e-19)
(0.003 2.72803e-19 9.55212e-19)
(0.003 1.75389e-19 9.78561e-19)
(0.003 2.3655e-19 1.0579e-18)
(0.003 1.4943e-19 1.10264e-18)
(0.003 9.48258e-21 1.16887e-18)
(0.003 -1.58079e-19 1.13036e-18)
(0.003 -1.34389e-19 9.79016e-19)
(0.003 7.30941e-20 7.89599e-19)
(0.003 2.01705e-19 6.03596e-19)
(0.003 -4.2972e-21 6.41601e-19)
(0.003 -1.55775e-19 5.64098e-19)
(0.003 -8.3896e-20 3.8835e-19)
(0.003 -9.49661e-20 4.18637e-19)
(0.003 -1.46571e-19 4.59322e-19)
(0.003 -3.08757e-20 4.24645e-19)
(0.003 -2.04459e-20 1.7857e-19)
(0.003 -6.54028e-20 6.88653e-21)
(0.003 -6.47633e-20 -2.71458e-19)
(0.003 -1.31595e-19 -4.8335e-19)
(0.003 -1.05536e-19 -3.97622e-19)
(0.003 -1.14473e-19 -3.65395e-19)
(0.003 -2.6861e-19 -4.27784e-19)
(0.003 -8.5715e-20 1.06668e-18)
(0.003 -2.51599e-19 1.71597e-18)
(0.003 -1.7431e-19 2.01853e-18)
(0.003 -1.55352e-19 2.0192e-18)
(0.003 -7.92214e-21 2.06342e-18)
(0.003 4.53132e-20 2.06543e-18)
(0.003 -2.34103e-20 1.93827e-18)
(0.003 1.84423e-20 1.87863e-18)
(0.003 7.64068e-20 1.82683e-18)
(0.003 5.45125e-20 1.6731e-18)
(0.003 8.18035e-20 1.68818e-18)
(0.003 1.04503e-19 1.68397e-18)
(0.003 -1.15013e-22 1.6446e-18)
(0.003 9.87029e-20 1.44463e-18)
(0.003 2.70683e-19 1.35845e-18)
(0.003 2.62735e-19 1.27484e-18)
(0.003 1.73533e-19 1.11876e-18)
(0.003 1.52795e-19 9.98704e-19)
(0.003 2.33863e-19 9.1279e-19)
(0.003 1.81801e-19 9.72751e-19)
(0.003 1.597e-19 1.0592e-18)
(0.003 1.64e-19 1.20109e-18)
(0.003 2.59779e-20 1.19965e-18)
(0.003 -1.97417e-19 9.87636e-19)
(0.003 -1.25385e-19 8.03208e-19)
(0.003 -8.5173e-20 8.14437e-19)
(0.003 8.85421e-21 6.59253e-19)
(0.003 5.15019e-20 5.76612e-19)
(0.003 -2.6267e-21 5.64594e-19)
(0.003 3.11569e-20 4.2991e-19)
(0.003 2.69925e-21 4.099e-19)
(0.003 -2.33323e-20 4.36513e-19)
(0.003 -1.91206e-20 4.28711e-19)
(0.003 -1.14047e-19 2.77002e-19)
(0.003 -2.2616e-19 3.95464e-20)
(0.003 -1.41285e-19 -3.13723e-19)
(0.003 -3.12639e-20 -4.16007e-19)
(0.003 -1.44926e-19 -2.28611e-19)
(0.003 -1.70039e-19 -2.61908e-19)
(0.003 -9.17412e-20 -3.91233e-19)
(0.003 -1.67658e-19 9.89255e-19)
(0.003 -1.39687e-19 1.65286e-18)
(0.003 -9.92195e-20 1.95374e-18)
(0.003 -1.75399e-19 1.99338e-18)
(0.003 -1.35737e-19 2.08177e-18)
(0.003 -7.63749e-21 2.06973e-18)
(0.003 -3.72676e-20 2.04178e-18)
(0.003 -1.22353e-19 2.03406e-18)
(0.003 6.59247e-20 1.93078e-18)
(0.003 2.82457e-19 1.74884e-18)
(0.003 1.29464e-19 1.6664e-18)
(0.003 3.42816e-20 1.70209e-18)
(0.003 -7.99714e-20 1.61778e-18)
(0.003 3.03353e-20 1.49301e-18)
(0.003 2.58002e-19 1.39372e-18)
(0.003 2.41361e-19 1.31505e-18)
(0.003 1.26723e-19 1.10579e-18)
(0.003 5.59869e-20 9.63191e-19)
(0.003 2.04968e-19 1.0248e-18)
(0.003 2.83666e-19 9.98801e-19)
(0.003 2.66151e-19 1.11759e-18)
(0.003 1.3166e-20 1.09885e-18)
(0.003 -2.13281e-19 1.05533e-18)
(0.003 -1.62705e-19 8.39242e-19)
(0.003 -3.66118e-20 7.871e-19)
(0.003 -2.00615e-20 7.59781e-19)
(0.003 6.24674e-20 6.58502e-19)
(0.003 1.24091e-19 6.97244e-19)
(0.003 7.16746e-20 5.78456e-19)
(0.003 8.23554e-20 4.61016e-19)
(0.003 5.16154e-20 3.99057e-19)
(0.003 -5.65901e-20 3.93738e-19)
(0.003 -1.77156e-19 4.20335e-19)
(0.003 -2.48461e-19 3.87198e-19)
(0.003 -3.07596e-19 1.51748e-19)
(0.003 -2.32881e-19 -2.20636e-19)
(0.003 4.48265e-20 -3.32287e-19)
(0.003 6.60037e-20 -2.08076e-19)
(0.003 -7.83131e-20 -3.57428e-19)
(0.003 -8.61211e-20 -5.29218e-19)
(0.003 -2.07606e-19 9.22173e-19)
(0.003 -2.04931e-19 1.68747e-18)
(0.003 -1.55507e-19 2.04737e-18)
(0.003 -1.50695e-20 2.02252e-18)
(0.003 2.77279e-20 1.98222e-18)
(0.003 -7.51849e-20 2.09105e-18)
(0.003 -1.88582e-19 2.04763e-18)
(0.003 -1.92042e-19 1.99205e-18)
(0.003 2.2167e-20 2.02418e-18)
(0.003 1.68254e-19 1.89182e-18)
(0.003 1.31304e-19 1.66534e-18)
(0.003 3.27613e-20 1.64189e-18)
(0.003 8.45402e-20 1.59716e-18)
(0.003 6.22266e-20 1.50367e-18)
(0.003 1.28183e-19 1.49721e-18)
(0.003 1.33168e-19 1.37191e-18)
(0.003 1.06501e-19 1.14914e-18)
(0.003 1.61307e-19 8.87201e-19)
(0.003 2.57746e-19 9.33179e-19)
(0.003 3.05921e-19 1.02968e-18)
(0.003 8.36218e-20 1.11885e-18)
(0.003 -2.27869e-19 1.15434e-18)
(0.003 -2.68286e-19 9.98758e-19)
(0.003 -8.2863e-20 8.07811e-19)
(0.003 -4.77367e-20 8.36151e-19)
(0.003 7.05456e-20 8.41149e-19)
(0.003 1.41157e-19 7.9873e-19)
(0.003 4.53053e-20 6.55146e-19)
(0.003 9.48677e-20 5.51596e-19)
(0.003 1.35524e-19 4.87143e-19)
(0.003 1.08882e-19 3.76035e-19)
(0.003 -1.60159e-19 3.31762e-19)
(0.003 -1.85351e-19 3.479e-19)
(0.003 -8.08578e-20 3.82715e-19)
(0.003 -1.38181e-19 1.97885e-19)
(0.003 -1.45163e-19 2.06557e-21)
(0.003 -1.19507e-19 -1.87896e-19)
(0.003 2.09595e-20 -1.80127e-19)
(0.003 1.24589e-19 -3.45751e-19)
(0.003 1.13697e-19 -4.45361e-19)
(0.003 -1.29413e-19 9.42139e-19)
(0.003 -1.70101e-19 1.612e-18)
(0.003 -1.71822e-19 1.89572e-18)
(0.003 1.11491e-20 2.06157e-18)
(0.003 -9.66577e-22 2.11956e-18)
(0.003 -2.5754e-19 2.06468e-18)
(0.003 -2.53322e-19 2.04914e-18)
(0.003 -7.98008e-20 2.08888e-18)
(0.003 6.61901e-20 2.041e-18)
(0.003 6.29403e-20 1.8838e-18)
(0.003 4.25786e-20 1.69745e-18)
(0.003 1.19445e-19 1.67146e-18)
(0.003 1.3484e-19 1.619e-18)
(0.003 1.48851e-19 1.54047e-18)
(0.003 2.85532e-20 1.49573e-18)
(0.003 -1.64143e-20 1.38914e-18)
(0.003 5.31296e-20 1.21574e-18)
(0.003 2.15271e-19 1.01889e-18)
(0.003 3.01288e-19 1.02732e-18)
(0.003 1.11835e-19 1.00294e-18)
(0.003 -1.26937e-19 1.04857e-18)
(0.003 -1.85007e-19 1.00935e-18)
(0.003 -8.86527e-20 1.02306e-18)
(0.003 -3.08638e-20 9.38659e-19)
(0.003 -9.25306e-20 7.84864e-19)
(0.003 -5.30288e-20 7.65297e-19)
(0.003 1.34013e-19 7.77541e-19)
(0.003 1.82041e-19 6.65877e-19)
(0.003 1.65485e-19 5.07232e-19)
(0.003 4.84965e-20 5.19204e-19)
(0.003 -2.72849e-20 4.30951e-19)
(0.003 -8.90005e-20 2.40621e-19)
(0.003 -7.17886e-20 3.01373e-19)
(0.003 2.75633e-21 4.54957e-19)
(0.003 3.91289e-20 2.3244e-19)
(0.003 -2.56456e-20 9.77573e-20)
(0.003 -3.37458e-20 -1.39786e-20)
(0.003 -5.00554e-20 -1.23337e-19)
(0.003 1.08896e-19 -2.83398e-19)
(0.003 2.29273e-19 -3.69627e-19)
(0.003 1.03105e-19 9.90615e-19)
(0.003 7.71216e-20 1.61229e-18)
(0.003 -3.37593e-20 1.80899e-18)
(0.003 -1.77538e-19 1.93783e-18)
(0.003 -2.57799e-19 2.09525e-18)
(0.003 -1.94613e-19 2.04523e-18)
(0.003 -7.75509e-20 2.01065e-18)
(0.003 -5.42842e-20 2.09115e-18)
(0.003 -6.60416e-20 2.10598e-18)
(0.003 2.26552e-20 1.99014e-18)
(0.003 1.57907e-19 1.78006e-18)
(0.003 1.70151e-19 1.77049e-18)
(0.003 1.92611e-19 1.56903e-18)
(0.003 2.24982e-19 1.57221e-18)
(0.003 1.17569e-21 1.56196e-18)
(0.003 -2.02453e-19 1.43314e-18)
(0.003 -1.68209e-19 1.19062e-18)
(0.003 -9.12665e-20 9.68082e-19)
(0.003 4.74882e-20 1.05895e-18)
(0.003 5.8346e-21 9.65304e-19)
(0.003 -9.56501e-20 9.87741e-19)
(0.003 -4.63062e-20 1.06632e-18)
(0.003 -1.65214e-20 1.10186e-18)
(0.003 5.78628e-20 9.72812e-19)
(0.003 1.37121e-19 7.42004e-19)
(0.003 4.3591e-21 6.76136e-19)
(0.003 3.06306e-20 7.98525e-19)
(0.003 9.32148e-20 7.68263e-19)
(0.003 7.84809e-20 5.45685e-19)
(0.003 -2.27377e-20 4.10298e-19)
(0.003 -6.49637e-20 4.34174e-19)
(0.003 -2.06607e-20 3.00537e-19)
(0.003 1.15666e-20 2.8407e-19)
(0.003 2.43145e-20 3.91828e-19)
(0.003 1.09749e-19 3.10022e-19)
(0.003 1.24494e-19 2.03029e-19)
(0.003 5.62516e-20 4.11734e-20)
(0.003 -1.27776e-20 -2.60702e-19)
(0.003 -1.79566e-20 -4.79453e-19)
(0.003 -2.23969e-21 -4.7279e-19)
(0.003 3.56333e-19 9.61553e-19)
(0.003 2.34075e-19 1.55083e-18)
(0.003 -5.91515e-20 1.71447e-18)
(0.003 -1.50586e-19 1.85542e-18)
(0.003 -1.14707e-19 2.00934e-18)
(0.003 -7.39242e-20 2.02516e-18)
(0.003 1.25504e-20 2.01852e-18)
(0.003 -8.43449e-20 2.03379e-18)
(0.003 -1.95175e-19 2.0501e-18)
(0.003 -6.83449e-20 2.08446e-18)
(0.003 1.31634e-19 1.95318e-18)
(0.003 1.23276e-19 1.85403e-18)
(0.003 1.97614e-19 1.68619e-18)
(0.003 2.4745e-19 1.59375e-18)
(0.003 -4.28701e-20 1.50163e-18)
(0.003 -1.76842e-19 1.33192e-18)
(0.003 -1.53277e-19 1.14886e-18)
(0.003 -1.44107e-19 9.56867e-19)
(0.003 -2.10172e-19 1.13253e-18)
(0.003 -1.21201e-19 1.05413e-18)
(0.003 -1.00489e-19 1.03274e-18)
(0.003 -1.54863e-19 1.04037e-18)
(0.003 -7.32723e-21 1.04165e-18)
(0.003 1.02227e-19 9.79734e-19)
(0.003 2.32527e-19 8.72791e-19)
(0.003 1.93611e-19 7.0978e-19)
(0.003 -3.36401e-20 6.67134e-19)
(0.003 1.29551e-20 6.88106e-19)
(0.003 -5.63493e-21 6.1545e-19)
(0.003 -6.823e-20 4.30187e-19)
(0.003 -1.4222e-20 3.99408e-19)
(0.003 4.47097e-20 2.89271e-19)
(0.003 5.37708e-22 2.75305e-19)
(0.003 3.68511e-20 3.72542e-19)
(0.003 1.95398e-19 3.66617e-19)
(0.003 2.13319e-19 2.41891e-19)
(0.003 2.96344e-20 -9.39514e-20)
(0.003 -2.84266e-20 -3.17455e-19)
(0.003 -8.90545e-20 -4.01999e-19)
(0.003 -1.55937e-19 -3.68823e-19)
(0.003 2.89277e-19 1.01782e-18)
(0.003 2.74182e-19 1.60805e-18)
(0.003 -3.35046e-21 1.73209e-18)
(0.003 -1.38877e-20 1.76938e-18)
(0.003 7.23671e-20 1.95619e-18)
(0.003 8.82953e-20 1.96507e-18)
(0.003 1.85751e-20 1.97614e-18)
(0.003 -8.89746e-20 1.99004e-18)
(0.003 -1.43686e-19 2.00625e-18)
(0.003 -1.92139e-19 2.08439e-18)
(0.003 -7.75398e-20 2.01599e-18)
(0.003 6.81953e-20 1.83057e-18)
(0.003 1.06484e-19 1.74586e-18)
(0.003 -8.53608e-20 1.68975e-18)
(0.003 -1.51737e-19 1.51976e-18)
(0.003 -1.3649e-19 1.36664e-18)
(0.003 -2.26198e-19 1.18209e-18)
(0.003 -2.22264e-19 9.83725e-19)
(0.003 -2.8672e-19 1.01407e-18)
(0.003 -1.39772e-19 1.03257e-18)
(0.003 -5.37373e-20 1.09235e-18)
(0.003 -4.22708e-20 1.04822e-18)
(0.003 9.10471e-20 1.07324e-18)
(0.003 1.26737e-19 9.49463e-19)
(0.003 1.24587e-19 8.3566e-19)
(0.003 2.29353e-19 7.56887e-19)
(0.003 5.91849e-20 7.32182e-19)
(0.003 2.72658e-20 7.67025e-19)
(0.003 -2.63307e-20 5.74507e-19)
(0.003 -8.24439e-20 3.76366e-19)
(0.003 3.31468e-20 4.01908e-19)
(0.003 1.51277e-19 3.13502e-19)
(0.003 2.40571e-22 1.97735e-19)
(0.003 4.41193e-21 3.1343e-19)
(0.003 2.34568e-19 4.75996e-19)
(0.003 1.68626e-19 2.19699e-19)
(0.003 1.51837e-19 -2.77657e-19)
(0.003 4.33513e-20 -4.32405e-19)
(0.003 -2.74143e-21 -3.26361e-19)
(0.003 -7.89048e-21 -2.66652e-19)
(0.003 -3.3934e-20 1.06492e-18)
(0.003 1.65619e-20 1.69253e-18)
(0.003 1.38768e-19 1.766e-18)
(0.003 5.57702e-20 1.76473e-18)
(0.003 -1.6775e-20 1.83248e-18)
(0.003 1.4662e-19 2.00767e-18)
(0.003 8.04178e-20 1.99041e-18)
(0.003 3.17035e-20 1.86266e-18)
(0.003 -7.26547e-20 1.95419e-18)
(0.003 -1.55553e-19 2.0099e-18)
(0.003 -9.45115e-20 1.991e-18)
(0.003 -1.11449e-19 1.91606e-18)
(0.003 -2.55069e-19 1.8108e-18)
(0.003 -2.38772e-19 1.54409e-18)
(0.003 -1.14954e-19 1.38658e-18)
(0.003 -1.41338e-19 1.26044e-18)
(0.003 -2.13692e-19 1.1234e-18)
(0.003 -2.1918e-19 1.02278e-18)
(0.003 -1.92524e-19 1.06462e-18)
(0.003 -2.11105e-19 1.09868e-18)
(0.003 -1.44176e-19 1.07084e-18)
(0.003 1.00769e-19 1.02694e-18)
(0.003 1.10995e-19 1.08038e-18)
(0.003 6.18736e-20 1.01737e-18)
(0.003 1.61661e-19 9.16304e-19)
(0.003 9.2901e-20 8.61354e-19)
(0.003 3.31857e-20 7.64261e-19)