/*--------------------------------*- C++ -*----------------------------------*\
| =========                 |                                                 |
| \\      /  F ield         | OpenFOAM: The Open Source CFD Toolbox           |
|  \\    /   O peration     | Version:  v2012                                 |
|   \\  /    A nd           | Website:  www.openfoam.com                      |
|    \\/     M anipulation  |                                                 |
\*---------------------------------------------------------------------------*/
FoamFile
{
    version     2.0;
    format      ascii;
    class       volScalarField;
    location    "650/bottomWater";
    object      p;
}
// * * * * * * * * * * * * * * * * * * * * * * * * * * * * * * * * * * * * * //

dimensions      [1 -1 -2 0 0 0 0];


internalField   nonuniform List<scalar> 
1460
(
353.43075
353.44875
353.43015
353.43712
353.45089
353.44605
353.44662
353.4525
353.44615
353.42934
353.44308
353.4296
353.43484
353.45346
353.45148
353.4709
353.47369
353.47521
353.4779
353.47138
353.49023
353.47417
353.47239
353.46633
353.47017
353.47596
353.456
353.49398
353.47466
353.45853
274.45887
274.48491
274.45338
274.48114
274.50377
274.44784
274.42619
274.45377
274.4572
274.44188
274.43277
274.44327
274.46379
274.50073
274.48842
274.48016
274.44416
274.38944
274.39619
274.4099
274.47814
274.45969
274.43038
274.41576
274.40555
274.40566
274.40011
274.47691
274.46435
274.429
196.30584
196.27053
196.30213
196.25701
196.23245
196.26065
196.26552
196.32136
196.23041
196.28974
196.28883
196.28967
196.25043
196.25413
196.26043
196.24466
196.23756
196.27589
196.29499
196.26849
196.23106
196.26007
196.30197
196.30929
196.3241
196.30692
196.275
196.25
196.25572
196.31683
117.67947
117.68957
117.68262
117.6566
117.65328
117.63624
117.6795
117.65789
117.66107
117.66768
117.70797
117.68634
117.67093
117.69828
117.65818
117.64906
117.6285
117.67564
117.69357
117.62484
117.6491
117.65585
117.67887
117.65684
117.66049
117.67406
117.64692
117.64889
117.65825
117.68747
39.236606
39.227371
39.229769
39.218871
39.252629
39.258657
39.255874
39.250629
39.241126
39.227051
39.232577
39.228854
39.246368
39.237559
39.221175
39.239557
39.256346
39.264845
39.274318
39.268145
39.255757
39.222151
39.232343
39.239498
39.249286
39.256543
39.24765
39.252008
39.224785
39.232436
353.43374
353.43661
353.42646
353.44567
353.45467
353.45342
353.45195
353.45958
353.44689
353.43123
353.44485
353.43373
353.43442
353.43347
353.42843
353.47685
353.4771
353.48147
353.47657
353.47723
353.48795
353.46951
353.47866
353.47791
353.47456
353.47371
353.45921
353.46463
353.45846
353.45936
274.43675
274.43846
274.44004
274.48973
274.49623
274.43713
274.42036
274.50332
274.46321
274.43162
274.42874
274.43277
274.43235
274.44609
274.43435
274.49631
274.46751
274.39116
274.39713
274.43267
274.44055
274.41608
274.40101
274.44245
274.45344
274.44977
274.40455
274.43632
274.41126
274.40917
196.30131
196.27403
196.27923
196.23018
196.23036
196.27537
196.27501
196.24349
196.22743
196.27158
196.30196
196.31186
196.30402
196.29856
196.26847
196.22528
196.22587
196.27433
196.28101
196.27073
196.22873
196.27
196.31488
196.26721
196.26569
196.25527
196.28889
196.29914
196.28776
196.31192
117.67305
117.66844
117.66546
117.64742
117.65777
117.64142
117.68346
117.65271
117.66189
117.65959
117.69065
117.68889
117.68906
117.67588
117.65056
117.65309
117.64153
117.6633
117.68667
117.63801
117.67303
117.64043
117.69515
117.66555
117.64772
117.62545
117.64956
117.61037
117.6163
117.64329
39.241848
39.238336
39.230659
39.234943
39.245983
39.251291
39.256706
39.260298
39.258176
39.239905
39.231494
39.232031
39.229305
39.219942
39.217955
39.239426
39.239395
39.246134
39.254549
39.241762
39.246151
39.240015
39.231361
39.22161
39.21991
39.256429
39.235783
39.280876
39.259809
39.237957
353.43282
353.44159
353.4255
353.45022
353.44544
353.43962
353.44077
353.43455
353.42945
353.43073
353.44034
353.42843
353.44108
353.41716
353.44386
353.46926
353.46169
353.47029
353.47003
353.4647
353.46697
353.46962
353.47375
353.45361
353.45705
353.45823
353.45756
353.45845
353.46153
353.46046
274.43848
274.42904
274.43551
274.46794
274.46342
274.43554
274.42088
274.45909
274.43352
274.42199
274.41984
274.42965
274.43242
274.43091
274.47339
274.47381
274.39364
274.38882
274.38975
274.39574
274.3956
274.39672
274.43973
274.41724
274.41109
274.40057
274.39224
274.39111
274.39417
274.40362
196.32031
196.29555
196.27972
196.25625
196.24373
196.27461
196.28766
196.28849
196.28643
196.28362
196.30978
196.30528
196.28692
196.25975
196.23117
196.23088
196.24521
196.29247
196.32451
196.30369
196.30327
196.31164
196.27856
196.31734
196.28744
196.30886
196.31155
196.31243
196.31521
196.33312
117.68489
117.68503
117.67151
117.66748
117.66208
117.64164
117.68132
117.63157
117.63578
117.66924
117.69175
117.69986
117.6914
117.6518
117.64687
117.65945
117.63327
117.67953
117.67521
117.65639
117.65941
117.66
117.64874
117.66026
117.65669
117.6687
117.66686
117.67665
117.66989
117.6685
39.261046
39.253417
39.245498
39.232818
39.242277
39.248466
39.251996
39.284278
39.274095
39.246376
39.254333
39.232743
39.231644
39.22374
39.239708
39.25529
39.257265
39.267143
39.269696
39.260572
39.259007
39.252421
39.23709
39.237358
39.246853
39.252255
39.255041
39.259721
39.254975
39.24984
353.43339
353.43167
353.42556
353.43561
353.43622
353.4337
353.45929
353.4384
353.44012
353.4289
353.43166
353.43309
353.4412
353.42944
353.43731
353.43795
353.44879
353.46312
353.46166
353.47317
353.46381
353.46723
353.46888
353.45824
353.45514
353.46359
353.46106
353.48196
353.45794
353.46461
274.43359
274.42918
274.43934
274.44308
274.43239
274.44025
274.46433
274.46412
274.43456
274.44532
274.42837
274.43079
274.42594
274.42359
274.42948
274.44035
274.40724
274.39896
274.4121
274.42987
274.39831
274.39411
274.39243
274.42129
274.40803
274.41814
274.42598
274.45291
274.41158
274.40671
196.31041
196.28195
196.28509
196.27877
196.28751
196.30524
196.25943
196.29814
196.28336
196.30179
196.29142
196.33002
196.31625
196.29466
196.28767
196.27763
196.30723
196.2871
196.29479
196.25471
196.28298
196.31063
196.31214
196.28511
196.32665
196.30383
196.30577
196.26777
196.30227
196.32028
117.67898
117.67297
117.64905
117.62369
117.68085
117.65345
117.63624
117.61737
117.67078
117.61858
117.6466
117.6668
117.68159
117.63904
117.64094
117.64691
117.6603
117.68076
117.63231
117.63561
117.65319
117.66461
117.65787
117.62613
117.64722
117.61116
117.58933
117.62162
117.60405
117.65997
39.256232
39.251344
39.261347
39.268976
39.234406
39.239344
39.236821
39.267024
39.2589
39.264516
39.240429
39.227889
39.23646
39.24211
39.280186
39.251979
39.236205
39.264642
39.27038
39.261054
39.23365
39.270826
39.242693
39.242636
39.227196
39.236064
39.263945
39.272701
39.23959
39.23278
353.4394
353.42801
353.45104
353.44503
353.45184
353.4441
353.4521
353.45722
353.44765
353.46079
353.44512
353.43512
353.4425
353.46081
353.45899
353.47517
353.47429
353.47732
353.47615
353.48237
353.47495
353.47559
353.46512
353.46859
353.47708
353.46428
274.43071
274.43813
274.46044
274.41957
274.41907
274.42465
274.45096
274.4807
274.48633
274.51315
274.45457
274.44032
274.44446
274.43579
274.42522
274.46068
274.44303
274.40203
274.41161
274.44849
274.47087
274.45244
274.4262
274.43744
274.43751
274.41419
196.28169
196.25658
196.2266
196.29097
196.27662
196.29416
196.26763
196.26267
196.26239
196.23647
196.24011
196.28436
196.28859
196.2858
196.29013
196.27301
196.26052
196.26568
196.27651
196.22329
196.25319
196.26124
196.31121
196.32774
196.26932
196.31782
117.68973
117.67048
117.67307
117.68016
117.69823
117.66358
117.68024
117.66006
117.66134
117.65505
117.66303
117.67373
117.68506
117.60874
117.61625
117.65073
117.65166
117.65437
117.64696
117.63638
117.65353
117.65987
117.64126
117.61484
117.63472
117.65842
39.25355
39.261238
39.256351
39.239508
39.238812
39.231915
39.225523
39.22563
39.22722
39.242253
39.221881
39.227584
39.229528
39.255593
39.233238
39.226265
39.2227
39.237036
39.238268
39.243493
39.227122
39.220658
39.230465
39.260131
39.215619
39.22388
353.4554
353.45152
353.47595
353.44228
353.45373
353.45434
353.4526
353.45149
353.45789
353.46227
353.44899
353.44683
353.44048
353.48917
353.48676
353.4897
353.48521
353.48352
353.48597
353.48762
353.49048
353.48452
353.48809
353.47284
353.4725
353.47194
274.42782
274.46566
274.49913
274.42664
274.4101
274.41024
274.42372
274.4212
274.47414
274.49387
274.43792
274.42849
274.4432
274.46902
274.47304
274.48098
274.46385
274.43934
274.39268
274.41446
274.44965
274.46033
274.45973
274.42448
274.40431
274.39862
196.27759
196.2384
196.2278
196.25327
196.27457
196.30184
196.283
196.27207
196.26337
196.24858
196.27421
196.29462
196.31084
196.262
196.26822
196.26789
196.25931
196.25565
196.26698
196.27541
196.22518
196.26383
196.26051
196.26733
196.2929
196.32761
117.68754
117.66897
117.6772
117.65905
117.70415
117.70086
117.68337
117.66959
117.66059
117.64671
117.64175
117.67386
117.67275
117.66235
117.6717
117.68501
117.66766
117.6332
117.67887
117.62258
117.63517
117.65796
117.65709
117.61405
117.63378
117.66913
39.251546
39.25447
39.252529
39.244542
39.245296
39.257681
39.245626
39.238464
39.235096
39.257576
39.252101
39.230423
39.235612
39.217066
39.218089
39.229799
39.231574
39.260078
39.248564
39.262557
39.243698
39.217032
39.202861
39.244984
39.234067
39.22736
353.46282
353.46438
353.47665
353.44146
353.4573
353.45542
353.45728
353.45652
353.45999
353.47344
353.44602
353.45308
353.45782
353.47017
353.46183
353.46823
353.45755
353.46171
353.46606
353.47535
353.47603
353.46595
353.47394
353.47486
353.4694
353.47143
353.48231
353.4717
353.47134
353.47133
274.4248
274.47979
274.49065
274.42207
274.42346
274.41761
274.41559
274.4049
274.43316
274.46228
274.43584
274.44205
274.45721
274.43746
274.39978
274.39968
274.39947
274.40973
274.44213
274.47469
274.44409
274.40269
274.39553
274.3903
274.40394
274.39386
274.44173
274.41084
274.38951
274.39122
196.27855
196.23933
196.22931
196.28819
196.30221
196.29156
196.29876
196.26355
196.24856
196.23464
196.27109
196.29143
196.26161
196.25964
196.28078
196.31076
196.29726
196.26169
196.23298
196.26651
196.24517
196.25547
196.28827
196.31052
196.26485
196.30698
196.23782
196.29071
196.2783
196.32196
117.68352
117.65736
117.66955
117.67397
117.691
117.66851
117.68253
117.67158
117.6274
117.66363
117.64981
117.66499
117.66927
117.63127
117.65202
117.6681
117.68043
117.63884
117.64907
117.66821
117.66192
117.62992
117.67369
117.66347
117.63581
117.63759
117.62439
117.61266
117.6368
117.67492
39.24645
39.246522
39.233852
39.218071
39.232389
39.230474
39.245037
39.238146
39.251129
39.269567
39.250487
39.23845
39.222174
39.250527
39.24836
39.26236
39.26571
39.262448
39.255292
39.23226
39.245819
39.254686
39.25524
39.254593
39.26723
39.231925
39.258812
39.282138
39.226944
39.240133
353.46063
353.4617
353.46846
353.4514
353.44002
353.46557
353.46203
353.4722
353.47073
353.47412
353.47765
353.46443
353.47092
353.46187
353.46047
353.46415
353.46798
353.47264
353.45909
353.49497
353.47975
353.48473
353.48316
353.48383
353.47953
353.47599
353.471
353.48001
353.4614
353.47023
274.42807
274.46414
274.48026
274.43442
274.43394
274.45652
274.43291
274.40872
274.39847
274.411
274.4498
274.4641
274.46199
274.42693
274.4263
274.38841
274.39662
274.40328
274.41833
274.43817
274.39963
274.38338
274.38112
274.37506
274.38117
274.38444
274.39554
274.43537
274.41012
274.39572
196.29257
196.25627
196.26448
196.29779
196.29048
196.24035
196.26164
196.28581
196.28361
196.25467
196.23436
196.25302
196.2713
196.29796
196.28625
196.28395
196.33431
196.28912
196.27055
196.25379
196.26659
196.28377
196.30997
196.31412
196.29791
196.27848
196.30842
196.24191
196.26704
196.29248
117.68393
117.66886
117.69587
117.69131
117.66404
117.65456
117.63626
117.69047
117.67929
117.62644
117.64381
117.66027
117.66519
117.63906
117.62479
117.65586
117.68131
117.68301
117.64069
117.67661
117.64205
117.68215
117.699
117.69618
117.67807
117.68542
117.64299
117.64521
117.61805
117.6685
39.243803
39.237797
39.227762
39.230088
39.229944
39.246543
39.261091
39.258506
39.270602
39.266565
39.253839
39.237569
39.229289
39.247958
39.259824
39.263277
39.282207
39.264187
39.275067
39.250696
39.269218
39.267735
39.279051
39.280761
39.26025
39.262866
39.227106
39.25331
39.25826
39.251705
353.46141
353.46598
353.46818
353.45162
353.45675
353.46387
353.46997
353.4697
353.47178
353.47376
353.46881
353.48376
353.45153
353.46304
353.45534
353.47345
353.46581
353.47472
353.45454
353.48967
353.47262
353.47733
353.46518
353.47034
353.46412
353.4708
353.46806
353.5014
353.47057
353.48249
274.42965
274.46629
274.46789
274.4433
274.43898
274.4704
274.45669
274.40697
274.40054
274.39506
274.41233
274.45034
274.42278
274.41719
274.44102
274.4299
274.39212
274.40381
274.41096
274.4239
274.38556
274.39149
274.40048
274.40552
274.40678
274.40767
274.42007
274.45689
274.40391
274.39304
196.28079
196.24727
196.25597
196.26411
196.27081
196.24836
196.24381
196.25843
196.30519
196.2704
196.26125
196.23224
196.2913
196.29731
196.28833
196.26114
196.29946
196.2864
196.27373
196.23723
196.29373
196.29087
196.27687
196.28605
196.29225
196.29732
196.28787
196.23138
196.25886
196.28827
117.66255
117.65556
117.67596
117.6542
117.65905
117.66628
117.65056
117.6555
117.68399
117.67808
117.62235
117.63461
117.66011
117.66496
117.64676
117.61422
117.66105
117.67248
117.65848
117.65008
117.66912
117.6539
117.60813
117.6075
117.61073
117.64806
117.63458
117.62827
117.60096
117.6812
39.243722
39.235944
39.217476
39.235011
39.254123
39.235247
39.261695
39.260797
39.281521
39.267159
39.260502
39.24795
39.238822
39.232171
39.240349
39.25724
39.252184
39.250472
39.23981
39.249261
39.248551
39.240864
39.261406
39.263952
39.240195
39.224453
39.230301
39.251365
39.262623
39.268692
353.44968
353.44912
353.44771
353.45127
353.45167
353.45309
353.44956
353.48416
353.46943
353.47665
353.47177
353.47363
353.47249
353.47129
353.46938
353.47132
353.46528
353.46615
353.47543
353.48987
353.47604
353.48374
353.49088
353.48645
353.48326
353.49711
353.47665
353.49904
353.47066
353.48185
274.41864
274.43215
274.43302
274.41308
274.41227
274.42492
274.44067
274.45155
274.42205
274.40004
274.39835
274.42982
274.46304
274.474
274.47212
274.45059
274.41401
274.44132
274.44017
274.41111
274.39558
274.41735
274.46755
274.46786
274.4672
274.47636
274.46335
274.47295
274.41469
274.39969
196.31548
196.2901
196.28529
196.3007
196.31776
196.27722
196.28819
196.23794
196.28933
196.28767
196.26537
196.23908
196.25645
196.25911
196.27002
196.25856
196.27619
196.31023
196.24108
196.28236
196.26104
196.24084
196.23936
196.25395
196.25846
196.25175
196.27933
196.24736
196.25387
196.28108
117.68129
117.63827
117.63759
117.69956
117.70857
117.679
117.65321
117.66947
117.64413
117.69869
117.67385
117.61106
117.66131
117.67878
117.67315
117.63501
117.65808
117.65713
117.68288
117.6572
117.69815
117.65663
117.66054
117.663
117.67925
117.70635
117.64098
117.63884
117.6017
117.68233
39.26329
39.284383
39.251899
39.247488
39.268575
39.238089
39.25656
39.272764
39.292719
39.272256
39.257399
39.242941
39.226321
39.230993
39.237579
39.247975
39.238756
39.23394
39.225279
39.241326
39.241821
39.229024
39.243103
39.237305
39.234357
39.233212
39.210323
39.238723
39.258003
39.266496
)
;

boundaryField
{
    minX
    {
        type            calculated;
        value           nonuniform List<scalar> 
50
(
353.43075
274.45887
196.30584
117.67947
39.236606
353.43374
274.43675
196.30131
117.67305
39.241848
353.43282
274.43848
196.32031
117.68489
39.261046
353.43339
274.43359
196.31041
117.67898
39.256232
353.4394
274.43071
196.28169
117.68973
39.25355
353.4554
274.42782
196.27759
117.68754
39.251546
353.46282
274.4248
196.27855
117.68352
39.24645
353.46063
274.42807
196.29257
117.68393
39.243803
353.46141
274.42965
196.28079
117.66255
39.243722
353.44968
274.41864
196.31548
117.68129
39.26329
)
;
    }
    maxX
    {
        type            calculated;
        value           nonuniform List<scalar> 
50
(
353.45853
274.429
196.31683
117.68747
39.232436
353.45936
274.40917
196.31192
117.64329
39.237957
353.46046
274.40362
196.33312
117.6685
39.24984
353.46461
274.40671
196.32028
117.65997
39.23278
353.46428
274.41419
196.31782
117.65842
39.22388
353.47194
274.39862
196.32761
117.66913
39.22736
353.47133
274.39122
196.32196
117.67492
39.240133
353.47023
274.39572
196.29248
117.6685
39.251705
353.48249
274.39304
196.28827
117.6812
39.268692
353.48185
274.39969
196.28108
117.68233
39.266496
)
;
    }
    minY
    {
        type            calculated;
        value           nonuniform List<scalar> 
292
(
392.4
392.4
392.4
392.4
392.4
392.4
392.4
392.4
392.4
392.4
392.4
392.4
392.4
392.4
392.4
392.4
392.4
392.4
392.4
392.4
392.4
392.4
392.4
392.4
392.4
392.4
392.4
392.4
392.4
392.4
392.4
392.4
392.4
392.4
392.4
392.4
392.4
392.4
392.4
392.4
392.4
392.4
392.4
392.4
392.4
392.4
392.4
392.4
392.4
392.4
392.4
392.4
392.4
392.4
392.4
392.4
392.4
392.4
392.4
392.4
392.4
392.4
392.4
392.4
392.4
392.4
392.4
392.4
392.4
392.4
392.4
392.4
392.4
392.4
392.4
392.4
392.4
392.4
392.4
392.4
392.4
392.4
392.4
392.4
392.4
392.4
392.4
392.4
392.4
392.4
392.4
392.4
392.4
392.4
392.4
392.4
392.4
392.4
392.4
392.4
392.4
392.4
392.4
392.4
392.4
392.4
392.4
392.4
392.4
392.4
392.4
392.4
392.4
392.4
392.4
392.4
392.4
392.4
392.4
392.4
392.4
392.4
392.4
392.4
392.4
392.4
392.4
392.4
392.4
392.4
392.4
392.4
392.4
392.4
392.4
392.4
392.4
392.4
392.4
392.4
392.4
392.4
392.4
392.4
392.4
392.4
392.4
392.4
392.4
392.4
392.4
392.4
392.4
392.4
392.4
392.4
392.4
392.4
392.4
392.4
392.4
392.4
392.4
392.4
392.4
392.4
392.4
392.4
392.4
392.4
392.4
392.4
392.4
392.4
392.4
392.4
392.4
392.4
392.4
392.4
392.4
392.4
392.4
392.4
392.4
392.4
392.4
392.4
392.4
392.4
392.4
392.4
392.4
392.4
392.4
392.4
392.4
392.4
392.4
392.4
392.4
392.4
392.4
392.4
392.4
392.4
392.4
392.4
392.4
392.4
392.4
392.4
392.4
392.4
392.4
392.4
392.4
392.4
392.4
392.4
392.4
392.4
392.4
392.4
392.4
392.4
392.4
392.4
392.4
392.4
392.4
392.4
392.4
392.4
392.4
392.4
392.4
392.4
392.4
392.4
392.4
392.4
392.4
392.4
392.4
392.4
392.4
392.4
392.4
392.4
392.4
392.4
392.4
392.4
392.4
392.4
392.4
392.4
392.4
392.4
392.4
392.4
392.4
392.4
392.4
392.4
392.4
392.4
392.4
392.4
392.4
392.4
392.4
392.4
392.4
392.4
392.4
392.4
392.4
392.4
392.4
392.4
392.4
392.4
392.4
392.4
392.4
392.4
392.4
392.4
392.4
392.4
)
;
    }
    minZ
    {
        type            calculated;
        value           nonuniform List<scalar> 
150
(
353.43075
274.45887
196.30584
117.67947
39.236606
353.44875
274.48491
196.27053
117.68957
39.227371
353.43015
274.45338
196.30213
117.68262
39.229769
353.43712
274.48114
196.25701
117.6566
39.218871
353.45089
274.50377
196.23245
117.65328
39.252629
353.44605
274.44784
196.26065
117.63624
39.258657
353.44662
274.42619
196.26552
117.6795
39.255874
353.4525
274.45377
196.32136
117.65789
39.250629
353.44615
274.4572
196.23041
117.66107
39.241126
353.42934
274.44188
196.28974
117.66768
39.227051
353.44308
274.43277
196.28883
117.70797
39.232577
353.4296
274.44327
196.28967
117.68634
39.228854
353.43484
274.46379
196.25043
117.67093
39.246368
353.45346
274.50073
196.25413
117.69828
39.237559
353.45148
274.48842
196.26043
117.65818
39.221175
353.4709
274.48016
196.24466
117.64906
39.239557
353.47369
274.44416
196.23756
117.6285
39.256346
353.47521
274.38944
196.27589
117.67564
39.264845
353.4779
274.39619
196.29499
117.69357
39.274318
353.47138
274.4099
196.26849
117.62484
39.268145
353.49023
274.47814
196.23106
117.6491
39.255757
353.47417
274.45969
196.26007
117.65585
39.222151
353.47239
274.43038
196.30197
117.67887
39.232343
353.46633
274.41576
196.30929
117.65684
39.239498
353.47017
274.40555
196.3241
117.66049
39.249286
353.47596
274.40566
196.30692
117.67406
39.256543
353.456
274.40011
196.275
117.64692
39.24765
353.49398
274.47691
196.25
117.64889
39.252008
353.47466
274.46435
196.25572
117.65825
39.224785
353.45853
274.429
196.31683
117.68747
39.232436
)
;
    }
    maxZ
    {
        type            calculated;
        value           nonuniform List<scalar> 
150
(
353.44968
274.41864
196.31548
117.68129
39.26329
353.44912
274.43215
196.2901
117.63827
39.284383
353.44771
274.43302
196.28529
117.63759
39.251899
353.45127
274.41308
196.3007
117.69956
39.247488
353.45167
274.41227
196.31776
117.70857
39.268575
353.45309
274.42492
196.27722
117.679
39.238089
353.44956
274.44067
196.28819
117.65321
39.25656
353.48416
274.45155
196.23794
117.66947
39.272764
353.46943
274.42205
196.28933
117.64413
39.292719
353.47665
274.40004
196.28767
117.69869
39.272256
353.47177
274.39835
196.26537
117.67385
39.257399
353.47363
274.42982
196.23908
117.61106
39.242941
353.47249
274.46304
196.25645
117.66131
39.226321
353.47129
274.474
196.25911
117.67878
39.230993
353.46938
274.47212
196.27002
117.67315
39.237579
353.47132
274.45059
196.25856
117.63501
39.247975
353.46528
274.41401
196.27619
117.65808
39.238756
353.46615
274.44132
196.31023
117.65713
39.23394
353.47543
274.44017
196.24108
117.68288
39.225279
353.48987
274.41111
196.28236
117.6572
39.241326
353.47604
274.39558
196.26104
117.69815
39.241821
353.48374
274.41735
196.24084
117.65663
39.229024
353.49088
274.46755
196.23936
117.66054
39.243103
353.48645
274.46786
196.25395
117.663
39.237305
353.48326
274.4672
196.25846
117.67925
39.234357
353.49711
274.47636
196.25175
117.70635
39.233212
353.47665
274.46335
196.27933
117.64098
39.210323
353.49904
274.47295
196.24736
117.63884
39.238723
353.47066
274.41469
196.25387
117.6017
39.258003
353.48185
274.39969
196.28108
117.68233
39.266496
)
;
    }
    bottomWater_to_rightSolid
    {
        type            calculated;
        value           nonuniform List<scalar> 
130
(
0.024844943
0.034317689
0.028145036
0.015757146
-0.017848886
-0.0076566625
-0.00050159043
0.0092859954
0.016542934
0.0076495966
0.012007979
-0.015215308
-0.0075639307
0.006133625
0.01454912
0.0017617102
0.0061508387
1.5311664e-05
-0.0086386216
-0.018390397
-0.020089523
0.016428597
-0.0042168343
0.040875623
0.019809254
-0.0020426653
0.027143224
0.029695737
0.020571617
0.019006963
0.012420602
-0.0029099529
-0.0026420521
0.0068526378
0.012255131
0.015041306
0.019721262
0.014974538
0.0098402144
0.024641569
0.030379701
0.021053504
-0.0063497483
0.030825537
0.0026929719
0.0026364331
-0.012803883
-0.0039364352
0.023944686
0.03270109
-0.00040976458
-0.0072200109
0.015592672
-0.0067617473
-0.013735435
-0.017300276
-0.0029638881
-0.0017315675
0.0034931168
-0.012878243
-0.019342106
-0.0095346137
0.020131325
-0.02438053
-0.016120481
-0.02293393
-0.021911472
-0.01020148
-0.0084255012
0.020077783
0.0085644968
0.022557496
0.0036983715
-0.022968023
-0.037138868
0.0049843911
-0.0059329131
-0.012640321
0.022448417
0.015292147
-0.0077403935
0.0058194578
0.014685725
0.015240091
0.014593485
0.027229973
-0.0080752549
0.018812115
0.042138388
-0.013056334
0.00013347232
0.024186789
0.035066649
0.010696294
0.029218121
0.027734721
0.039051365
0.040761182
0.020250433
0.022866394
-0.012894124
0.013309663
0.018259928
0.011705406
0.010472078
-0.00018991919
0.0092610695
0.0085508516
0.00086416448
0.021406261
0.023951649
0.00019543383
-0.01554651
-0.0096993765
0.011365494
0.022623398
0.028692232
-0.0060601356
-0.014720826
0.0013261345
0.0018212719
-0.010975944
0.0031031005
-0.0026945142
-0.0056430298
-0.0067877934
-0.029677096
-0.0012770586
0.018003322
0.026496065
)
;
    }
    bottomWater_to_leftSolid
    {
        type            calculated;
        value           nonuniform List<scalar> 
130
(
-0.0033938646
-0.012629198
-0.010231066
-0.021129135
0.012629473
0.018657472
0.015874038
0.010629053
0.001126357
-0.012948928
-0.007422623
-0.011145989
0.0063683661
0.0018476725
-0.0016644028
-0.009340989
-0.0050567862
0.005983007
0.011291136
0.01670643
0.020298216
0.018175868
-9.539281e-05
-0.0085061194
-0.0079689572
-0.010694977
0.021046057
0.013416862
0.0054975222
-0.0071823884
0.0022770287
0.0084657857
0.01199587
0.044278012
0.034095348
0.0063761452
0.014332618
-0.007256894
-0.0083555059
0.016231825
0.011343571
0.02134729
0.028976488
-0.0055935293
-0.00065625052
-0.0031788986
0.027024426
0.018899734
0.02451644
0.0004289725
-0.01211095
-0.0035401832
0.013550401
0.021238201
0.016351248
-0.00049246649
-0.0011880081
-0.0080850878
-0.014477403
-0.014369763
-0.012779653
0.0022525971
-0.018119266
-0.012416084
-0.010472062
0.011546478
0.014470132
0.012528557
0.0045419045
0.0052960379
0.017681131
0.0056261685
-0.0015355202
-0.0049041299
0.017575505
0.012100545
-0.0095770909
-0.0043878538
0.0064503787
0.0065220776
-0.0061484364
-0.021929492
-0.0076110677
-0.0095263292
0.0050372467
-0.0018539605
0.011128759
0.029567394
0.010487434
-0.0015501869
-0.017826035
0.003802576
-0.0022033637
-0.012238058
-0.0099124914
-0.010055867
0.0065434323
0.021090607
0.018506221
0.030602455
0.02656547
0.013839134
-0.0024313718
-0.010711478
0.0037219808
-0.004055586
-0.022524406
-0.0049886637
0.014122525
-0.0047532919
0.021694525
0.02079672
0.04152119
0.027158965
0.020502285
0.0079502848
-0.0011775935
0.023290369
0.044383405
0.011898539
0.007488073
0.028574512
-0.0019105388
0.016560112
0.032763742
0.052719388
0.032256236
0.017399145
0.0029413397
-0.013678633
)
;
    }
    bottomWater_to_heater
    {
        type            calculated;
        value           nonuniform List<scalar> 
92
(
-0.0024408422
-0.018825349
-0.00044252942
0.016346302
-0.020058191
-0.022044612
-0.00057423937
-0.00060477841
-0.016260497
-0.00029200015
0.015290388
0.017264542
353.42944
353.43731
353.43795
353.44879
274.42359
274.42948
274.44035
274.40724
196.29466
196.28767
196.27763
196.30723
117.63904
117.64094
117.64691
117.6603
0.0021101064
39.24211
0.040185686
39.280186
0.011978859
39.251979
-0.003794603
39.236205
353.4425
353.46081
274.44446
274.43579
196.28859
196.2858
117.68506
117.60874
39.229528
39.255593
353.44048
353.47017
353.46183
353.46823
353.48917
353.45755
274.4432
274.43746
274.39978
274.39968
274.46902
274.39947
196.31084
196.25964
196.28078
196.31076
196.262
196.29726
117.67275
117.63127
117.65202
117.6681
117.66235
117.68043
39.235612
39.250527
39.24836
39.26236
39.217066
39.26571
0.010527075
0.0083599153
0.022359843
0.025709601
0.0079578557
0.019823894
0.02327656
0.042206966
-0.0078286424
0.0003487834
0.017239671
0.012184468
-0.0090072176
-0.002420921
0.0079745533
-0.0012443263
)
;
    }
}


// ************************************************************************* //
