/*--------------------------------*- C++ -*----------------------------------*\
| =========                 |                                                 |
| \\      /  F ield         | OpenFOAM: The Open Source CFD Toolbox           |
|  \\    /   O peration     | Version:  v2012                                 |
|   \\  /    A nd           | Website:  www.openfoam.com                      |
|    \\/     M anipulation  |                                                 |
\*---------------------------------------------------------------------------*/
FoamFile
{
    version     2.0;
    format      ascii;
    class       volScalarField;
    location    "650/bottomWater";
    object      p_rgh;
}
// * * * * * * * * * * * * * * * * * * * * * * * * * * * * * * * * * * * * * //

dimensions      [1 -1 -2 0 0 0 0];


internalField   nonuniform List<scalar> 
1460
(
0.27074798
0.28874972
0.27014558
0.27712233
0.29088894
0.28604783
0.28662176
0.29250317
0.28615327
0.26933754
0.28308087
0.26960473
0.27484273
0.29346255
0.29147759
0.31089559
0.31368877
0.31520588
0.31790276
0.31137581
0.33022893
0.31416557
0.31238648
0.30633002
0.31016977
0.3159562
0.29599764
0.33398023
0.31466121
0.29853331
-0.22112705
-0.1950912
-0.22661694
-0.19886423
-0.17622719
-0.23215666
-0.25380721
-0.2262326
-0.22279912
-0.23811598
-0.24722898
-0.23672989
-0.21620662
-0.17927041
-0.19157604
-0.19984327
-0.23584069
-0.29055792
-0.2838148
-0.27010436
-0.20185604
-0.22031453
-0.24961811
-0.26424257
-0.27444644
-0.27433526
-0.27989339
-0.20308896
-0.21565454
-0.25099784
0.10584386
0.070531311
0.10212782
0.057005329
0.032452632
0.060650486
0.065524122
0.12136175
0.030412565
0.089737885
0.088834237
0.089665509
0.050432437
0.054133081
0.060425325
0.04465786
0.037561008
0.075887897
0.094991472
0.068493394
0.031058591
0.060068214
0.10196601
0.10928857
0.1241026
0.10692208
0.075003437
0.050003979
0.05572067
0.11682676
-0.040525438
-0.030427062
-0.03738135
-0.063402975
-0.066724775
-0.083762925
-0.040497113
-0.062112528
-0.058929385
-0.052317491
-0.012027223
-0.033659425
-0.049066911
-0.021720928
-0.061815955
-0.070939614
-0.091501149
-0.044356855
-0.02642773
-0.095155997
-0.070900535
-0.06415313
-0.041133427
-0.063164185
-0.059507279
-0.045938599
-0.07308272
-0.071114015
-0.061748133
-0.032530796
-0.0033938646
-0.012629198
-0.010231066
-0.021129135
0.012629473
0.018657472
0.015874038
0.010629053
0.001126357
-0.012948928
-0.007422623
-0.011145989
0.0063683661
-0.0024408422
-0.018825349
-0.00044252942
0.016346302
0.024844943
0.034317689
0.028145036
0.015757146
-0.017848886
-0.0076566625
-0.00050159043
0.0092859954
0.016542934
0.0076495966
0.012007979
-0.015215308
-0.0075639307
0.27373891
0.27660914
0.26645776
0.28566913
0.29466602
0.29342388
0.29195085
0.29957546
0.28689192
0.27122559
0.28485114
0.27372878
0.27442067
0.2734718
0.2684267
0.31684808
0.31710246
0.32147043
0.31657386
0.31723317
0.32794679
0.30950518
0.3186649
0.31790795
0.31456465
0.31371215
0.29921042
0.30463469
0.29845868
0.29935965
-0.24324697
-0.2415409
-0.23996362
-0.19026977
-0.18377299
-0.24287414
-0.2596439
-0.17668281
-0.21678865
-0.24837758
-0.25125772
-0.2472306
-0.24764669
-0.23391417
-0.24564734
-0.18369258
-0.21249212
-0.28883739
-0.2828698
-0.2473265
-0.23944768
-0.2639192
-0.27899294
-0.23754938
-0.22656284
-0.23023445
-0.27545074
-0.24368328
-0.26873898
-0.27082985
0.10130504
0.074034783
0.079230637
0.030176418
0.030359836
0.075370033
0.075005884
0.043492024
0.027430455
0.071575553
0.10195743
0.1118647
0.10401808
0.098557227
0.068472111
0.025276493
0.025867468
0.074329104
0.08100623
0.070727085
0.028734709
0.069997723
0.11487983
0.067207324
0.065690713
0.055267005
0.088887991
0.099142224
0.087755506
0.11192315
-0.046952643
-0.051563004
-0.054537284
-0.072583472
-0.062227206
-0.078577399
-0.036541297
-0.067285716
-0.058113708
-0.060405009
-0.029348643
-0.031111484
-0.030940275
-0.044123066
-0.069440174
-0.066908103
-0.078470797
-0.056698869
-0.033326505
-0.081992367
-0.046969011
-0.079566756
-0.024846904
-0.054453594
-0.072284927
-0.094552411
-0.07043986
-0.10963204
-0.10370125
-0.076713021
0.0018476725
-0.0016644028
-0.009340989
-0.0050567862
0.005983007
0.011291136
0.01670643
0.020298216
0.018175868
-9.539281e-05
-0.0085061194
-0.0079689572
-0.010694977
-0.020058191
-0.022044612
-0.00057423937
-0.00060477841
0.006133625
0.01454912
0.0017617102
0.0061508387
1.5311664e-05
-0.0086386216
-0.018390397
-0.020089523
0.016428597
-0.0042168343
0.040875623
0.019809254
-0.0020426653
0.2728237
0.2815877
0.26550006
0.29022474
0.28543833
0.27962451
0.28076648
0.27455358
0.2694518
0.27073006
0.28034085
0.2684332
0.28108477
0.2571626
0.28386448
0.30925919
0.30169291
0.31028966
0.31002996
0.3047046
0.30697299
0.30961938
0.31374658
0.29360797
0.29704633
0.29822978
0.29756195
0.29845239
0.30152706
0.30046212
-0.24152192
-0.25096463
-0.24449422
-0.21205889
-0.21657671
-0.2444585
-0.2591234
-0.22090731
-0.24647728
-0.25800951
-0.26015585
-0.25035459
-0.24758126
-0.24909092
-0.206614
-0.20618546
-0.28635899
-0.29117704
-0.29025364
-0.2842585
-0.28440287
-0.28328118
-0.24026616
-0.26276381
-0.26890884
-0.27942948
-0.28776046
-0.2888933
-0.28583293
-0.27637566
0.1203094
0.095552697
0.07971994
0.05624971
0.043731613
0.074611323
0.087661066
0.088487874
0.086428774
0.08362101
0.10977905
0.10527989
0.086915922
0.059746389
0.031172747
0.030877103
0.045214668
0.092465087
0.12451144
0.10369333
0.10326823
0.11164295
0.078563825
0.11734302
0.087442568
0.10886431
0.11154734
0.11243024
0.11520529
0.13312201
-0.035110966
-0.03496819
-0.048489364
-0.052521787
-0.057920331
-0.078362039
-0.038679178
-0.088426343
-0.084223143
-0.050763051
-0.02825471
-0.020143323
-0.028602246
-0.06820201
-0.073126745
-0.060549675
-0.086733818
-0.040474609
-0.044785232
-0.063609193
-0.06059486
-0.060000225
-0.071262787
-0.059737384
-0.063306852
-0.051297196
-0.053144514
-0.043354617
-0.050114524
-0.051497686
0.021046057
0.013416862
0.0054975222
-0.0071823884
0.0022770287
0.0084657857
0.01199587
0.044278012
0.034095348
0.0063761452
0.014332618
-0.007256894
-0.0083555059
-0.016260497
-0.00029200015
0.015290388
0.017264542
0.027143224
0.029695737
0.020571617
0.019006963
0.012420602
-0.0029099529
-0.0026420521
0.0068526378
0.012255131
0.015041306
0.019721262
0.014974538
0.0098402144
0.27339407
0.27167478
0.26555662
0.27560958
0.27621595
0.27370456
0.29928672
0.27840391
0.28011856
0.26889818
0.27166491
0.27309202
0.28120213
0.26944276
0.27730922
0.27795152
0.28878966
0.30311846
0.30166192
0.31317195
0.30381376
0.30722944
0.30888432
0.29824283
0.29513515
0.30359249
0.30105622
0.32196426
0.2979401
0.30460752
-0.24640911
-0.25082217
-0.24065668
-0.23691989
-0.24760798
-0.23974722
-0.21567143
-0.21588476
-0.24543732
-0.23467968
-0.25162526
-0.24920803
-0.25405839
-0.2564055
-0.25051927
-0.23964793
-0.27276464
-0.28103849
-0.26789821
-0.25013018
-0.28169465
-0.28588502
-0.28756719
-0.25870819
-0.27196911
-0.26186265
-0.25402387
-0.22709419
-0.26841791
-0.27328642
0.11040588
0.081949443
0.085090833
0.078772292
0.087510185
0.1052392
0.059433924
0.098141372
0.083357118
0.10179029
0.09142278
0.13001675
0.11625485
0.094661094
0.087671944
0.077627368
0.1072346
0.087100152
0.094785009
0.054710274
0.082976276
0.11062886
0.11213704
0.085114505
0.12665428
0.10382975
0.10577261
0.067769331
0.10226908
0.12027855
-0.041019351
-0.047030524
-0.070952362
-0.096307192
-0.039145936
-0.066553657
-0.083764353
-0.10263353
-0.04921732
-0.10141896
-0.073397908
-0.053198485
-0.038405507
-0.080960832
-0.079056953
-0.073087753
-0.059700382
-0.039239735
-0.087688454
-0.084393435
-0.066807997
-0.055392333
-0.062129365
-0.093866567
-0.072775744
-0.10883822
-0.13067151
-0.098384034
-0.11594585
-0.060025143
0.016231825
0.011343571
0.02134729
0.028976488
-0.0055935293
-0.00065625052
-0.0031788986
0.027024426
0.018899734
0.02451644
0.0004289725
-0.01211095
-0.0035401832
0.0021101064
0.040185686
0.011978859
-0.003794603
0.024641569
0.030379701
0.021053504
-0.0063497483
0.030825537
0.0026929719
0.0026364331
-0.012803883
-0.0039364352
0.023944686
0.03270109
-0.00040976458
-0.0072200109
0.27939934
0.26801264
0.29103886
0.28503118
0.29184483
0.28409782
0.29210405
0.29721767
0.28765146
0.30079324
0.28511787
0.27511741
0.28250074
0.3008131
0.29899439
0.3151746
0.31429242
0.3173224
0.31614685
0.32236607
0.31494634
0.31559043
0.30511609
0.30859237
0.31707718
0.30427781
-0.24929416
-0.24187104
-0.21955503
-0.26042761
-0.26092716
-0.25534883
-0.22903592
-0.19930031
-0.19367252
-0.166848
-0.22542886
-0.23967503
-0.23553961
-0.24420522
-0.25478008
-0.21931812
-0.23696885
-0.27797447
-0.26838533
-0.23150999
-0.20912948
-0.22755869
-0.25379983
-0.24255506
-0.2424934
-0.26581397
0.081693818
0.0565827
0.026600056
0.090973514
0.076615271
0.094159646
0.06762841
0.062673972
0.062392941
0.03646813
0.040114709
0.084362593
0.08859227
0.085804956
0.090127081
0.073012722
0.060520781
0.065682958
0.07650915
0.023291135
0.053188583
0.061241334
0.11120839
0.12774389
0.069324305
0.1178185
-0.030271528
-0.049522424
-0.046933329
-0.039836911
-0.021770515
-0.056417952
-0.039760145
-0.059938057
-0.058659208
-0.064946716
-0.056966654
-0.046273859
-0.03493737
-0.11126379
-0.10374981
-0.069266255
-0.068337338
-0.065625429
-0.073039604
-0.083619128
-0.066471364
-0.060133194
-0.078744039
-0.10516155
-0.0852787
-0.061584819
0.013550401
0.021238201
0.016351248
-0.00049246649
-0.0011880081
-0.0080850878
-0.014477403
-0.014369763
-0.012779653
0.0022525971
-0.018119266
-0.012416084
-0.010472062
0.015592672
-0.0067617473
-0.013735435
-0.017300276
-0.0029638881
-0.0017315675
0.0034931168
-0.012878243
-0.019342106
-0.0095346137
0.020131325
-0.02438053
-0.016120481
0.29539643
0.29152231
0.31595237
0.28228206
0.29373428
0.29433933
0.29260331
0.29148666
0.29789176
0.30227331
0.28898731
0.28683412
0.2804797
0.32916587
0.32676099
0.32969976
0.32521093
0.32351683
0.32596575
0.32762474
0.33047774
0.32451757
0.328089
0.31284433
0.31249831
0.31194442
-0.25217784
-0.21433522
-0.18087078
-0.25335722
-0.26989915
-0.26975739
-0.256276
-0.25880157
-0.20586019
-0.18612611
-0.24207663
-0.25150702
-0.23680383
-0.21098243
-0.20696259
-0.19901529
-0.21615415
-0.24066083
-0.28732055
-0.26554205
-0.23034772
-0.21967252
-0.22027134
-0.25551669
-0.27569406
-0.28138063
0.07758776
0.038396269
0.027800933
0.053265383
0.074565796
0.10184131
0.083004756
0.07206578
0.063374667
0.048584272
0.07421179
0.094622342
0.11083967
0.062004113
0.068218756
0.067894558
0.059314464
0.05564654
0.066976589
0.075405765
0.025175897
0.063830501
0.060511727
0.067331668
0.092903009
0.12760623
-0.032461423
-0.051030916
-0.042796962
-0.060948594
-0.015851649
-0.019137587
-0.036632331
-0.050406627
-0.059405536
-0.073290078
-0.078253472
-0.046136031
-0.047252259
-0.05765107
-0.048295436
-0.034994158
-0.052340603
-0.086800091
-0.041129699
-0.097419772
-0.084831342
-0.06203812
-0.06290964
-0.10594764
-0.086216187
-0.050870626
0.011546478
0.014470132
0.012528557
0.0045419045
0.0052960379
0.017681131
0.0056261685
-0.0015355202
-0.0049041299
0.017575505
0.012100545
-0.0095770909
-0.0043878538
-0.02293393
-0.021911472
-0.01020148
-0.0084255012
0.020077783
0.0085644968
0.022557496
0.0036983715
-0.022968023
-0.037138868
0.0049843911
-0.0059329131
-0.012640321
0.30281623
0.30438305
0.31665113
0.28146226
0.297303
0.29542123
0.29727534
0.29652281
0.29999356
0.31344299
0.2860223
0.2930798
0.29782322
0.31017488
0.30182871
0.30822842
0.29755052
0.30171375
0.30605904
0.3153542
0.31603388
0.30595223
0.31394498
0.31486099
0.30940381
0.311433
0.32230911
0.31169781
0.31134345
0.31133149
-0.25520393
-0.20021394
-0.18935137
-0.25793131
-0.25653534
-0.26238741
-0.26440579
-0.27510235
-0.24684
-0.21772078
-0.24416376
-0.23794679
-0.22279376
-0.2425364
-0.28022476
-0.28031604
-0.28053263
-0.27027132
-0.23786916
-0.20531033
-0.23591387
-0.27730533
-0.28447317
-0.28969712
-0.27606237
-0.286138
-0.23826753
-0.26916015
-0.29049267
-0.28878378
0.07854681
0.03933392
0.029307593
0.088185457
0.10220733
0.091561154
0.098756986
0.063553888
0.048563882
0.034644671
0.071085412
0.091427213
0.061613855
0.059640224
0.080775277
0.11075784
0.097261473
0.061685132
0.032980496
0.066506037
0.045168389
0.055470423
0.088273375
0.11052198
0.06485079
0.10698162
0.037824383
0.090714829
0.07830252
0.12195906
-0.03647617
-0.062643113
-0.050453463
-0.046031972
-0.029004745
-0.051490446
-0.03746645
-0.048422543
-0.092604242
-0.056372495
-0.07018884
-0.055013103
-0.050727117
-0.088733378
-0.067976335
-0.051904226
-0.039568138
-0.081159432
-0.070926601
-0.051786566
-0.058076168
-0.090083208
-0.046308614
-0.05653283
-0.08418947
-0.082411483
-0.095614753
-0.10733779
-0.083201411
-0.045077157
0.0064503787
0.0065220776
-0.0061484364
-0.021929492
-0.0076110677
-0.0095263292
0.0050372467
-0.0018539605
0.011128759
0.029567394
0.010487434
-0.0015501869
-0.017826035
0.010527075
0.0083599153
0.022359843
0.025709601
0.022448417
0.015292147
-0.0077403935
0.0058194578
0.014685725
0.015240091
0.014593485
0.027229973
-0.0080752549
0.018812115
0.042138388
-0.013056334
0.00013347232
0.30063162
0.30170062
0.30846381
0.29140474
0.28001951
0.30557339
0.30203469
0.31220495
0.31073143
0.3141219
0.31764537
0.30443115
0.31091635
0.30187482
0.30047353
0.30414745
0.30798223
0.31263713
0.29909405
0.33497247
0.31975115
0.32472712
0.32315898
0.32383052
0.31953034
0.31598781
0.31099596
0.32001349
0.30139974
0.3102339
-0.25193241
-0.21586372
-0.1997433
-0.24558107
-0.24605977
-0.22347835
-0.24708721
-0.27128148
-0.28152862
-0.26900405
-0.23019935
-0.21589877
-0.21800994
-0.25306557
-0.25370195
-0.29159326
-0.28338091
-0.27672479
-0.26166656
-0.24183452
-0.2803746
-0.2966229
-0.29887871
-0.30494197
-0.29883109
-0.29556187
-0.28446355
-0.24462821
-0.26988267
-0.28428298
0.09257326
0.056273343
0.064475447
0.097792209
0.09048356
0.040345267
0.061641336
0.085809702
0.083609945
0.054667865
0.034361441
0.053017452
0.071300794
0.097956049
0.086250487
0.083952841
0.13430583
0.08911896
0.070546954
0.053786001
0.066590973
0.083770286
0.10996893
0.11411995
0.097909076
0.078481944
0.10842475
0.041914853
0.067039357
0.092476119
-0.036072558
-0.051141338
-0.024133666
-0.028693901
-0.055957837
-0.065438199
-0.083739604
-0.029525192
-0.040713558
-0.093559134
-0.076188947
-0.059731928
-0.054814067
-0.080939725
-0.095208222
-0.064138792
-0.038688724
-0.036991315
-0.07930756
-0.043389117
-0.077953943
-0.037846902
-0.021002088
-0.023817971
-0.041925806
-0.034576717
-0.077008959
-0.074794762
-0.10194961
-0.051499656
0.003802576
-0.0022033637
-0.012238058
-0.0099124914
-0.010055867
0.0065434323
0.021090607
0.018506221
0.030602455
0.02656547
0.013839134
-0.0024313718
-0.010711478
0.0079578557
0.019823894
0.02327656
0.042206966
0.024186789
0.035066649
0.010696294
0.029218121
0.027734721
0.039051365
0.040761182
0.020250433
0.022866394
-0.012894124
0.013309663
0.018259928
0.011705406
0.30140822
0.30597785
0.3081841
0.29162079
0.29674868
0.30386931
0.3099676
0.30970498
0.31177833
0.31376487
0.30880973
0.32376319
0.2915331
0.3030427
0.29533604
0.31344573
0.30580791
0.31472307
0.29454212
0.32967323
0.31262432
0.31733455
0.30518068
0.31034426
0.30412324
0.31079509
0.30806344
0.3413955
0.31056717
0.32249371
-0.25035205
-0.21371194
-0.2121079
-0.23670487
-0.24101619
-0.20960186
-0.22330822
-0.27303088
-0.27946453
-0.28493703
-0.26767138
-0.22965906
-0.25721985
-0.26280536
-0.23897693
-0.2501048
-0.28788244
-0.27618847
-0.26904076
-0.25610008
-0.2944433
-0.28851095
-0.27952314
-0.27447974
-0.27322458
-0.27233375
-0.25993076
-0.2231095
-0.27608771
-0.28695733
0.08078933
0.047270162
0.05596949
0.064113127
0.070811051
0.048359909
0.043807128
0.058428818
0.10519482
0.070401852
0.061251322
0.032235256
0.091299839
0.097306023
0.088332049
0.061135275
0.099458859
0.086400696
0.073732673
0.03722708
0.093730167
0.090870703
0.076868431
0.08605387
0.092251397
0.097316359
0.087869083
0.031377973
0.058857296
0.088270103
-0.057454158
-0.064437352
-0.044043282
-0.065804701
-0.060946195
-0.053723708
-0.069444357
-0.064499838
-0.03601033
-0.041917699
-0.097648524
-0.085386382
-0.059894539
-0.0550437
-0.073240349
-0.10577718
-0.058953461
-0.047522214
-0.061519027
-0.069924355
-0.050882699
-0.066103107
-0.11186824
-0.1124983
-0.10927284
-0.071944274
-0.085422399
-0.091726191
-0.11903961
-0.038798723
0.0037219808
-0.004055586
-0.022524406
-0.0049886637
0.014122525
-0.0047532919
0.021694525
0.02079672
0.04152119
0.027158965
0.020502285
0.0079502848
-0.0011775935
-0.0078286424
0.0003487834
0.017239671
0.012184468
0.010472078
-0.00018991919
0.0092610695
0.0085508516
0.00086416448
0.021406261
0.023951649
0.00019543383
-0.01554651
-0.0096993765
0.011365494
0.022623398
0.028692232
0.28968202
0.28912335
0.28770873
0.29127479
0.29167246
0.29308746
0.2895572
0.32415786
0.30943468
0.31665309
0.31176908
0.31362873
0.31248877
0.31128927
0.30938475
0.31132452
0.30528411
0.30615498
0.31542754
0.32986889
0.31604246
0.32374006
0.33087864
0.32644973
0.32326033
0.3371124
0.31664662
0.33904079
0.31065668
0.32185245
-0.26135906
-0.24784832
-0.24697571
-0.26692161
-0.2677287
-0.25508305
-0.23933267
-0.22845012
-0.25794859
-0.27996092
-0.28165492
-0.25017937
-0.21696048
-0.20599524
-0.2078797
-0.2294097
-0.26598636
-0.23868242
-0.23982934
-0.26889127
-0.28442346
-0.26265338
-0.21244796
-0.21213761
-0.21280311
-0.20363522
-0.21665356
-0.2070477
-0.26530775
-0.28031135
0.11548139
0.090096938
0.085290678
0.10070241
0.11775701
0.077222209
0.088194187
0.037936413
0.089328449
0.087668751
0.065369957
0.039082324
0.056453697
0.05910646
0.070018375
0.058556211
0.076191937
0.1102298
0.041079816
0.082355283
0.061044746
0.040836614
0.039360553
0.053950292
0.058463694
0.051749423
0.07933289
0.047362317
0.053866575
0.081081423
-0.038711466
-0.081733738
-0.082408823
-0.02044256
-0.011433051
-0.041003655
-0.066788866
-0.050531036
-0.07586646
-0.021307753
-0.046145881
-0.10894205
-0.058692036
-0.04121774
-0.046845074
-0.084987449
-0.061917334
-0.062869025
-0.037121242
-0.062803252
-0.021854254
-0.063365411
-0.059462535
-0.056995779
-0.040754976
-0.013650179
-0.07902242
-0.081155698
-0.11830476
-0.03766715
0.023290369
0.044383405
0.011898539
0.007488073
0.028574512
-0.0019105388
0.016560112
0.032763742
0.052719388
0.032256236
0.017399145
0.0029413397
-0.013678633
-0.0090072176
-0.002420921
0.0079745533
-0.0012443263
-0.0060601356
-0.014720826
0.0013261345
0.0018212719
-0.010975944
0.0031031005
-0.0026945142
-0.0056430298
-0.0067877934
-0.029677096
-0.0012770586
0.018003322
0.026496065
)
;

boundaryField
{
    minX
    {
        type            fixedFluxPressure;
        gradient        uniform 0;
        value           nonuniform List<scalar> 
50
(
0.27074798
-0.22112705
0.10584386
-0.040525438
-0.0033938646
0.27373891
-0.24324697
0.10130504
-0.046952643
0.0018476725
0.2728237
-0.24152192
0.1203094
-0.035110966
0.021046057
0.27339407
-0.24640911
0.11040588
-0.041019351
0.016231825
0.27939934
-0.24929416
0.081693818
-0.030271528
0.013550401
0.29539643
-0.25217784
0.07758776
-0.032461423
0.011546478
0.30281623
-0.25520393
0.07854681
-0.03647617
0.0064503787
0.30063162
-0.25193241
0.09257326
-0.036072558
0.003802576
0.30140822
-0.25035205
0.08078933
-0.057454158
0.0037219808
0.28968202
-0.26135906
0.11548139
-0.038711466
0.023290369
)
;
    }
    maxX
    {
        type            fixedFluxPressure;
        gradient        uniform 0;
        value           nonuniform List<scalar> 
50
(
0.29853331
-0.25099784
0.11682676
-0.032530796
-0.0075639307
0.29935965
-0.27082985
0.11192315
-0.076713021
-0.0020426653
0.30046212
-0.27637566
0.13312201
-0.051497686
0.0098402144
0.30460752
-0.27328642
0.12027855
-0.060025143
-0.0072200109
0.30427781
-0.26581397
0.1178185
-0.061584819
-0.016120481
0.31194442
-0.28138063
0.12760623
-0.050870626
-0.012640321
0.31133149
-0.28878378
0.12195906
-0.045077157
0.00013347232
0.3102339
-0.28428298
0.092476119
-0.051499656
0.011705406
0.32249371
-0.28695733
0.088270103
-0.038798723
0.028692232
0.32185245
-0.28031135
0.081081423
-0.03766715
0.026496065
)
;
    }
    minY
    {
        type            fixedValue;
        value           uniform 0;
    }
    minZ
    {
        type            fixedFluxPressure;
        gradient        uniform 0;
        value           nonuniform List<scalar> 
150
(
0.27074798
-0.22112705
0.10584386
-0.040525438
-0.0033938646
0.28874972
-0.1950912
0.070531311
-0.030427062
-0.012629198
0.27014558
-0.22661694
0.10212782
-0.03738135
-0.010231066
0.27712233
-0.19886423
0.057005329
-0.063402975
-0.021129135
0.29088894
-0.17622719
0.032452632
-0.066724775
0.012629473
0.28604783
-0.23215666
0.060650486
-0.083762925
0.018657472
0.28662176
-0.25380721
0.065524122
-0.040497113
0.015874038
0.29250317
-0.2262326
0.12136175
-0.062112528
0.010629053
0.28615327
-0.22279912
0.030412565
-0.058929385
0.001126357
0.26933754
-0.23811598
0.089737885
-0.052317491
-0.012948928
0.28308087
-0.24722898
0.088834237
-0.012027223
-0.007422623
0.26960473
-0.23672989
0.089665509
-0.033659425
-0.011145989
0.27484273
-0.21620662
0.050432437
-0.049066911
0.0063683661
0.29346255
-0.17927041
0.054133081
-0.021720928
-0.0024408422
0.29147759
-0.19157604
0.060425325
-0.061815955
-0.018825349
0.31089559
-0.19984327
0.04465786
-0.070939614
-0.00044252942
0.31368877
-0.23584069
0.037561008
-0.091501149
0.016346302
0.31520588
-0.29055792
0.075887897
-0.044356855
0.024844943
0.31790276
-0.2838148
0.094991472
-0.02642773
0.034317689
0.31137581
-0.27010436
0.068493394
-0.095155997
0.028145036
0.33022893
-0.20185604
0.031058591
-0.070900535
0.015757146
0.31416557
-0.22031453
0.060068214
-0.06415313
-0.017848886
0.31238648
-0.24961811
0.10196601
-0.041133427
-0.0076566625
0.30633002
-0.26424257
0.10928857
-0.063164185
-0.00050159043
0.31016977
-0.27444644
0.1241026
-0.059507279
0.0092859954
0.3159562
-0.27433526
0.10692208
-0.045938599
0.016542934
0.29599764
-0.27989339
0.075003437
-0.07308272
0.0076495966
0.33398023
-0.20308896
0.050003979
-0.071114015
0.012007979
0.31466121
-0.21565454
0.05572067
-0.061748133
-0.015215308
0.29853331
-0.25099784
0.11682676
-0.032530796
-0.0075639307
)
;
    }
    maxZ
    {
        type            fixedFluxPressure;
        gradient        uniform 0;
        value           nonuniform List<scalar> 
150
(
0.28968202
-0.26135906
0.11548139
-0.038711466
0.023290369
0.28912335
-0.24784832
0.090096938
-0.081733738
0.044383405
0.28770873
-0.24697571
0.085290678
-0.082408823
0.011898539
0.29127479
-0.26692161
0.10070241
-0.02044256
0.007488073
0.29167246
-0.2677287
0.11775701
-0.011433051
0.028574512
0.29308746
-0.25508305
0.077222209
-0.041003655
-0.0019105388
0.2895572
-0.23933267
0.088194187
-0.066788866
0.016560112
0.32415786
-0.22845012
0.037936413
-0.050531036
0.032763742
0.30943468
-0.25794859
0.089328449
-0.07586646
0.052719388
0.31665309
-0.27996092
0.087668751
-0.021307753
0.032256236
0.31176908
-0.28165492
0.065369957
-0.046145881
0.017399145
0.31362873
-0.25017937
0.039082324
-0.10894205
0.0029413397
0.31248877
-0.21696048
0.056453697
-0.058692036
-0.013678633
0.31128927
-0.20599524
0.05910646
-0.04121774
-0.0090072176
0.30938475
-0.2078797
0.070018375
-0.046845074
-0.002420921
0.31132452
-0.2294097
0.058556211
-0.084987449
0.0079745533
0.30528411
-0.26598636
0.076191937
-0.061917334
-0.0012443263
0.30615498
-0.23868242
0.1102298
-0.062869025
-0.0060601356
0.31542754
-0.23982934
0.041079816
-0.037121242
-0.014720826
0.32986889
-0.26889127
0.082355283
-0.062803252
0.0013261345
0.31604246
-0.28442346
0.061044746
-0.021854254
0.0018212719
0.32374006
-0.26265338
0.040836614
-0.063365411
-0.010975944
0.33087864
-0.21244796
0.039360553
-0.059462535
0.0031031005
0.32644973
-0.21213761
0.053950292
-0.056995779
-0.0026945142
0.32326033
-0.21280311
0.058463694
-0.040754976
-0.0056430298
0.3371124
-0.20363522
0.051749423
-0.013650179
-0.0067877934
0.31664662
-0.21665356
0.07933289
-0.07902242
-0.029677096
0.33904079
-0.2070477
0.047362317
-0.081155698
-0.0012770586
0.31065668
-0.26530775
0.053866575
-0.11830476
0.018003322
0.32185245
-0.28031135
0.081081423
-0.03766715
0.026496065
)
;
    }
    bottomWater_to_rightSolid
    {
        type            fixedFluxPressure;
        gradient        uniform 0;
        value           nonuniform List<scalar> 
130
(
0.024844943
0.034317689
0.028145036
0.015757146
-0.017848886
-0.0076566625
-0.00050159043
0.0092859954
0.016542934
0.0076495966
0.012007979
-0.015215308
-0.0075639307
0.006133625
0.01454912
0.0017617102
0.0061508387
1.5311664e-05
-0.0086386216
-0.018390397
-0.020089523
0.016428597
-0.0042168343
0.040875623
0.019809254
-0.0020426653
0.027143224
0.029695737
0.020571617
0.019006963
0.012420602
-0.0029099529
-0.0026420521
0.0068526378
0.012255131
0.015041306
0.019721262
0.014974538
0.0098402144
0.024641569
0.030379701
0.021053504
-0.0063497483
0.030825537
0.0026929719
0.0026364331
-0.012803883
-0.0039364352
0.023944686
0.03270109
-0.00040976458
-0.0072200109
0.015592672
-0.0067617473
-0.013735435
-0.017300276
-0.0029638881
-0.0017315675
0.0034931168
-0.012878243
-0.019342106
-0.0095346137
0.020131325
-0.02438053
-0.016120481
-0.02293393
-0.021911472
-0.01020148
-0.0084255012
0.020077783
0.0085644968
0.022557496
0.0036983715
-0.022968023
-0.037138868
0.0049843911
-0.0059329131
-0.012640321
0.022448417
0.015292147
-0.0077403935
0.0058194578
0.014685725
0.015240091
0.014593485
0.027229973
-0.0080752549
0.018812115
0.042138388
-0.013056334
0.00013347232
0.024186789
0.035066649
0.010696294
0.029218121
0.027734721
0.039051365
0.040761182
0.020250433
0.022866394
-0.012894124
0.013309663
0.018259928
0.011705406
0.010472078
-0.00018991919
0.0092610695
0.0085508516
0.00086416448
0.021406261
0.023951649
0.00019543383
-0.01554651
-0.0096993765
0.011365494
0.022623398
0.028692232
-0.0060601356
-0.014720826
0.0013261345
0.0018212719
-0.010975944
0.0031031005
-0.0026945142
-0.0056430298
-0.0067877934
-0.029677096
-0.0012770586
0.018003322
0.026496065
)
;
    }
    bottomWater_to_leftSolid
    {
        type            fixedFluxPressure;
        gradient        uniform 0;
        value           nonuniform List<scalar> 
130
(
-0.0033938646
-0.012629198
-0.010231066
-0.021129135
0.012629473
0.018657472
0.015874038
0.010629053
0.001126357
-0.012948928
-0.007422623
-0.011145989
0.0063683661
0.0018476725
-0.0016644028
-0.009340989
-0.0050567862
0.005983007
0.011291136
0.01670643
0.020298216
0.018175868
-9.539281e-05
-0.0085061194
-0.0079689572
-0.010694977
0.021046057
0.013416862
0.0054975222
-0.0071823884
0.0022770287
0.0084657857
0.01199587
0.044278012
0.034095348
0.0063761452
0.014332618
-0.007256894
-0.0083555059
0.016231825
0.011343571
0.02134729
0.028976488
-0.0055935293
-0.00065625052
-0.0031788986
0.027024426
0.018899734
0.02451644
0.0004289725
-0.01211095
-0.0035401832
0.013550401
0.021238201
0.016351248
-0.00049246649
-0.0011880081
-0.0080850878
-0.014477403
-0.014369763
-0.012779653
0.0022525971
-0.018119266
-0.012416084
-0.010472062
0.011546478
0.014470132
0.012528557
0.0045419045
0.0052960379
0.017681131
0.0056261685
-0.0015355202
-0.0049041299
0.017575505
0.012100545
-0.0095770909
-0.0043878538
0.0064503787
0.0065220776
-0.0061484364
-0.021929492
-0.0076110677
-0.0095263292
0.0050372467
-0.0018539605
0.011128759
0.029567394
0.010487434
-0.0015501869
-0.017826035
0.003802576
-0.0022033637
-0.012238058
-0.0099124914
-0.010055867
0.0065434323
0.021090607
0.018506221
0.030602455
0.02656547
0.013839134
-0.0024313718
-0.010711478
0.0037219808
-0.004055586
-0.022524406
-0.0049886637
0.014122525
-0.0047532919
0.021694525
0.02079672
0.04152119
0.027158965
0.020502285
0.0079502848
-0.0011775935
0.023290369
0.044383405
0.011898539
0.007488073
0.028574512
-0.0019105388
0.016560112
0.032763742
0.052719388
0.032256236
0.017399145
0.0029413397
-0.013678633
)
;
    }
    bottomWater_to_heater
    {
        type            fixedFluxPressure;
        gradient        uniform 0;
        value           nonuniform List<scalar> 
92
(
-0.0024408422
-0.018825349
-0.00044252942
0.016346302
-0.020058191
-0.022044612
-0.00057423937
-0.00060477841
-0.016260497
-0.00029200015
0.015290388
0.017264542
0.26944276
0.27730922
0.27795152
0.28878966
-0.2564055
-0.25051927
-0.23964793
-0.27276464
0.094661094
0.087671944
0.077627368
0.1072346
-0.080960832
-0.079056953
-0.073087753
-0.059700382
0.0021101064
0.0021101064
0.040185686
0.040185686
0.011978859
0.011978859
-0.003794603
-0.003794603
0.28250074
0.3008131
-0.23553961
-0.24420522
0.08859227
0.085804956
-0.03493737
-0.11126379
-0.010472062
0.015592672
0.2804797
0.31017488
0.30182871
0.30822842
0.32916587
0.29755052
-0.23680383
-0.2425364
-0.28022476
-0.28031604
-0.21098243
-0.28053263
0.11083967
0.059640224
0.080775277
0.11075784
0.062004113
0.097261473
-0.047252259
-0.088733378
-0.067976335
-0.051904226
-0.05765107
-0.039568138
-0.0043878538
0.010527075
0.0083599153
0.022359843
-0.02293393
0.025709601
0.010527075
0.0083599153
0.022359843
0.025709601
0.0079578557
0.019823894
0.02327656
0.042206966
-0.0078286424
0.0003487834
0.017239671
0.012184468
-0.0090072176
-0.002420921
0.0079745533
-0.0012443263
)
;
    }
}


// ************************************************************************* //
