/*--------------------------------*- C++ -*----------------------------------*\
| =========                 |                                                 |
| \\      /  F ield         | OpenFOAM: The Open Source CFD Toolbox           |
|  \\    /   O peration     | Version:  v2012                                 |
|   \\  /    A nd           | Website:  www.openfoam.com                      |
|    \\/     M anipulation  |                                                 |
\*---------------------------------------------------------------------------*/
FoamFile
{
    version     2.0;
    format      ascii;
    class       surfaceScalarField;
    location    "650/bottomWater";
    object      phi;
}
// * * * * * * * * * * * * * * * * * * * * * * * * * * * * * * * * * * * * * //

dimensions      [1 0 -1 0 0 0 0];
oriented        oriented;


internalField   nonuniform List<scalar> 
3858
(
-0.00010118009
7.5497275e-05
3.2306668e-05
-6.0268179e-06
-0.00022126457
0.00012891941
-0.00016846783
0.00012635137
4.2930917e-05
-6.3311284e-05
-9.8295961e-05
-1.5748112e-06
0.00018358548
-0.0002639373
1.9433499e-05
0.00017889715
-3.0307132e-05
3.8381313e-05
2.3908407e-05
0.00012557425
3.2617651e-05
5.5994508e-05
-2.9019871e-05
-1.3695906e-06
0.00022556653
-0.00015359942
-1.2597039e-05
8.1324649e-05
0.00015985731
-8.4974843e-06
-0.00011478909
0.00015165894
4.8469876e-05
-0.00029970939
0.00012438514
6.7690994e-05
-0.00028359958
-9.5422927e-05
8.5430294e-05
-0.00013354364
-0.00028291493
0.0001349285
-5.3683137e-05
-0.00019484457
0.00011722267
0.00012474341
-0.00018032455
-2.794389e-07
0.00018093159
-7.288836e-05
1.3932525e-05
6.838895e-05
8.4843068e-05
2.456628e-05
-0.00011602464
0.00012430024
5.6387694e-05
-0.00019536846
3.7540179e-05
3.9544263e-05
4.1049006e-05
-0.00030690643
6.4251882e-05
0.00021631184
-0.00026111762
8.3162452e-05
0.00028500766
-6.3048209e-05
-7.9725181e-06
0.0001812975
8.8497677e-05
1.4223449e-05
6.7662606e-05
8.7797564e-05
2.3821407e-05
-0.00011736759
0.00010795093
7.3786534e-05
-0.00025745224
6.8007116e-05
7.3329509e-05
-3.4534245e-05
-0.0003836431
0.00015386197
0.0001592013
-0.00035363827
0.0001571893
7.2281852e-05
8.746706e-05
-0.00014193921
2.6697894e-05
0.0001907386
-8.2601664e-06
-0.00052530483
0.00017036121
-7.3965402e-05
5.6040794e-05
0.00013601581
7.2086715e-05
-0.00029465884
5.0310761e-05
0.0003964137
-0.00058821656
-4.7725081e-08
0.00044890639
-0.00011503013
3.22303e-05
-3.4341082e-05
0.00058036156
2.8460161e-05
-0.00024876234
0.0002922821
-0.00010688072
0.00010622497
-0.00046887113
-3.9715605e-05
0.00013777271
9.1313332e-05
3.6996233e-05
-0.00021424169
0.00043365102
7.0022308e-05
-0.0002460721
4.8565438e-05
0.00010765011
-4.7632983e-05
-0.00038016529
8.6303246e-05
0.00013025331
-0.00058905717
0.00012825595
0.00026408613
-0.00043472726
0.00010604987
0.00049876839
-0.00041787619
2.8693816e-06
0.00067556157
-0.00019913649
-5.0545053e-05
0.00022265253
0.00058279591
-4.504381e-05
-0.00038344269
0.00073656043
-6.164974e-06
-0.00038344988
7.622524e-05
-3.8677877e-05
-4.1238309e-05
-0.00065384506
4.7270556e-06
0.00014088222
-0.0006046483
0.00016141015
0.00032464437
-0.0002497708
2.9604444e-06
0.00037246426
8.4543318e-05
-4.3865527e-05
0.00011820019
0.00040731852
-6.5256873e-05
-0.00029318332
0.00056589588
-4.656143e-05
-0.00031345339
4.9033162e-05
3.9244024e-05
-9.3256003e-05
-0.00076650442
0.00016266393
9.7186542e-05
-0.00074135735
0.00019727653
-2.9865969e-05
0.00019933436
0.00018494969
-0.00022354831
6.5296519e-05
9.501183e-05
-0.00045003414
1.4667178e-05
0.00033932661
-0.00027284998
8.4575997e-05
0.00023809088
-0.00025774449
6.4321371e-05
-0.0001789814
-9.091621e-05
-8.0228078e-05
-0.00014796177
-4.7976931e-05
-9.8072826e-05
-4.1312585e-05
0.00048644993
-1.2737567e-05
-8.5553334e-05
0.00023729751
9.9225324e-05
-0.00037243991
-0.00014706949
-3.4915076e-05
-0.0002171236
-0.0001125097
4.8506721e-05
0.00011254073
9.0751116e-05
1.3235565e-05
0.00035254928
-0.00015379403
-3.7649086e-05
0.00027986753
-0.00014813901
-0.00015934452
0.00012583054
-0.00035085708
-8.4163085e-05
0.00014431223
-0.00045444722
1.2382825e-06
-9.9504047e-05
-0.00018506961
1.100969e-05
-6.7225805e-05
-0.00011418018
-0.00011723455
9.807883e-05
0.00049397947
-7.6488191e-05
0.00018897624
0.0006647029
-1.9039887e-05
0.0003562671
3.6089936e-06
-9.4674615e-05
-7.2791734e-05
-0.00010258842
-0.0001221978
-0.00023264008
-0.00037446182
-7.0338123e-05
2.7314841e-05
-0.00048408834
-2.5637378e-05
0.00021264621
-0.00015673399
5.5945954e-05
0.000279362
0.00024955462
9.1048119e-05
0.00037459521
0.0004482387
2.2423966e-05
0.00041460719
4.0711331e-05
-3.1690151e-05
-5.3914785e-05
-6.4488722e-05
-0.00023349372
-0.00039424859
-0.00027309726
-0.0001279263
-0.00048513252
6.1017954e-05
-9.2226304e-05
-0.00014519164
1.386963e-05
-3.4165344e-05
-0.00044697711
-6.1117996e-05
9.7526195e-06
-0.00027787808
-3.8889861e-05
8.4772331e-06
-0.00020478014
-5.1688966e-05
-0.00012518539
0.00014018179
-9.7435379e-05
-0.00026325146
0.00016677457
-7.6685432e-05
3.6218424e-05
0.0002057584
-1.8778367e-05
1.0825068e-05
0.00012628529
0.00013640557
-0.00016582412
-2.30012e-05
5.2580893e-05
-0.00011064634
-0.00019226825
2.458076e-05
0.00020549708
-0.00025315483
2.7762524e-05
0.00028007465
-0.00017926653
-4.9105068e-05
0.00017078476
6.4830466e-05
-0.00010367958
7.0249931e-05
-0.00029291764
4.2595392e-05
8.4006191e-05
-0.00046485607
-3.3474109e-06
-3.2270363e-05
-8.3029494e-06
-6.0490101e-05
-0.0002497385
0.0002040031
-0.00010071515
1.7316069e-05
0.00027174016
-4.4815271e-05
0.00033430166
0.0003273126
2.0404693e-05
0.00020809195
0.00020899914
-7.9180446e-05
0.00012461769
9.9518007e-05
-0.00011863217
0.00017649846
-0.00037338358
-5.2959006e-05
0.00026426617
-0.00050012996
-7.1726084e-05
0.0002116716
-5.1581437e-05
-5.2557965e-05
0.00018417168
0.00028635524
-9.3006915e-06
0.00035748106
0.00018963881
8.5290523e-05
0.00033018364
5.0974911e-05
1.7033847e-05
0.00012565539
4.4997378e-05
9.5042145e-05
1.9511221e-05
-0.0002339256
6.6972495e-05
-0.00047900032
1.337902e-05
-2.0003799e-05
-0.00012518784
-0.00026619079
-0.00020079012
-0.00040267371
-0.00014139516
-0.0004952833
-0.00011217055
-0.00031938058
-3.5720932e-05
-0.00013278678
-1.981924e-05
9.4161258e-05
-2.118965e-05
0.00028212248
-6.1675944e-05
0.00037646999
-0.00011734872
0.00030903373
-0.000124832
0.00016250116
-0.00010662225
2.5708002e-05
-4.2473376e-05
7.9779505e-05
1.0758967e-05
-0.00017879501
-3.4343117e-05
-0.00054237226
-0.00010127882
-0.00048875048
-6.1924732e-05
-0.0002669674
-1.7779972e-05
3.4466447e-06
1.326115e-06
0.00027858465
5.2174592e-05
0.00045061809
3.6965697e-05
0.00057480553
-2.4669431e-05
0.00034715762
-0.00014573567
-3.7557546e-05
-0.00011541478
-0.00016156421
7.2425241e-05
7.3488356e-05
5.130268e-05
0.00023608671
2.7040464e-05
0.00027802202
9.0395922e-06
0.00039331
-7.0290599e-05
0.00031860151
-0.00015921712
-0.00016039882
-4.358399e-05
0.00013632368
-5.4437028e-05
-0.00010391863
0.00011292193
8.1830054e-05
-0.00020261759
0.00014079959
8.5950571e-06
3.4331251e-06
-0.00022663271
2.2489305e-05
0.00015776581
-0.00022875181
9.5382002e-05
2.8894913e-05
1.2548776e-05
0.00015641793
-0.0001407442
8.3839963e-05
0.00012046729
-8.0624255e-06
-0.00028001893
0.00014646948
0.00016076707
-0.00026003842
8.1876107e-05
3.9983904e-06
0.00018510559
-3.0206441e-05
-0.00015602951
0.00013012478
8.200727e-05
-0.0002567455
0.00014117284
3.3507944e-05
-0.00030935535
0.00013732503
6.9416586e-06
-0.0003309093
0.00010467406
5.8350224e-05
-0.00027037638
8.5891157e-05
-2.1631116e-05
7.3927554e-05
-0.00037325136
2.5496575e-05
0.00017055951
-0.00020540111
0.0001193346
2.1898322e-05
2.4233783e-05
0.00014448638
-0.00018765078
0.00013073878
0.00013190045
-0.0001865468
-3.5740289e-05
7.073056e-05
7.9764712e-05
-0.00027829349
7.0556419e-05
6.0239207e-05
0.00010453269
-3.7462381e-06
-2.4636015e-05
6.9832605e-05
2.9908581e-06
0.00011720152
-0.00018498422
5.3660232e-05
0.00023659275
-0.000208528
0.00011025039
0.0002981877
-0.00011206254
0.00012185966
0.00016159209
0.0001311546
7.9490232e-05
0.00011732053
6.4990115e-05
0.00013257194
9.9585253e-05
2.459756e-05
0.00015105375
0.00014104931
4.6404854e-05
-0.0002061735
0.00042359099
0.00010964479
-0.00030186857
0.00022367839
0.00015529982
-0.00013985225
5.1642259e-05
6.3156822e-05
0.00018796901
-0.00053293971
2.879649e-05
0.0004650289
-0.00051894739
1.3087961e-05
0.00027566036
0.00017978676
5.4360851e-05
-0.00020986922
0.00056461979
3.3209914e-05
-0.00016432475
-0.00056775567
0.00013531154
9.0429288e-05
-0.00063619794
8.1689877e-05
0.00017293669
0.00014431091
-4.7164891e-06
-0.00014772203
0.00048882285
3.1982957e-05
-0.00029769126
0.00031530228
8.3489894e-05
-0.00031121249
0.0001149444
0.00012220511
-0.00027865506
4.1836149e-05
0.00015853644
-1.3381482e-05
-8.8523118e-05
1.5190571e-05
0.00039101171
-0.00072579143
-4.8983744e-05
0.00058239748
-0.00044824082
9.0888666e-07
0.0002283316
0.00035373967
-2.0483815e-05
-0.00026086021
0.00061687255
-3.1069342e-06
-0.00026845417
-0.0001231093
5.6285089e-05
6.3593003e-05
-0.00068783788
8.2224279e-05
6.666798e-05
7.664952e-05
0.00018621835
-0.00016105705
0.00032050473
-1.9986654e-05
9.3640728e-05
-0.00051157257
2.8025054e-05
0.00023403035
-0.00050639374
9.2219256e-05
0.0003172892
-0.00032313565
8.1252828e-05
0.00014429154
0.00031690167
2.6494612e-05
8.1174103e-05
2.941858e-05
0.00026135289
0.0001196738
-8.1704771e-05
0.00026507916
0.00031510271
0.00014495476
9.4342597e-05
0.00032179098
7.2753932e-05
0.00023471082
2.1758611e-05
7.6218734e-05
0.00051206167
-0.00018971968
4.8587088e-05
0.00020374221
-0.00011838951
-4.1909369e-05
-0.00010252478
-0.00010948241
-0.00018342607
-1.6617855e-05
8.2313864e-05
-8.6506862e-05
4.2920315e-05
0.00049124754
1.0965025e-06
-0.00020192448
-6.9482751e-05
-0.00015420281
-0.00055486362
-9.7149044e-05
-0.00022102483
-0.00039851775
9.5923371e-05
-5.9451622e-05
-0.00024545802
0.00034799472
1.0039628e-06
-6.0417769e-05
9.63434e-05
-3.7304569e-06
0.00018054891
-0.00024660895
-3.875785e-05
0.00043762094
-0.00030405497
4.6560049e-06
0.00057307961
-0.00022419748
1.4539821e-06
8.788326e-05
-0.00010891133
-0.00012067406
-0.00012001273
-0.00010024218
-0.00025733721
-8.8893986e-06
0.00025902199
-9.2893844e-05
0.0001259762
0.00050976871
-4.6801661e-05
8.5106244e-05
-0.00010293964
-7.3974324e-05
-0.00043479855
-0.00011426665
-0.00017586424
-0.00031929367
-2.085443e-05
-8.8339051e-05
9.7932364e-05
-0.00012763657
5.2778942e-06
0.00023785375
-0.00052085041
-7.4697589e-05
5.900097e-05
-0.00020319824
-3.3294588e-05
-0.00014680968
-3.1830979e-05
-6.3070053e-05
-2.1664036e-05
0.00026237911
-0.00010231323
-0.00010311537
-5.3147686e-05
-6.9476124e-05
-0.000193404
-7.8706294e-05
-4.0636152e-05
0.00012460495
5.8111709e-05
0.00012261118
0.00015165547
6.1393957e-05
0.00016847101
-9.3034756e-05
7.8155425e-06
0.00022070998
-0.00025013267
-3.071584e-05
7.9354093e-05
-4.8360083e-06
-2.3886589e-05
-0.00013276725
0.00011662887
-0.00011142532
-0.00020223534
0.00012113029
-4.6033779e-05
-1.1232122e-05
0.00023648602
4.4979925e-05
-0.00023218085
0.0001416171
0.00014625444
-0.00046512865
0.00013748117
5.089847e-05
-0.00046938373
0.00010603761
1.8721588e-05
-0.00015630403
2.252378e-05
4.0153768e-05
6.4414555e-05
-0.00015043672
-2.3043532e-05
0.00011394444
-0.00035445037
-4.5368042e-05
0.00012061821
-0.00033322269
6.5089356e-05
-8.5746674e-06
-0.00015004006
5.1688053e-05
-0.00021315689
8.7373305e-05
-5.2192505e-05
-0.00030661308
-6.8537209e-06
-0.00010064742
-0.0001365284
0.00011781214
-7.3690115e-05
0.00014968166
0.0001913839
5.257944e-05
8.6116814e-05
-8.9103139e-05
-2.9452112e-05
-9.6938225e-05
1.0664765e-05
-6.0508543e-05
-4.9777138e-05
1.8402154e-05
-0.00013937667
0.00010633635
-0.00033531587
-2.0160255e-05
0.00010321132
-0.00055642162
-1.3861713e-05
9.9883218e-05
-0.00014421315
-6.4957666e-05
2.7809381e-05
0.00014897505
-2.3441661e-05
0.00028436489
4.0286574e-05
-1.7429133e-05
1.4504873e-05
0.00030473324
7.0212339e-06
-0.00028474665
0.00026624019
2.1277523e-05
-0.00012818593
-1.8576759e-05
0.00010735648
-8.0888847e-05
-3.8587399e-05
-0.00014788099
-0.00027548326
-0.00015463197
-0.00033588663
-5.6603187e-05
-0.00028482504
2.9846342e-05
-0.00022260676
3.909277e-05
-5.5398297e-05
4.80879e-05
5.6892473e-05
-3.2349621e-05
0.00014301748
-6.5992552e-05
0.00022137536
-9.7152269e-05
0.00021782896
-8.0552082e-05
8.1235157e-05
-5.6316292e-05
-0.00017037294
-9.2083308e-05
-0.00037005663
-0.00016788212
-0.00043387902
-0.00018749649
-0.00030515408
-0.00010327637
-0.00025344619
-7.6341584e-05
-5.6406069e-05
-7.7901864e-05
0.00018336565
3.7867634e-06
0.00019323886
-6.2010654e-05
0.00025587509
-7.6640889e-05
0.00033058727
-0.00020204569
6.2108365e-05
-0.00018225174
-0.00034084564
-8.1042357e-05
-0.00039775556
-3.6000538e-05
-0.00021354359
-8.1964575e-06
-6.6823464e-05
-9.7393966e-05
0.00015042777
1.7191401e-05
0.00024678914
1.0661695e-05
-4.1795611e-05
-3.4981536e-05
0.00014557331
-0.00015873403
-6.6458021e-05
0.00013663493
-1.9035004e-05
-0.00012654105
0.00014686807
-7.0271995e-05
0.00010315664
-0.00027114505
6.6516406e-05
0.00021197059
-0.00010880002
9.9027654e-05
0.00013444647
9.6404949e-05
0.00014257573
7.7691138e-05
0.00015031254
3.1521391e-05
9.1513785e-05
8.6919407e-05
5.1667491e-05
6.9799839e-05
0.00012612685
-1.5519304e-05
1.6537769e-06
0.0001768512
-0.00013215781
-2.0197043e-05
0.0001434674
-3.5083295e-05
-4.7228297e-05
0.00015113168
-8.3385725e-05
-0.00013009612
0.00015293894
-5.8680369e-05
-0.00027247037
0.0002102254
4.4174097e-07
-7.9810739e-05
-0.00024683418
3.6581243e-05
0.00012955281
-0.00031192757
0.00012650394
7.7223757e-05
1.7974901e-05
0.00015365724
-1.1547538e-05
0.00011402239
0.00011727331
-7.7624161e-05
0.00014387026
5.2162027e-05
-0.00010130548
0.00016220309
-6.8503587e-05
-8.6946439e-05
0.0001333256
-7.8351138e-05
-1.9061394e-05
6.7372409e-05
-0.00014094257
0.00015320093
-0.0001320623
-4.0037601e-05
0.00016089235
0.00014914207
-0.00010131973
0.00016456471
0.00015505477
-4.736543e-05
0.00018215023
0.00016031381
-5.5152097e-05
0.000129321
0.00018501867
-5.1710239e-05
7.7281414e-05
0.00016914371
1.6175363e-05
5.3384051e-05
0.00015144426
2.3477752e-05
0.00014727001
-4.738982e-05
-0.00012756812
0.0004127927
-3.000647e-05
-0.00029484941
0.00046881926
-9.6032288e-06
-0.00012259895
6.6705602e-05
-2.8931174e-05
0.0001933689
-0.00063772196
7.9405547e-05
0.00034530782
-0.00034326877
9.5617787e-05
0.00027359634
0.00016421448
5.8262797e-05
-0.00011877217
0.00058677791
-1.0886951e-05
2.366814e-05
-2.7612246e-06
8.2551858e-05
0.00023622508
-4.3264977e-06
-4.1372107e-07
0.00013139734
0.00049304946
-0.00021608701
-9.1646142e-05
0.00057466497
-0.00017617113
-0.00023682923
0.00047207882
-9.2274146e-05
-0.00032495788
0.00039072896
-2.7456254e-05
-8.4462702e-05
5.6904482e-05
7.1362187e-05
0.00027244896
-0.00061034084
2.1785564e-05
0.00054584662
-0.00068867281
5.4363842e-05
0.00053978369
-2.8974481e-05
5.3921191e-05
0.00018876485
0.00057890998
-0.00013435257
-0.00014978265
0.00063633677
-0.00015702595
-0.00018792527
0.00027906902
-2.2438236e-05
-0.00019031962
0.00026704731
-4.9103085e-05
-0.00026301306
0.00037435489
-4.8070687e-05
2.5495321e-05
-0.00039834393
-4.22134e-05
0.00025208237
4.7625026e-05
-9.7044939e-05
0.00026629417
0.00034463955
-0.00011157732
0.0002204886
0.00041208439
-0.00012471218
0.00011177938
0.00047555451
-0.00015533201
2.8586884e-05
0.00044632151
6.7367588e-05
4.385125e-06
0.00039902105
4.1704126e-05
0.00033496639
-3.8356497e-05
0.00010098406
0.00034587372
3.8688855e-05
0.00021674814
0.00035405105
7.5222864e-05
0.00036082346
-0.0001401116
0.00011132898
9.6523698e-05
-0.00026778266
-0.00014754892
-0.00013882766
-0.00013773445
-0.00015360904
-6.261302e-05
7.4627031e-05
-7.3134054e-05
-2.904779e-05
0.00051060468
4.3704495e-05
-5.4123244e-05
-8.6870749e-05
-4.501784e-05
-3.8974298e-05
-9.8320126e-05
-0.00014218016
-6.230744e-05
0.00041302516
4.3905813e-05
-7.0355439e-05
0.00051931254
6.4404385e-05
4.2296369e-05
0.00035305966
2.6368974e-06
0.00031495725
0.00012941907
-5.0108838e-05
0.00052347507
-8.0251041e-05
-6.6706284e-05
0.00021668542
-0.00012756312
-0.00017453409
-0.00018793431
-0.00013484404
-0.0002698831
-0.00018022421
-5.3522077e-05
-0.00024049971
-7.9923962e-05
0.00052046714
-0.00013475126
-8.2284903e-05
0.0005919622
-6.6160868e-08
-0.0001294711
0.00015496271
9.7318189e-05
-0.0001208062
0.00015560046
-7.3082292e-05
-2.8638302e-05
0.00027855457
-8.4706628e-05
-0.00013744738
-0.00023800465
-4.6252298e-05
4.4065196e-05
-0.0002958968
8.7311676e-05
0.00014397405
0.00021409374
-2.6576179e-06
0.00011552834
0.00033388762
4.3572438e-05
8.188381e-05
0.00040419455
2.6912635e-06
-4.9714589e-05
0.00034017476
0.00016826902
-0.00014056086
0.0003108062
0.00013842496
0.00027804311
-2.5525881e-05
0.00010912461
0.00026267765
3.5465422e-05
0.00023202304
0.00015271751
8.6250652e-05
0.00018742597
-0.00017439441
4.8164037e-05
0.00014262654
-0.00024492289
-1.9469264e-06
-2.5700003e-05
2.2113208e-05
-0.00010294645
-0.00015174126
0.00013654565
1.808885e-05
0.00010800765
0.00019611402
9.9721671e-05
-0.00019349022
0.00029628761
6.459394e-05
-0.00047588177
0.00025345754
-1.8487664e-05
-0.00031987514
0.00015573806
0.00012000206
-0.00014623428
0.00022877156
0.0001570539
0.00011220944
-3.9422235e-05
0.00011099464
0.00038306239
-0.0001960571
9.2551801e-06
0.000344319
-4.8092344e-05
7.167405e-05
0.00013082208
4.7683649e-05
8.9938208e-05
-0.00014658142
9.0865213e-05
-4.9824987e-07
-0.00031623779
0.00010371673
-8.8229864e-05
-0.00010018276
0.00028273092
-5.2008933e-05
8.1845868e-05
0.00031885831
0.0001436547
4.6060679e-05
0.00011988258
4.1413194e-05
-2.265581e-05
0.00018843799
-2.4629582e-05
5.1815504e-05
0.00019573842
-0.00013103183
-6.7541539e-05
-0.00012382776
-1.4980083e-05
-7.5584706e-05
-0.00031064951
8.9341773e-06
-1.7242847e-05
8.217527e-05
8.6189554e-06
1.0085581e-05
0.00024451035
3.8607184e-05
3.2535745e-05
0.00024509493
0.00011922032
-3.3661545e-05
0.00020003955
0.00021335373
-0.0001017357
0.00023390784
0.00016625003
0.00013305482
2.4675827e-05
0.00018227645
-4.8764839e-07
0.00021987893
-3.2765957e-05
-2.2177403e-05
-8.6970054e-05
-0.00028480058
-3.8902903e-05
-0.00029740524
6.456421e-05
-0.0002776467
0.00015587987
-0.00021074462
0.00017729983
-6.948556e-05
0.00012267893
8.8546155e-06
0.00010912481
3.3623916e-05
3.3816487e-05
7.3112235e-05
0.00010873116
-6.7067718e-05
4.4441428e-05
-0.00025083555
-0.00010437257
-0.00033796167
-0.00012884833
-0.00033752274
-0.00014025176
-0.00030690235
-4.3031554e-05
-0.00028838309
8.8558784e-06
-8.4654216e-05
1.1001782e-06
0.00013534599
0.00010264485
0.00014060894
5.2608976e-05
0.0001448182
0.00010758784
0.0002600793
-0.00012156836
7.4977392e-05
-0.00012097758
-0.00020142011
-0.00011529435
-0.00020274239
4.7497015e-05
-9.9595263e-05
0.00013316677
2.3102584e-06
4.5795438e-05
6.905651e-05
0.00015048469
9.1801297e-05
0.00022182474
0.0001830605
-8.4732764e-05
0.00015749974
-0.00022515785
-0.00012906991
0.00018343944
-0.00015147515
-0.00016561836
0.00011679191
-0.00014246007
-9.2841142e-05
2.2049756e-05
-2.2668038e-05
-0.00010003913
0.0001479879
-3.6172918e-05
-8.8048439e-05
0.00011662247
2.0102352e-05
0.00016404367
-0.00023541726
1.5378165e-05
0.00021312944
4.5194688e-05
-3.7481449e-05
0.00022957198
0.00011223848
-0.00013929566
0.00018312861
8.3244779e-05
-0.00016151982
0.00013297164
0.00013342042
-0.0001116613
3.4488758e-05
0.00013087448
-0.00010948615
-8.7129449e-05
0.00013703149
-6.9677347e-05
-0.00023985694
0.00016027292
-0.00020945821
1.1553258e-05
-0.00021681032
0.00013923375
-0.00021872101
0.00015859756
-0.00017505285
0.00016208861
-8.861103e-05
-0.00012010595
0.00012807644
-0.00013079616
8.079653e-05
-0.00010482592
-0.0001671146
0.00011181574
9.9173193e-05
-0.00020897664
2.6382835e-05
0.00014461573
-0.00020127489
-1.9157618e-05
0.00015115338
-0.0001473699
-8.0526348e-05
0.00013835959
-0.0001775615
-8.1467139e-05
9.8526629e-05
-0.00014356935
-4.3736338e-05
7.4230415e-05
-0.00016762834
-2.4752662e-05
8.7407401e-05
-0.00015809996
0.00017258211
-0.0002257451
4.0052616e-05
0.00014412499
8.2547253e-05
-2.985094e-05
0.00013692441
-4.0954206e-05
-0.00015257358
0.00039930902
-0.00011924217
-0.00019312281
0.00033183419
-0.00011744875
-6.4317445e-05
-6.162351e-05
2.0678887e-05
1.0209391e-05
-0.00013806203
0.00016499049
-0.00014149719
0.00026996591
0.00012534635
-8.1819437e-05
4.9029425e-05
6.6178084e-05
0.00021634543
-0.00055831161
1.3842531e-05
0.00032234392
1.307301e-06
2.0440751e-05
0.00023552296
0.00034497105
-0.00014632533
0.00023756523
2.3230197e-05
-0.00015811469
0.00018075131
0.00012789418
-0.00011383098
0.00011742847
0.00020467905
-0.00010275587
-6.4954179e-05
0.00040926363
-0.00011730574
-4.2897606e-05
0.00020957854
0.00014984302
-0.0001594018
0.00030532214
3.811847e-05
0.0001308904
0.00038695048
-0.00019964938
0.00067063608
-0.00031236025
-0.00010285315
0.00012776445
-0.0002535102
0.0002791409
-0.00037296501
-0.00013629319
0.00027901322
0.00027425946
-0.00022406167
-6.1152369e-05
0.000642935
-0.00020622437
-0.00033419835
0.00045988783
-7.7901859e-05
-0.00022014955
4.5495902e-05
-0.00011823004
-0.00018136986
8.2408882e-05
-0.00013423926
-0.00013183777
9.6348027e-05
-0.00019636189
-6.1503071e-05
5.2762694e-05
-0.00019102201
0.00026666826
-0.00058119136
9.4642509e-05
0.00032596634
7.5543871e-05
-1.0590579e-05
0.00046060716
-3.60729e-05
9.311845e-05
0.00032888741
1.599202e-05
0.00015126244
0.00021962468
0.00012928839
4.0565321e-05
-0.00010023943
0.00026064201
-0.00019731486
-5.3923685e-05
6.1929202e-06
2.6954089e-05
-0.00015562246
4.7710379e-05
0.00034221802
-0.00032330582
-1.6062741e-05
2.3111276e-05
-0.00015755879
-3.7941593e-05
-4.997645e-05
-8.9122238e-05
0.00011849942
-8.059458e-05
0.00019624215
3.7166868e-05
-0.00022959217
-3.3898614e-05
0.00025003222
-0.00016840607
-2.2720614e-05
0.00015383307
0.00010034152
-0.0001294477
6.8016061e-05
0.00025974082
0.00024578869
-4.6033186e-05
0.00028490687
0.00011770621
4.9732727e-05
-9.8761746e-05
-2.8741834e-05
-0.00015329007
0.00013897949
-2.1270555e-05
0.00010672514
0.00056552492
2.614234e-06
0.00013769352
2.3500792e-05
7.3229115e-05
-7.2918449e-05
-0.00012888057
6.3845715e-05
-5.9928831e-05
0.00017816278
1.0024774e-05
-7.635494e-05
0.00062944658
-5.4792093e-05
-9.4575024e-05
0.00037744089
5.4414737e-05
-1.4493791e-06
-0.00016243962
0.00020212157
0.00016661944
-0.00030301499
0.00021469744
0.0002980121
-9.6819763e-05
0.00010534757
0.00028273245
-5.8037551e-05
0.00012877115
-0.00016773208
-6.7523096e-05
0.00010506528
-0.00013625835
3.3807884e-05
0.00014868721
0.00028568856
1.3134356e-05
0.00019917525
0.00017322407
-8.046489e-06
0.00040683857
3.9102754e-05
5.9109258e-05
0.00022093186
0.00015649695
-2.2665627e-05
-5.1782477e-06
0.00020366827
-3.3428779e-05
0.00014252751
-0.00037284983
-3.3424838e-05
0.00024711099
-0.00037379363
-3.6006824e-05
0.00022872967
1.3087539e-06
-4.0764549e-05
-3.7198427e-05
0.00030289202
-6.1492234e-05
-8.8704002e-05
0.00020983153
1.9428523e-05
-0.00027508595
0.00024324074
2.9244657e-05
-0.00019267284
-3.1689981e-05
8.3610153e-05
0.00012462898
-0.00036049211
2.4737224e-05
0.00045021808
-4.9092724e-05
-2.1452496e-05
0.0003528167
0.00028678165
-4.5396785e-05
0.00038938995
-0.00024323406
4.404896e-05
6.4336892e-06
-0.00035916818
0.0002505995
0.00021779089
5.155928e-05
-8.5831892e-05
0.00041891916
8.466771e-05
-0.00035931252
0.00015030471
3.5708541e-05
-0.0001435322
-7.9027695e-05
1.6780565e-05
5.3280623e-05
0.00030913481
-7.5328709e-06
0.00023006005
0.00019873234
-1.3050938e-05
0.00019431153
-0.00012933555
1.1578636e-05
0.00034189468
-0.00045471294
1.2733781e-05
0.00038036046
-4.6998668e-05
-4.9679696e-05
-3.3072147e-05
0.00045268101
2.1934357e-05
-0.00031112379
0.00023974838
0.00018413388
-0.00035434578
0.00011111393
0.00013216597
-0.00015872324
0.00011474184
0.00014450125
2.8235166e-05
0.00014273962
8.0984347e-06
0.0002134179
-1.1513897e-06
0.00035695862
2.1224649e-05
4.3259869e-05
5.4131352e-06
-0.00028480613
0.00011015223
-0.00027232574
0.0001661282
-6.8650861e-05
0.00022189606
5.9366741e-05
0.00019093874
0.00028273204
5.3691927e-05
0.00030474675
5.5026466e-05
-7.975612e-06
-3.3283193e-06
-0.00010352696
-5.7913946e-05
5.4406359e-05
0.00030354454
0.00030456195
-4.5750354e-05
-3.6656131e-06
0.00017680632
0.00021444795
0.00030345044
0.0001443608
0.00027300083
-1.3811876e-05
0.00018673283
0.00014014138
3.3613207e-05
0.00028635285
-6.8456705e-05
0.0001556157
-0.00011389275
-0.00020861268
-4.298754e-05
-0.00020475443
8.2309847e-05
1.2704341e-05
0.00028101767
0.00016022529
0.00024271211
0.00020945964
0.00028370431
0.0002337969
-0.00014599248
0.00016042683
-0.00023446825
-0.00020044451
0.00011662158
-0.00020598779
-7.5775178e-06
-0.00023445511
-9.8397946e-05
-3.4549985e-05
7.4442175e-05
-6.6712241e-05
-0.00015840618
0.00015877231
-6.8974459e-05
-0.00022624882
0.00012637779
-3.4519393e-05
-0.00014690857
-0.00011907183
5.7253889e-05
-3.1379648e-05
-0.00020244062
5.0365477e-05
1.113077e-05
-0.0001416664
-3.7172812e-05
0.00016186761
-0.00030779665
-4.1694917e-06
0.00024902643
-0.0001780393
-1.6973253e-05
9.7219721e-05
0.00014879488
-0.00010046987
0.00014393705
-0.00011222024
-0.00011206162
0.00010264295
-7.9105922e-05
-0.00014935193
4.1054906e-05
-0.00013393843
6.1754614e-05
-0.00024088862
-0.00014012138
0.00014820613
-0.00014348411
-0.0001545747
-2.9143608e-05
8.362084e-05
-0.00011097013
-0.00018535884
5.0084567e-05
-4.450481e-05
-0.00012894013
-0.00025207483
1.3719082e-05
3.6678201e-06
-0.0002655501
-1.3541278e-05
0.00019727684
-0.00032558571
-3.8554714e-05
5.6643374e-05
3.5990096e-05
-5.424148e-05
-2.6865273e-05
5.5173897e-05
6.6615103e-05
0.00014475918
-0.00028413544
7.9283221e-05
7.6031568e-05
2.7013738e-05
-0.00027766397
0.00041847721
-9.9628575e-05
-0.00014177112
-2.9798223e-05
-0.0001069218
0.00020306491
-0.0006215886
6.2976345e-05
2.0035109e-05
0.00033809064
8.4371835e-05
-0.0003032996
0.00054960764
5.7845746e-05
-0.00023184492
4.9824409e-05
7.1276779e-05
-9.2881532e-05
-0.00040102689
0.0001568342
-1.970923e-05
-0.00048514067
0.0002299685
-4.1584035e-06
-0.00035024524
4.6702678e-05
1.2144215e-05
-0.00061282381
0.00013060984
0.00010169263
-0.00051601378
0.00013459508
0.00010421181
1.8099337e-05
2.5420501e-05
0.00021008578
-7.9242664e-05
-0.00010155248
1.9247609e-05
-0.00012741244
-0.00011535779
-4.8290403e-05
-0.0001503596
0.00019062946
-0.00055398473
-0.00012918433
0.00035798492
-0.00039383413
-0.00014106712
-9.6353748e-05
0.00048627954
-0.0001545444
-0.00034274414
0.00019158891
2.6984197e-05
-0.00017882638
-0.00063594464
0.00010172202
-5.0861167e-05
-0.00056834221
4.0587633e-05
0.00017313503
-0.00071339145
-3.2552357e-05
7.625581e-05
-3.6539797e-05
-2.1612893e-05
-2.2943429e-05
8.6939648e-05
0.00016207599
0.00016823621
-0.00068061403
0.00019470836
6.2767744e-05
0.00014542713
0.00019043975
0.00027835601
-3.4326537e-05
0.0002393142
-8.2214273e-05
0.00013282999
-0.0001322651
-0.00014954976
0.00016018248
-0.00017427156
0.00024769439
0.00013859562
-2.145739e-05
0.00040701555
3.7488303e-05
0.00025353989
-0.00023329272
-7.9429005e-06
0.00021446828
-0.00038155112
-1.8345755e-05
0.00020854499
-0.0003443156
-1.6402366e-05
7.0119426e-05
-0.00021678699
4.2134189e-05
-0.00029682503
-0.00011300457
0.00011715744
-0.00043606538
-0.00025911982
3.617946e-05
-0.00018052309
-0.00021248932
4.3062428e-05
-3.0055016e-05
1.3584518e-05
-5.1797289e-05
-8.5393256e-05
0.00015905238
8.3923178e-05
-0.00020449129
9.3709525e-05
6.0479558e-05
-0.00042901492
-3.7680487e-05
7.4200178e-05
-0.00037694125
-2.0588724e-05
0.00011785988
0.00037704753
1.0780224e-05
0.00018513883
9.9831614e-05
7.8893092e-05
-2.3534657e-06
-0.00010047422
-0.00014585654
-0.00012453792
-0.00024681091
1.5350611e-05
-0.00013039557
-0.00052225777
-7.9928465e-05
9.6964885e-05
-0.00031543125
0.00018030214
0.00014429685
-3.1122197e-05
0.00017579515
-0.00026510638
-0.00023609368
0.00011357008
-0.00031488433
0.00012568005
0.00021933325
7.6814949e-05
-2.5838674e-05
-1.2403604e-05
0.00016633327
4.2298567e-05
-0.00029791823
0.0001289725
-1.5673268e-05
-0.00020959433
0.00010023314
2.5708567e-05
0.000110919
4.962503e-05
3.4523505e-06
0.00017451183
-0.00026098281
-7.1909565e-05
0.00016825196
-0.00035649707
-5.9558744e-05
0.00011825211
-0.00026360477
-9.2203206e-05
3.8699021e-05
-0.00013335804
1.555266e-05
-0.00010193024
8.4895047e-05
-2.8025699e-05
-0.00015560751
-0.00016743191
4.5599518e-05
-0.00013040444
-0.00019093892
-2.201625e-05
-0.00015541199
-2.6499964e-05
-0.00019134453
0.0001587482
-1.237653e-06
-0.00018320795
-4.5850708e-05
-8.2109466e-05
-0.00010753942
-0.00041743429
-5.1540616e-05
-5.1724501e-06
-0.0003930516
-6.9476047e-05
0.00019387571
8.8271017e-05
8.2195498e-05
0.00022967265
9.6988286e-05
-4.6004535e-05
8.5542652e-05
0.00012861071
-7.3376289e-05
0.00011329109
-0.00019842363
-6.3401919e-05
0.00024776601
-0.00055099129
-0.0001554211
0.00014084825
-0.00017197764
-1.4601498e-05
-0.00010940148
0.00024627173
0.00015698967
-0.00015294592
-0.00018440284
0.00012401955
-0.00042043512
6.7346711e-05
7.577865e-05
2.9271467e-05
0.00018489394
6.5316415e-05
0.00023858032
7.4134732e-05
0.00025707866
0.00010295946
0.00027174962
4.0367203e-05
0.00011093522
9.9838176e-06
-7.6161586e-05
-3.2720635e-06
-0.00013660065
1.8730359e-05
-3.6817724e-05
-4.220223e-05
0.0001946299
-9.2860654e-05
0.00018970875
-0.00010748429
0.0001264118
-0.00013097029
-8.6914133e-05
0.00015065616
0.00018489834
0.00024037194
0.00016788395
1.5507665e-05
8.0430808e-05
-0.00016437063
-2.6440475e-05
-2.1149953e-05
-2.1336445e-05
0.00014303694
-0.0001356553
0.00033716546
-0.00017941055
0.00033842779
-0.0002426735
2.5277395e-05
-0.00015553104
-6.590446e-05
0.00020022187
0.0002604858
0.00016259357
0.00022448594
0.00013530132
3.7847712e-05
-0.00018976975
0.00010565626
-0.00014882785
-0.00013290243
-0.0001158927
-0.00014451089
0.00021215194
-0.00040417156
-4.2128377e-05
0.00017677542
2.0697853e-05
-4.7750241e-05
-7.6504555e-06
0.00014405977
-2.6938496e-05
-0.00013940257
0.00014908573
-5.0352504e-05
-0.00020264554
0.00011919209
3.3040507e-06
-0.00018225215
8.6957159e-06
2.3479393e-05
-2.6058635e-05
-0.00025292473
6.0418263e-05
0.00019215174
-0.00029911116
7.6654884e-05
0.00021146618
2.4189389e-05
-5.7693579e-05