/*--------------------------------*- C++ -*----------------------------------*\
| =========                 |                                                 |
| \\      /  F ield         | OpenFOAM: The Open Source CFD Toolbox           |
|  \\    /   O peration     | Version:  v2012                                 |
|   \\  /    A nd           | Website:  www.openfoam.com                      |
|    \\/     M anipulation  |                                                 |
\*---------------------------------------------------------------------------*/
FoamFile
{
    version     2.0;
    format      ascii;
    class       volVectorField;
    location    "650/bottomWater";
    object      U;
}
// * * * * * * * * * * * * * * * * * * * * * * * * * * * * * * * * * * * * * //

dimensions      [0 1 -1 0 0 0 0];


internalField   nonuniform List<vector> 
1460
(
(-0.0030248091 -0.015304405 0.0012692115)
(0.00085978804 -0.011369271 0.0023830521)
(-0.0011076338 -0.01487437 0.00069070762)
(-0.0028276136 -0.011960613 -0.00026805143)
(0.0014365155 -0.012093439 -0.00011220972)
(0.0028372858 -0.013982672 -0.00027780376)
(0.0016938342 -0.015999582 -0.00063804533)
(-0.00099491815 -0.018843914 -0.001348016)
(0.0024089781 -0.010789941 -0.00060786452)
(0.0027639886 -0.012162944 -0.0003617549)
(-0.00039364574 -0.015704717 0.0004612766)
(-0.0028279984 -0.014195019 0.0011534224)
(-0.0045680555 -0.011918953 0.0013934341)
(-0.0020634854 -0.011763375 0.0019762507)
(-0.0016366181 -0.011832556 0.0030165155)
(0.00051719482 -0.012936114 -0.00027777912)
(0.0023920019 -0.015179825 -0.0003003675)
(0.0020549302 -0.017471071 -0.0002664901)
(-0.0002182889 -0.018805567 0.00055898863)
(-0.0029873645 -0.016406761 0.00047362118)
(-0.0013754855 -0.012854001 0.0012364096)
(0.0021812649 -0.011213144 0.0014216049)
(0.0035096813 -0.014281044 0.00076510163)
(0.0033365336 -0.017199655 -0.00011237372)
(0.0013739465 -0.019629594 -0.00071656709)
(0.00052808596 -0.018598018 0.00056984913)
(-0.0039477465 -0.013158459 0.00094640808)
(-0.0016581451 -0.012956561 0.0012766701)
(0.00056956566 -0.011698749 0.0017610582)
(0.0031918859 -0.015354427 0.001448877)
(-0.0040464423 0.015703495 0.0031610986)
(0.0010240496 0.0015992548 0.0013333604)
(-0.0013864368 0.016247919 0.0022502127)
(-0.00012294375 0.0069341331 0.00067198027)
(0.0022785012 0.00084755551 -0.00010254066)
(0.006647747 0.011500902 0.00021145665)
(0.0042549052 0.0172953 0.00021358225)
(-0.0048670068 0.016337591 -0.0030223896)
(-0.0015005806 0.003541228 8.8418433e-05)
(0.0039126836 0.014231328 2.5576976e-05)
(-0.0006681984 0.017546143 0.00043285291)
(-0.0044710728 0.0155244 0.00073719398)
(-0.0018928586 0.0070037295 -0.00098425743)
(0.00097696623 -0.0002037874 -0.00030156149)
(0.0018893093 0.0030533227 0.0014290399)
(0.0051152448 0.004634543 -0.00015707503)
(0.0071159091 0.011092278 -0.0012283373)
(0.0087656502 0.017866621 -0.001220692)
(-0.0027008919 0.019928645 -0.00035729124)
(-0.0074916137 0.01577447 -0.0004458521)
(-0.0010044193 -0.00017227562 0.00076639698)
(-0.00029752795 -0.00017088124 0.0008422915)
(0.0035449769 0.010585573 0.0010252076)
(0.0048235985 0.017695785 -0.00094952363)
(0.0043130072 0.020082889 -0.0030204497)
(-0.0011613734 0.019416585 -0.0024539431)
(-0.0069222829 0.013316607 -0.00035495239)
(0.00018170733 -0.0028349613 -0.00091336521)
(-0.0028833728 -0.0030032194 0.00079469424)
(0.0049523638 0.015596158 0.0027033606)
(0.0032908162 -0.013830988 -3.8820025e-05)
(0.00067233786 -0.013650686 -0.0013405556)
(0.0022736283 -0.013227712 0.0010502737)
(0.0053539477 -0.012959141 0.001173057)
(0.00021861354 -0.014834871 -0.00071676453)
(-0.0041382572 -0.013075792 -0.0020104453)
(-6.024704e-05 0.0042955694 -3.6035516e-06)
(-0.00052719087 -0.0044156667 0.0029767479)
(-0.002395925 -0.014105328 0.00087292052)
(-0.0055744957 -0.0097771187 0.0010436866)
(-0.00039785695 -0.00085751393 -0.00027323173)
(0.0035331303 -0.012823724 -0.0018791704)
(0.0044959903 -0.015227555 -0.0038331608)
(0.0029566278 -0.013747305 -0.0027014047)
(0.00044962745 -0.012716631 -0.0011906828)
(0.0028472144 -0.013845949 -4.8481605e-05)
(-0.0056270685 -0.014637791 -0.0010374822)
(0.0042667224 0.0040686961 -0.0013755987)
(-0.001584947 0.0071675733 7.9657228e-05)
(0.0059367032 -0.011854266 -0.00025733987)
(0.0022030093 -0.015372244 -0.0009175762)
(-0.0037259177 -0.013821931 -0.0010773082)
(-0.0015941921 -0.015165914 -0.0012693029)
(0.0021058225 -0.013392857 0.001808933)
(0.0036461889 -0.003963584 0.0013429682)
(0.0030480854 0.0020235344 0.00056004528)
(0.0059357438 -0.010527878 -3.7345591e-05)
(0.0040301453 -0.015676469 -0.0027560382)
(-0.0055493798 -0.014756024 -0.00093739377)
(-0.0033127479 -0.015304655 -8.5078482e-05)
(-0.00075030935 0.0052299521 -0.0013588761)
(-0.0013176516 -0.0020830229 -0.0018661535)
(0.00047588301 0.0030021673 -0.00064737082)
(-0.00033107026 0.003407902 -0.00087172348)
(0.00062949428 0.011071333 -0.0014229345)
(-0.004225665 0.010735898 -0.0011147712)
(-0.0014883097 0.0077315513 -9.0177462e-05)
(0.0021117725 0.0094050811 0.0027847503)
(-0.001763885 0.0083729074 0.00061055785)
(-0.0027139951 0.0050640103 0.00027955524)
(0.00044885028 0.0024843864 0.00027042798)
(0.0041238458 0.0067264546 -0.00053206056)
(0.0023934555 0.0094272617 -0.0021951706)
(0.0025407717 0.0014200261 0.0007852266)
(-0.00118892 -0.0032966748 -0.00029989829)
(0.0035800265 0.0067250251 -0.00088323295)
(-0.0046363183 0.0098764049 -0.0018540604)
(-0.00085919843 0.0079705797 -0.00080632304)
(0.0014470826 0.0096061282 0.00052863206)
(0.0057446679 0.011310336 -0.000546748)
(0.00018896472 0.01115507 -0.0020813054)
(0.0026252405 0.0003552938 -0.00052092692)
(0.0022664529 -0.0020914925 -0.0012527601)
(0.0037048109 0.0069651332 -0.0016359383)
(0.0018491427 0.0092255581 0.00010322916)
(0.0032027988 0.0086562661 0.0025749)
(0.0050106117 0.010891783 0.0021316093)
(0.0036185034 0.012790192 0.0044936911)
(-0.00066273291 0.0046853315 0.0027319459)
(0.0013013817 -0.0020500954 -0.00028979143)
(0.0011817032 -0.0087009939 -0.0028445458)
(-0.0017837313 -0.010182629 -0.0035874832)
(-0.0045068928 -0.010226453 -0.0025854972)
(-0.0062494909 -0.0085598168 -0.0020475698)
(-0.005273721 -0.0059373557 -0.00078342134)
(-0.0030547204 -0.0045484546 -0.00045880898)
(-0.00039568187 -0.00052769263 -0.00024247632)
(0.0027616611 -0.0046114655 -0.00020754011)
(0.0043787439 -0.0087208675 -0.0017417571)
(0.0046005967 -0.009832022 -0.0021909595)
(0.0035536799 -0.0092804855 -0.0016333954)
(0.00017697217 -0.011266057 -0.00029596296)
(0.00063945239 -0.0068976718 0.00062023283)
(0.0011646205 -0.0093374643 0.00086653781)
(-0.0060364948 -0.0091951497 -0.00088200626)
(-0.0069438591 -0.0067381751 -0.00038894968)
(-0.0050176952 -0.0024621707 0.0002537166)
(-0.0017777984 0.0014665271 0.00078901815)
(0.0019055149 0.0015499443 0.0016636316)
(0.004882233 -0.0036179832 0.0016609532)
(0.0067045443 -0.0073640357 0.00075786034)
(0.006826317 -0.010223329 -0.0010518488)
(0.0024117248 -0.011410765 -0.00088892812)
(-0.0034217493 -0.007905056 0.0024606482)
(-0.00047848907 0.00083918357 0.0017145289)
(0.0024653749 -0.0018552626 0.0017470614)
(0.0030421192 -0.0087442993 0.0021064027)
(0.004433985 -0.010878255 -0.00046925533)
(0.0046548162 -0.010637215 -0.0026960146)
(0.0038350615 -0.010869209 -0.0028685015)
(-0.0010921617 -0.015802388 1.5761467e-05)
(0.00013215896 -0.015131639 0.0021658332)
(-0.0030548216 -0.013395432 0.00084264496)
(-0.0015751648 -0.011490901 0.00023042905)
(0.0016526045 -0.012376615 0.00093003326)
(0.0021005106 -0.016804537 0.0018798294)
(-0.0014540143 -0.01672333 0.0019938236)
(-0.0017606373 -0.01274684 0.0013319342)
(0.0015003187 -0.010166226 0.00021334186)
(0.0021621593 -0.011896578 7.0655258e-05)
(-0.0019887872 -0.017221126 0.001451366)
(-0.0022778864 -0.015489971 0.0015248072)
(-0.0038703757 -0.014591223 0.0017213828)
(-0.0037750949 -0.014066681 0.002834304)
(-0.0051420164 -0.01292885 0.00097533887)
(-0.00082197689 -0.013154373 0.00028020867)
(0.0023680204 -0.012718761 0.00090896257)
(0.0021254583 -0.016986028 0.0013060936)
(-0.0016657448 -0.017540345 0.0016244024)
(-0.003017675 -0.014560952 0.0011585677)
(-0.0012436106 -0.011462207 0.00132254)
(0.00290639 -0.015961153 0.0015556084)
(-0.0011652912 -0.019378321 -0.0010045034)
(0.00048506472 -0.011134122 0.00077314654)
(0.0023531329 -0.011564954 0.0017312149)
(0.0038308273 -0.013478855 0.0023292607)
(0.0031654479 -0.014478329 0.0019163528)
(0.0012127779 -0.018324958 0.0040755683)
(0.0014975545 -0.016245684 0.003785638)
(0.0011240847 -0.016068066 0.0018674331)
(-0.0024971114 0.017346852 0.0035621566)
(-0.0026542396 0.016217013 0.0045031339)
(-0.0054485748 0.015074222 0.0025951052)
(0.0024957724 0.001579367 0.0014245678)
(0.0024836073 0.0023813137 0.00011236326)
(0.0081116227 0.015544656 0.00087805607)
(-0.0017964249 0.017192788 0.00076683726)
(-0.0024103356 0.00087750001 -0.0003963244)
(-0.0023998496 -0.0010407157 -0.0013837498)
(0.0044617201 0.014499108 0.0012693691)
(0.00014730058 0.018593937 0.0022324232)
(-0.0036645312 0.01712544 0.0030984695)
(-0.0040974689 0.016150253 0.0038750526)
(-0.0031755118 0.014998438 0.0046002982)
(-0.0045884889 0.013506291 0.0019462715)
(0.0044867596 -0.0021123976 0.00032575762)
(0.0047355277 0.003448683 -0.00029473902)
(0.0085818704 0.015872834 -0.00039461516)
(-0.0023759706 0.018804614 0.00016099486)
(-0.0035695448 0.011765674 -0.00072953002)
(-0.0030244659 -0.000618641 -0.00064892079)
(0.0043642695 0.016761315 0.0047189438)
(-0.00296708 0.019504785 -0.00099366845)
(-0.00049122325 0.0025265881 -0.00041837255)
(0.0026652745 0.0021103707 0.0010300862)
(0.0035317495 0.0077676806 0.0010934098)
(0.0034825362 0.015802324 0.0019632713)
(0.00079949648 0.018458351 0.0066800081)
(0.00083733847 0.015255774 0.0059936712)
(0.0023899141 0.017581119 0.0043942458)
(0.0003242077 -0.00093893072 0.0022840733)
(0.0016738202 -0.006874257 0.0018223265)
(0.0048679637 -0.012249089 0.001824344)
(0.0068963012 -0.014011835 0.00090329274)
(-0.001706216 -0.014480824 -0.0024612893)
(-0.0003913068 -0.0077328144 -0.0014125765)
(-9.8827535e-05 0.0039579308 -0.00043309208)
(0.00095674002 -0.014235165 6.1297158e-05)
(-0.0064347691 -0.01408026 -0.0024082474)
(-0.0065507183 -0.0080404937 0.00054622142)
(-0.0032280155 4.8404746e-05 0.0008423599)
(-0.002888007 -0.0044191287 0.00068074708)
(0.0012093528 -0.010741917 -0.0014826003)
(0.0036221746 -0.01258111 3.708603e-05)
(0.0070444639 -0.014494668 0.0012721868)
(0.0065141335 -0.015595851 0.00035376183)
(-0.0044072811 -0.013490688 -0.0036850668)
(0.0019060933 -0.0017273128 -0.0016731355)
(-0.0022014839 0.0042621512 -0.00097007818)
(0.0054837827 -0.013422075 -0.0035434915)
(-0.0038274023 -0.015709993 -0.0041133615)
(-0.0062206887 -0.012834871 -0.0017486715)
(-0.00092611033 -0.006445111 0.00049773836)
(0.0028048791 -0.013941263 -0.00012601592)
(0.0036660038 -0.013413871 0.0015337703)
(-0.002459771 -0.014322102 -1.2442213e-05)
(-0.00073213206 -0.0029428265 -0.0010986203)
(0.00018873919 -0.016381776 -0.005353034)
(-0.0031409593 -0.015983487 -0.0035473161)
(-0.0011794189 -0.0047151318 0.0021691388)
(0.00073714893 0.0082937216 0.0017871635)
(0.0022261339 0.006952315 -0.00071478719)
(0.0022172191 0.0048683813 -0.0010020107)
(0.0028377747 0.0092765436 -0.0012831575)
(-0.00053359319 0.010084977 -0.0021316693)
(-0.0033021755 0.0089941473 -0.0016317294)
(-0.00097095436 0.0081395183 -0.00055014924)
(0.00051614518 0.011204596 0.0024373806)
(-0.0058070115 0.010098554 0.0015442491)
(-0.0064734211 0.009702613 0.00051942999)
(-0.0044576155 0.0081308631 0.00062102221)
(0.00020420143 0.0060519892 -0.0013193256)
(0.0015504426 0.0013986384 -0.0014110278)
(0.0013414361 0.0013131847 0.00067258402)
(0.0013369487 0.0059228453 0.00014420412)
(-0.001459427 0.011233346 -0.0013635042)
(-0.0043554399 0.0093565007 -0.0016464486)
(-0.0028412303 0.0074289045 -0.0010766199)
(-9.6850026e-05 0.0082966506 0.00020284565)
(0.0030952552 0.0089947121 -0.0023061433)
(-0.00037900498 0.01114431 -0.0019595935)
(-0.0026466998 0.011616386 -0.0017065045)
(0.0018566569 0.0011470056 -0.001078949)
(0.00031328992 -0.0042969707 -0.00017388498)
(0.0024601691 0.0055801995 -0.00054248319)
(-0.00030937478 0.012625786 9.2454445e-05)
(0.0012752906 0.0086318823 -0.0015649213)
(0.004987914 0.013691924 -0.0014973483)
(-0.0045335243 0.012329179 -0.00068685044)
(-0.0020310535 0.0068566654 0.00060022289)
(0.001275316 -0.0027995453 -0.0020041405)
(0.001365087 -0.0090232305 -0.0038628412)
(-0.0024535765 -0.011238224 -0.0028771928)
(-0.0042536207 -0.0092246349 -0.0018663271)
(-0.0038847042 -0.0057870895 -0.00063732105)
(-0.0034190489 -0.0043728283 -0.00035875458)
(-0.0020296152 5.5022766e-05 -0.0004952313)
(0.00070056417 -0.0059652199 -0.0021573207)
(0.00084516551 -0.0050894139 -0.0024461286)
(0.0024321175 -0.0057221045 -0.0022728478)
(0.0031190512 -0.0071515424 -0.0026032979)
(0.0025712002 -0.0097351648 -0.0012316849)
(-0.00047302118 -0.010844147 -0.00031578797)
(-0.0040019495 -0.010115387 -0.0023295698)
(-0.0055784399 -0.0095161894 -0.0031544627)
(-0.0046434688 -0.0079209179 -0.0020686178)
(-0.0034084355 -0.009347218 -0.0010689161)
(-0.0027641044 -0.0030410653 -0.00078419399)
(0.0015231737 -0.0015867156 3.5957939e-05)
(0.0026605331 -0.010832026 -0.00052161349)
(0.002518163 -0.010602961 -0.0018195625)
(0.003671471 -0.010689428 -0.00416058)
(0.0046607857 -0.010060052 -0.0035149863)
(-0.0032177664 -0.010883877 -3.8455864e-05)
(-0.0057569238 -0.0089958667 -0.00011184696)
(-0.0032656639 -0.0069936383 -0.00068113191)
(-0.0028615918 -0.0068846165 -0.001864813)
(0.0016543611 -0.0026215165 -0.0018068039)
(0.001628932 -0.0026731268 -0.0027658019)
(0.0041925506 -0.0096773355 -0.003109884)
(-0.0011079136 -0.014808088 -0.0021424115)
(0.00040228607 -0.016014127 0.001147234)
(-0.0023891784 -0.01224813 -0.00051055738)
(-0.00031362467 -0.010278417 0.00070178989)
(0.0026293185 -0.011950986 0.0024763708)
(0.0024934851 -0.015404155 0.0036725619)
(0.0010749719 -0.016333493 0.0021600984)
(0.00074176194 -0.017337104 0.0037032746)
(0.0014566334 -0.015172148 0.0025552757)
(0.00022627066 -0.014768323 -0.0011932423)
(-0.00015153303 -0.01625053 0.0015522514)
(-0.00050504203 -0.015461409 -0.00039231542)
(-0.00041001497 -0.015206027 -0.0014147792)
(-0.0033632548 -0.010519614 -0.00082571128)
(-0.002882575 -0.010315564 -0.0016069814)
(0.0011287434 -0.01174373 0.00075309181)
(0.0017240099 -0.012823425 0.0033339749)
(0.00042035099 -0.016856154 0.0038497904)
(-0.00074260988 -0.017786781 0.0032174578)
(-0.001348286 -0.016603574 0.0012369316)
(-0.0010560186 -0.017003641 0.0010819624)
(-0.0011756967 -0.018078869 -0.00166927)
(0.00080997313 -0.011955819 0.0010907982)
(0.0026077414 -0.014978325 0.00095832478)
(0.0017148292 -0.015287345 0.0021015676)
(0.0023594599 -0.01525884 0.0019424002)
(0.0020825539 -0.015289231 0.00093995189)
(0.0011288226 -0.016109706 0.0007599273)
(0.00090904432 -0.016136357 0.0021711052)
(0.00034493238 -0.015653399 -0.00017889538)
(-0.00082126389 0.016537208 0.00081251325)
(-0.0026297923 0.017534372 0.0016078881)
(-0.0049810087 0.014045215 -0.00022792356)
(0.0023349574 -0.0013535713 -0.0004749423)
(0.002273311 0.0064720262 0.00028906033)
(0.0058486988 0.016155228 0.001258773)
(0.00052672979 0.018132702 0.00031636184)
(-0.0029219839 0.017945473 0.0048080115)
(0.0033047025 0.016516494 0.0040954341)
(0.0027463235 0.017171384 -0.0015059413)
(0.00045940926 0.017886704 -0.0011605574)
(-0.0025581217 0.017315524 0.00010627077)
(-0.003442911 0.017083594 0.0010117376)
(-0.0052526974 0.013751832 0.0016543148)
(0.0035521035 -0.00036836867 -0.0011227059)
(0.0036997098 -0.0013771918 -0.0023199617)
(0.0086208729 0.011618832 0.00020773982)
(0.0057291061 0.017788952 -0.00045994558)
(-0.00096123381 0.019288596 -0.00032973316)
(-0.0026086177 0.018519813 0.0024203187)
(-0.0022433561 0.018322629 0.0034154036)
(-0.0029266061 0.018183651 0.0024530125)
(-0.0028618883 0.0053955623 0.00052085366)
(0.0032835104 0.016687604 0.0012621877)
(0.0032226462 0.017124523 0.0019109269)
(0.0033318412 0.017168014 0.0014068818)
(0.0020373165 0.017705343 -0.0011566878)
(0.00085213392 0.018177602 0.002330262)
(-0.00017504631 0.017825915 0.0040493291)
(0.00032570757 0.017262324 0.001154154)
(0.0011765316 -0.00043576183 0.0007362213)
(0.0010747017 0.00040550178 0.00133423)
(0.0046156503 -0.010589207 0.00014225269)
(0.00403086 -0.013672053 -0.0022459056)
(-0.0018702155 -0.013737967 -0.0046227408)
(-0.0011565403 -0.0089287012 -0.0021503737)
(-0.00046763501 0.0038031251 0.0005087463)
(-0.00034022436 -0.016956613 -0.0050933072)
(-0.0010611776 -0.015524952 -0.0051106231)
(-8.0620152e-05 0.0015769169 -0.0025901112)
(-0.001180895 0.0037334877 -0.00078184833)
(-0.00072786168 0.00075168869 -0.00089668877)
(0.0017032562 -0.0018652431 -0.00029810027)
(0.0060250074 -0.010721467 4.2330676e-06)
(0.0065373563 -0.014064088 -0.0013087776)
(-0.00088837828 -0.015196751 -0.0050684331)
(-0.0040766298 -0.011349771 -0.0061918136)
(3.2018046e-06 0.0040698419 -0.0015209305)
(-0.0017439835 0.004681814 -0.00041052691)
(-0.00068844678 -0.0069224269 0.0012166759)
(-0.0023643177 -0.0071619541 -0.0016653482)
(-0.00028416799 -0.0032203002 -0.001175022)
(-0.00071129261 -0.013756099 -0.00042637971)
(-0.002070831 -0.014022264 -0.0021504105)
(0.0028248623 -0.0033441891 -0.0025670168)
(0.0012474771 -0.00094698883 -0.00186012)
(0.0014474133 0.00074802208 -0.0024732562)
(0.00050836314 -0.00073055254 0.0029213882)
(-0.0018700172 -0.0019909439 0.0022067165)
(-0.0013248836 -0.0036243003 0.00029319339)
(0.00080102191 0.0083654914 0.00074000064)
(0.0021064466 0.0078851678 0.0011201076)
(0.003362001 0.0049163614 4.5056074e-05)
(0.0015233508 0.0038219553 0.00061948335)
(0.0022330675 0.0082867921 -0.0022371176)
(-0.0030955907 0.010020225 -0.00022441218)
(3.2150042e-05 0.0087477878 0.0024277343)
(0.0020621137 0.013050345 0.0028235168)
(-0.0065920995 0.011193762 4.2624562e-05)
(-0.0047165358 0.0082964368 0.00036585738)
(-0.003146648 0.008988593 0.0011289359)
(-0.00041106323 0.0075645415 0.00062480385)
(0.0033952109 0.0043952465 -0.00035139258)
(0.0054483678 0.0072159293 0.0016389205)
(0.0034922247 0.0089807831 0.0018873796)
(0.00019326812 0.0098882574 -0.00043473775)
(-0.0044837772 0.0087855216 -0.0024864252)
(-0.0024858413 0.0086331172 -0.0014271094)
(-0.0003005923 0.0097320327 0.001943693)
(0.0020856538 0.0098236556 0.0013772249)
(-0.0007680753 0.010095003 -0.00056575689)
(0.00026892379 0.0092558158 -0.0031433261)
(0.00082527096 0.0046241096 7.9646246e-05)
(-0.0022731757 0.0027825716 -0.00028698256)
(0.00015365051 0.0078213831 -0.0016517193)
(-0.00047103642 0.008481791 -0.00063702817)
(0.00064648853 0.0086190236 0.0011230704)
(0.00031118526 0.0084350712 0.0019575121)
(-0.0012839337 0.008885903 0.0018170671)
(-0.0011716672 0.0095887349 -0.0010794993)
(0.0012542168 0.00080292469 -0.00076329261)
(0.0031520119 -0.0024003723 -0.0014231516)
(0.0023275169 -0.0091546372 -0.0028093706)
(-0.0030066695 -0.010111448 -0.00052876588)
(-0.0037242952 -0.0072698151 0.0018240815)
(-0.0037928179 -0.0048889842 0.0019205401)
(-0.0035733391 -0.0018484743 0.0023589801)
(-0.0011128215 -0.0024022404 0.0011526075)
(-0.00082152878 -0.0020225028 0.00018406714)
(0.00093392392 -0.0026707905 -0.0015646415)
(0.00013962326 -0.0010439955 -7.8849373e-05)
(0.0013935481 -0.0083591206 -0.00083132762)
(-0.0028584212 -0.0094336599 -0.0029578094)
(-0.0038154451 -0.0081390241 -0.0038650819)
(-0.0042370153 -0.0070125681 -0.003753722)
(-0.0039100355 -0.0064305395 -0.001528978)
(-0.0041303218 -0.0047498204 -0.0014336915)
(-0.0027814818 0.0011683519 -0.0017996321)
(0.00074423082 0.0013634228 0.00017201178)
(0.0023958645 -0.0052368185 -0.0014965002)
(0.0013203831 -0.0032270637 -0.00072357903)
(0.0024006427 -0.002171033 -0.0036003773)
(0.0037268897 -0.0074049884 -0.0033245944)
(-0.0017436202 -0.01065174 -0.0027228384)
(-0.0030918597 -0.0045900416 -0.00094200579)
(-0.0019193593 0.00014517768 0.00041178792)
(-0.00066579562 5.7524476e-05 -0.0014840898)
(0.00074934475 -0.0012726927 0.002262896)
(0.00085331444 -0.00058996875 0.0030791728)
(0.0013366739 -0.0046033398 0.0017271472)
(-0.00046073062 -0.014196686 -0.0038776899)
(-0.0015971766 -0.013599465 -0.0019586835)
(-0.0018706475 -0.013978245 -0.0023199391)
(-0.0019627566 -0.015731629 0.0015314505)
(-0.00045679418 -0.014858992 0.0010009096)
(-0.0023271394 -0.014378991 0.0014881091)
(0.00053031514 -0.011075626 -0.00077417461)
(0.003052159 -0.017729066 -0.0016346747)
(0.0026900054 -0.017387889 -0.0030294074)
(0.0026813587 -0.016539119 -0.0040796898)
(0.0021438567 -0.014722724 -0.0030136577)
(0.0010278753 -0.015416969 -0.0025785317)
(-1.6755672e-05 -0.016937356 -0.00088070455)
(-0.0024472387 -0.014763105 0.00086933894)
(-0.0031663193 -0.015331149 0.0028231625)
(-0.0023617103 -0.015083021 0.0035922953)
(-0.0028767992 -0.015184873 0.0022503612)
(-0.0022959684 -0.017564825 0.00051343525)
(-0.0024153591 -0.017013256 -0.0013508439)
(-0.0002801368 -0.013114959 -0.0035983194)
(0.0020476765 -0.014531617 -0.0039476297)
(0.00093789389 -0.016965022 -0.0038337634)
(-0.0001972836 -0.016657447 -0.0027089631)
(-0.00038278638 -0.015136249 -0.0046679592)
(-0.0016242383 -0.016067581 -0.003961412)
(-0.0002067575 -0.017482591 -0.0038854259)
(-0.0010848212 -0.019916122 -0.0028413813)
(0.00067300634 -0.011810573 8.0979529e-06)
(0.0030867377 -0.014167232 -0.0014189335)
(0.00086930122 -0.015775969 -0.0015128175)
(-0.0014186784 0.016177686 -0.0020114612)
(-0.0026427177 0.016160828 -0.0019717257)
(-0.0018894805 0.015159322 -0.00093248348)
(0.00039688449 0.01482295 0.0033777815)
(-0.0002289312 0.016638653 0.0030987861)
(-0.0035164976 0.015519367 0.00091089059)
(0.0017962592 0.00070106692 -0.00056474146)
(0.0036136649 0.01754501 -0.0014488374)
(0.0037443047 0.018441173 -0.0041239312)
(0.0027221222 0.017069133 -0.0068340457)
(0.0027547526 0.016206024 -0.0054279212)
(0.0020641139 0.016820308 -0.0036520271)
(0.00071991223 0.018443964 -0.0021834573)
(-0.0024252826 0.016798017 0.0010551284)
(0.0014175358 0.014061492 0.0016820203)
(0.0027167968 0.016699205 0.0041165987)
(0.004267548 0.017096517 0.0021668462)
(-0.00095611094 0.01951562 -0.0047519438)
(-0.0037861704 0.018277054 -0.0052103991)
(0.0015679278 0.0076630812 -0.0030625724)
(0.0047267074 0.015216675 -0.0052049831)
(0.0026182824 0.018511035 -0.0042060984)
(-0.0043311073 0.018321047 -0.0024980858)
(-0.0033998518 0.016636714 -0.0051400719)
(-0.0025725489 0.016748984 -0.0063497345)
(-0.0016522964 0.017741389 -0.0057283106)
(-0.0019949002 0.020417858 -0.0042286086)
(0.00084486283 0.0016852235 0.00073036071)
(0.0050234644 0.014572108 -0.0023305967)
(0.0035741018 0.017183211 -0.0025365281)
(0.0011063137 -0.00054876157 0.00062498594)
(0.00086223676 -0.0029640514 0.001299767)
(0.0032893526 -0.015588853 0.0044434409)
(-0.0024281973 -0.016847005 -0.0031232814)
(-0.0024082919 -0.0055929351 -0.00058627637)
(0.0033051531 -0.012628927 -0.00019011031)
(0.0041315028 -0.013453304 0.0008594204)
(-0.0032740786 -0.016409314 0.0035093549)
(0.00170173 -0.0047939926 -0.00059768588)
(-0.0033948776 -0.015232976 0.0045290346)
(-0.0029191369 -0.01029971 0.0033312878)
(-0.0006915166 -0.0079729573 0.0010634297)
(0.0028855345 -0.0024197891 -0.0012348663)
(0.0032731823 -0.0078323172 -0.0020961446)
(0.0041412496 -0.016517988 -0.0044763942)
(-0.0031067546 -0.014399363 -0.0043324344)
(0.0026325053 -0.0017635671 -0.0020849372)
(0.00035738687 0.005323584 -0.0037863249)
(0.0027414397 -0.012290839 0.00034339193)
(8.4524929e-05 -0.015426296 0.0018516978)
(-0.0015654995 -0.0038622638 -0.0014719026)
(0.00025063732 0.0055971664 -0.0019254754)
(-0.0022277645 -0.00036872142 -0.00091201898)
(-0.00057192424 -0.013871055 0.0052381509)
(0.00066765941 -0.012521645 0.0025598474)
(0.0029055834 -0.012978116 0.0033590357)
(0.005276909 -0.017292702 0.0025302701)
(0.00090224882 -0.014902554 0.0026256902)
(-0.00450599 -0.010625565 0.0027493859)
(0.0011998824 0.00076451006 -0.0014133498)
(0.0016169491 0.008041482 0.00042179302)
(0.0035669061 0.0077077265 0.0018442587)
(0.0062698891 0.01124428 0.0014712574)
(-0.0013992358 0.014202626 -0.00080114327)
(0.0014356883 -0.00060889136 -0.0014211077)
(0.0015724183 0.00049689042 0.00098765096)
(0.0047837772 0.0071633096 0.0007670794)
(0.00031285044 0.012371513 -0.00067203578)
(-0.00083928772 0.0089121533 -0.00051950204)
(-0.0020038645 0.013425266 0.0035188053)
(-0.0041984058 0.0088976919 0.0041333155)
(-0.00046634479 0.0025113239 0.0030758963)
(0.0039605708 0.0077481157 0.00062106832)
(0.0063038731 0.0098719699 0.0010003022)
(0.0030497372 0.012173437 0.001366221)
(-0.0042393085 0.0081713998 0.000388525)
(-0.0018922509 0.000489516 -0.00046438957)
(0.0021661621 0.0086850501 -0.00026131567)
(0.0032714737 0.012295716 0.0030255082)
(-0.0051457735 0.010089997 -9.4605183e-05)
(-0.0034199859 0.0074259363 -0.00029860113)
(-2.6325154e-05 0.0098727698 -0.0016526022)
(0.0014428358 0.0089905486 -0.00047276894)
(0.0036831594 0.0072101194 0.00050168395)
(0.0018645328 0.00094259163 0.0018931052)
(0.0059527141 0.008615424 0.0016479678)
(0.0030845906 0.014412841 0.00257529)
(-0.003630061 0.011758507 0.005142543)
(-0.0050728793 0.010763426 0.0035105838)
(-0.0027722986 0.005464107 0.0018492547)
(0.0017997314 -0.0017918698 0.00072692492)
(0.0015547462 -0.0060475859 4.4187768e-05)
(0.0022540973 -0.0054174866 -0.00023950646)
(0.0035145845 -0.0066511692 -0.00062160395)
(0.0046047433 -0.0092934302 0.00044303191)
(-0.0033039831 -0.010099524 0.003797536)
(-0.004314499 -0.0068726467 0.0040827451)
(-0.001840349 -0.0014698189 0.0032579846)
(-0.00016345927 -0.0014571315 0.0037291504)
(0.0018999306 -0.0045179199 0.0030404222)
(0.0046413733 -0.0093430298 0.0038673753)
(0.0028967657 -0.011837219 0.0023997669)
(-0.0030233652 -0.0087047022 -0.00078910115)
(0.00014737954 0.00024586171 -0.00065993007)
(0.0015716134 0.0014219185 -0.001083647)
(0.0052846358 -0.0062625341 -0.00023080818)
(0.0018807794 -0.009736419 0.0016508323)
(-0.0027518594 -0.0010133866 0.0018169669)
(0.002633388 0.0022825417 0.0039026323)
(0.0027437729 -0.0044584893 0.0036103143)
(0.00033576071 -0.0090787158 0.0043996643)
(-0.00047114013 0.0009613354 -0.00055788453)
(0.0034169645 -0.0018346865 -0.0010419233)
(0.0042641353 -0.010006657 -0.0017082309)
(-0.00074386365 -0.012781401 0.0024533787)
(-0.0043357554 -0.0093326563 0.0044298941)
(-0.00035647629 0.0015514608 0.0033935146)
(0.0007561911 -0.0030093022 0.0038347206)
(0.0027472342 -0.0063372289 0.0052108578)
(0.0027794212 -0.0091844888 0.0047581229)
(-0.0008080163 -0.014602419 -0.0046969159)
(-0.0032306189 -0.01254183 -0.0039760035)
(-0.00124248 -0.010487783 -0.0027478087)
(0.00096420541 -0.016104584 -0.0022401963)
(-0.0016759448 -0.016582069 -0.0021722448)
(-0.0026072431 -0.014211345 -0.00063056327)
(-0.0027595526 -0.01125886 0.0012416373)
(-0.00071868232 -0.011587454 0.00041619922)
(-0.00023459935 -0.012463648 -0.0023286328)
(0.00063291541 -0.012898428 -0.0015020152)
(0.0030625569 -0.010374375 -0.0008986295)
(0.0029169497 -0.013930018 -0.0016997098)
(-0.00025099077 -0.0168908 -0.0016704412)
(-0.00054482334 -0.017921639 -0.0040608277)
(-0.002482824 -0.015261412 -0.0038193737)
(-0.00090668182 -0.011824078 -0.0029247022)
(0.0022784391 -0.012355368 -0.0036587759)
(0.0015823294 -0.01686034 -0.0034698993)
(-0.0024017506 -0.017101048 -0.0026306207)
(-0.001942519 -0.011457335 -0.0015887281)
(-0.0015264539 -0.012073861 -0.001131711)
(0.0016593052 -0.011267508 -0.0022092267)
(0.0029391948 -0.016292924 -0.0033059775)
(-0.0014172571 -0.020408595 0.0012642921)
(0.00087784424 -0.010722686 0.00048282772)
(0.0024011069 -0.016184318 -0.00012332338)
(-0.003412054 0.016648498 -0.0024064294)
(-0.0037173601 0.013732789 -0.0025714015)
(0.00067573358 0.00020435362 0.0017184066)
(0.0037105912 0.016407498 0.0024956732)
(-0.0030867496 0.018533062 0.001825403)
(-0.0044620941 0.015508778 0.0017232226)
(-0.0013537877 0.005307944 0.00097218137)
(-0.00071365212 0.0024811404 0.0024224853)
(7.4694849e-05 0.0057044834 -0.00074614845)
(-7.3397068e-05 6.0627871e-05 0.0015902492)
(0.00018113931 0.0021879999 0.0015376619)
(0.0026035349 0.015749193 5.8355569e-05)
(0.0002316006 0.018591439 -0.0018735604)
(-0.00021791363 0.018732599 -0.0065559077)
(-0.0026874774 0.014795778 -0.0047744606)
(0.00031707861 0.0011814127 -0.0019253537)
(0.0041177247 0.0053816963 -0.0026500783)
(0.0040910126 0.017253035 -0.0037579415)
(-0.0062719719 0.01682628 1.9428656e-05)
(-0.0017766181 0.00039253776 0.0012313294)
(-0.0023748227 0.00055947981 0.0019935622)
(0.00090746388 -0.0024759902 -0.001219963)
(0.003002814 0.015637624 -0.003369521)
(-0.00080512281 0.020328088 0.0024040199)
(0.00031980937 -0.0015824682 0.0020671594)
(0.0034651371 0.016458745 0.0013363192)
(-0.00092966635 -0.00048520188 -0.00015406359)
(0.0054069789 -0.013624688 0.0033268934)
(-0.00014559112 -0.014929816 0.0045057906)
(-0.0024306237 -0.0029125149 0.0034303817)
(-0.0025805281 0.0020874791 0.0020979705)
(0.0022328909 -0.01282632 -0.00058138277)
(0.0035657223 -0.013936406 -0.0021451886)
(0.0020009534 -0.013422058 0.00043746619)
(0.0035727522 -0.013140076 0.0018088251)
(-0.0021176433 -0.014738434 0.0039314362)
(-0.0055038089 -0.013968743 0.0017899945)
(-0.004555902 -0.014135794 0.0010373329)
(-0.00033588438 -0.0097119894 -0.00083188934)
(-0.0016662313 -0.016993366 0.0039263098)
(0.00054994339 -0.014930686 0.0026736812)
(0.0013239912 -0.01375877 0.00090668164)
(5.165232e-05 -0.01374688 0.001773294)
(0.0019456293 0.0013689252 -0.00044227038)
(0.0014343781 -0.008497197 0.002598536)
(0.0024024461 -0.01532863 0.001479188)
(-0.002357812 -0.013663417 0.0046122006)
(-0.0011754981 -0.014428385 0.00014971925)
(-0.001603613 -0.015510105 0.0026796033)
(0.0043000703 -0.015888776 0.0020419438)
(-0.0014662975 -0.014254637 0.0023342483)
(-0.0042056307 -0.013042399 0.0018781991)
(0.0014305205 0.0068380457 -0.00064851673)
(0.003601916 0.010076342 0.00047876516)
(-0.0038407158 0.0091703265 -0.0021321114)
(-0.0037892409 0.0083813797 -7.1789065e-05)
(-0.00090212619 0.0078373444 0.00023117639)
(0.0031503473 0.0038581827 -0.0025090989)
(0.0018085335 0.00032385229 -0.0019432871)
(0.0019326433 0.00099380654 -0.0012783255)
(0.0013015263 0.0049516961 0.0010875649)
(-0.00047732643 0.010213873 -0.0021214729)