/*--------------------------------*- C++ -*----------------------------------*\
| =========                 |                                                 |
| \\      /  F ield         | OpenFOAM: The Open Source CFD Toolbox           |
|  \\    /   O peration     | Version:  v2012                                 |
|   \\  /    A nd           | Website:  www.openfoam.com                      |
|    \\/     M anipulation  |                                                 |
\*---------------------------------------------------------------------------*/
FoamFile
{
    version     2.0;
    format      ascii;
    class       volScalarField;
    location    "690/topAir";
    object      rho;
}
// * * * * * * * * * * * * * * * * * * * * * * * * * * * * * * * * * * * * * //

dimensions      [1 -3 0 0 0 0 0];


internalField   nonuniform List<scalar> 
1200
(
1.0680755
0.99611058
0.93886388
0.89152997
0.85105028
0.81563977
0.78432325
0.75676062
0.73288107
0.71223546
0.69459048
0.67991601
0.66859355
0.66928752
0.67329024
0.68060787
0.6904107
0.70136051
0.71213345
0.72176276
0.72971819
0.73580525
0.74003654
0.74252596
0.74341333
0.74278879
0.74061393
0.73661323
0.7300556
0.71975386
1.1565104
1.1525513
1.1471788
1.1406653
1.133212
1.1249812
1.1161173
1.1058392
1.092022
1.0739832
1.0493762
1.0178513
0.98015778
0.94273756
0.90908593
0.88142461
0.86013236
0.84476966
0.83469404
0.82913109
0.82696053
0.8268303
0.82748973
0.82794688
0.82743717
0.82527674
0.82068518
0.81253258
0.79879941
0.77767846
1.1585731
1.1584404
1.1581941
1.1578105
1.1572694
1.1565541
1.1556514
1.1545286
1.1531009
1.1512708
1.1487454
1.1404126
1.1194726
1.0856132
1.0439065
1.0000894
0.95970375
0.92519714
0.89745007
0.87643342
0.86145552
0.85134306
0.84475194
0.84042153
0.83728437
0.83444286
0.83108271
0.82628524
0.81853114
0.80563682
1.158618
1.1586136
1.158603
1.1585822
1.1585463
1.1584891
1.1584036
1.1582805
1.1581069
1.1578629
1.1574998
1.1567009
1.1542008
1.1403169
1.1060298
1.0617591
1.0188421
0.98004854
0.94653641
0.91887107
0.89704971
0.88049998
0.86826366
0.85928105
0.85258171
0.84734633
0.84286175
0.83840532
0.83294883
0.82492344
1.0680923
0.9968457
0.9407752
0.89494901
0.85630452
0.82309775
0.79436016
0.76955505
0.74849541
0.73125688
0.71814752
0.70964
0.70656503
0.71988221
0.73799599
0.75845058
0.77765367
0.79295341
0.80358298
0.81023739
0.8141021
0.81607138
0.81664194
0.81603351
0.81433549
0.81150227
0.80729528
0.801077
0.79119285
0.77413382
1.1565132
1.1526276
1.1474569
1.1413107
1.1344268
1.127005
1.1192453
1.111363
1.1036081
1.0962991
1.089849
1.0847738
1.0816861
1.0814028
1.0829536
1.0838777
1.0816623
1.0758234
1.0675495
1.0582717
1.0487139
1.0388881
1.028598
1.0175445
1.0054129
0.99194335
0.97707667
0.9610207
0.94360912
0.92293388
1.1585733
1.1584441
1.1582106
1.1578564
1.1573704
1.1567462
1.1559834
1.1550888
1.1540779
1.1529821
1.1518552
1.1506876
1.1495151
1.1481051
1.1440166
1.1340252
1.1154701
1.0908571
1.0650349
1.0420343
1.0226446
1.0040864
0.98610673
0.96877634
0.95269439
0.93684882
0.92038556
0.90351028
0.88624034
0.86812868
1.158618
1.1586137
1.1586038
1.1585851
1.1585538
1.1585057
1.1584364
1.1583413
1.1582157
1.1580547
1.1578506
1.1575653
1.1569434
1.153869
1.1412693
1.114419
1.0792195
1.0377793
0.99760652
0.96261844
0.93462574
0.914174
0.89838191
0.88564565
0.87489498
0.86629168
0.8593681
0.85341807
0.84764556
0.83932431
1.0680996
0.99672966
0.94051628
0.89453674
0.85571489
0.82228485
0.79318252
0.76773328
0.74556954
0.72658191
0.71094867
0.69922446
0.69272129
0.70389687
0.72012937
0.73859468
0.75693442
0.77419655
0.78998828
0.80405976
0.8162624
0.82637393
0.83402227
0.83883658
0.8406314
0.83950816
0.83570636
0.82929208
0.81890218
0.80138492
1.1565131
1.1526146
1.1474204
1.1412435
1.1343195
1.1268388
1.1189759
1.1109102
1.1028578
1.0951014
1.0880719
1.0824407
1.0791719
1.0791911
1.0804811
1.0802357
1.0779428
1.0741299
1.0688676
1.0621459
1.0538863
1.0437414
1.0312756
1.0162914
0.99889356
0.97925753
0.9575999
0.93464364
0.9112276
0.88538363
1.1585733
1.1584435
1.1582087
1.1578527
1.1573647
1.1567384
1.1559727
1.1550726
1.1540529
1.1529455
1.1518144
1.1507783
1.1499332
1.1479638
1.1395516
1.1238686
1.1077752
1.0944394
1.0813188
1.0673025
1.0516479
1.0330517
1.0110601
0.98646856
0.96062306
0.93519013
0.91156047
0.89057089
0.86893945
0.84424072
1.158618
1.1586137
1.1586038
1.1585849
1.1585535
1.1585055
1.1584366
1.1583424
1.1582186
1.1580614
1.157866
1.1575999
1.1567528
1.1493541
1.1181518
1.0706043
1.042376
1.0373956
1.0154747
0.98527706
0.95722074
0.9347564
0.91687177
0.9022587
0.88984454
0.87928548
0.87033891
0.86217956
0.84510281
0.81342929
1.0680977
0.99668201
0.94037305
0.89424479
0.85519206
0.82139689
0.79173035
0.76544003
0.74202482
0.7212158
0.70304243
0.68802777
0.67752593
0.68341042
0.68906611
0.69174009
0.69173224
0.69080084
0.69058455
0.69214469
0.69593614
0.70177436
0.70911123
0.71740158
0.72598107
0.73350754
0.73757093
0.73490427
0.7229709
0.70684375
1.1565128
1.1526093
1.1473987
1.1411887
1.1342054
1.1266226
1.1185878
1.1102426
1.101752
1.0933602
1.0855117
1.0790352
1.0750876
1.0733364
1.0701425
1.0651482
1.0593745
1.0535133
1.0476415
1.0414357
1.034139
1.024857
1.0130996
0.9990371
0.9829628
0.96472281
0.9446844
0.92274983
0.89308476
0.83375768
1.1585733
1.1584433
1.1582075
1.157849
1.1573561
1.1567207
1.1559388
1.1550115
1.1539488
1.1527793
1.1515762
1.1504933
1.1493945
1.1430767
1.1257204
1.1103671
1.0999981
1.0922889
1.0833088
1.070641
1.0529238
1.0296039
1.002201
0.97326693
0.94415528
0.91570808
0.89133509
0.8704821
0.84863546
0.81975906
1.158618
1.1586137
1.1586037
1.1585847
1.1585529
1.1585041
1.1584336
1.1583365
1.1582076
1.1580412
1.1578271
1.1574553
1.1550736
1.1286078
1.0555534
0.99753839
0.99211754
0.99348384
0.99543805
0.97956865
0.9590312
0.9390839
0.92156119
0.90693064
0.89200525
0.8759219
0.86050075
0.84259523
0.81983016
0.7924667
1.068099
0.99667034
0.94033714
0.89417764
0.85508587
0.82123917
0.79150699
0.76514743
0.74168589
0.72092131
0.70305421
0.68892392
0.67991843
0.68745861
0.69166008
0.69141965
0.68839305
0.68395681
0.67883975
0.67360703
0.66876316
0.66475529
0.66193529
0.66050342
0.66043253
0.66131966
0.66221972
0.66160046
0.65752714
0.64812249
1.1565128
1.1526073
1.1473902
1.1411679
1.1341649
1.1265533
1.1184792
1.1100858
1.1015511
1.0931687
1.0855151
1.0796612
1.0765854
1.073024
1.0674628
1.060865
1.0519901
1.0387994
1.0230082
1.0060205
0.98722573
0.96412154
0.93543758
0.90329504
0.86982748
0.83711097
0.80617753
0.77673201
0.74716899
0.71418925
1.1585733
1.1584431
1.1582069
1.1578473
1.1573521
1.1567128
1.1559247
1.1549883
1.1539146
1.1527388
1.1515578
1.1505507
1.1487364
1.1325147
1.1161534
1.1056564
1.100034
1.0946823
1.0878155
1.0759474
1.0566312
1.029358
0.99850113
0.96795735
0.94042399
0.91250787
0.88156052
0.84739327
0.80919535
0.76546116
1.158618
1.1586137
1.1586037
1.1585846
1.1585526
1.1585033
1.158432
1.1583332
1.1582012
1.1580293
1.1577978
1.1572267
1.1512119
1.0727435
0.98563036
0.97020803
0.96333245
0.95768917
0.95117949
0.94532805
0.93571393
0.9240845
0.91245217
0.90213242
0.89332958
0.88720917
0.8752859
0.85180474
0.81892189
0.78012237
1.0680996
0.99667141
0.94033866
0.89417758
0.85508072
0.82122729
0.79149307
0.76513975
0.74171088
0.72104986
0.7034559
0.68990001
0.68147372
0.68796108
0.69028431
0.6884091
0.68565938
0.6814413
0.6764869
0.67137311
0.66662629
0.66271045
0.65996989
0.65858126
0.65850362
0.65934962
0.66020579
0.65958737
0.65568956
0.6466421
1.1565128
1.1526073
1.1473903
1.1411679
1.1341648
1.1265531
1.1184803
1.1100936
1.1015827
1.0932728
1.0858148
1.0803774
1.0775972
1.0728807
1.0666042
1.0595315
1.0465082
1.0287088
1.0076472
0.9842718
0.95906622
0.93189728
0.9027212
0.87243883
0.84261296
0.81456294
0.78859765
0.76394002
0.73873748
0.70945886
1.1585733
1.1584431
1.1582069
1.1578473
1.157352
1.1567126
1.1559243
1.154988
1.1539159
1.1527481
1.1515948
1.1506245
1.1479309
1.1285668
1.1152534
1.1074729
1.1019812
1.0950978
1.0860494
1.0735745
1.053881
1.0247417
0.98961347
0.95539351
0.92495633
0.89484603
0.86481487
0.83355259
0.79945534
0.76024234
1.158618
1.1586137
1.1586037
1.1585846
1.1585526
1.1585033
1.1584318
1.1583328
1.1582003
1.1580268
1.1577843
1.1570076
1.1470138
1.0251712
0.97834278
0.96855427
0.96321461
0.95668166
0.94839542
0.93862537
0.92817313
0.91687181
0.90595391
0.89643257
0.88852346
0.88194325
0.86822425
0.84495614
0.8151964
0.78045368
1.0680995
0.99668591
0.94037831
0.89424884
0.85519098
0.82138568
0.79170834
0.76541718
0.74202514
0.72130095
0.70335557
0.68885244
0.67917384
0.68519752
0.6896652
0.69070375
0.68942648
0.68772018
0.68697689
0.68826716
0.69207563
0.69808008
0.7054925
0.7135919
0.72176041
0.72882956
0.73241114
0.72935392
0.71872156
0.70334648
1.1565129
1.1526095
1.147399
1.1411891
1.1342057
1.1266229
1.1185896
1.1102516
1.1017838
1.0934587
1.0857829
1.0796866
1.0762695
1.0739728
1.0696691
1.0640248
1.0578645
1.0516328
1.0453477
1.0386065
1.0305715
1.0203243
1.0075202
0.99251095
0.97574158
0.95711517
0.9369629
0.91525092
0.88263531
0.82329517
1.1585733
1.1584433
1.1582075
1.157849
1.1573559
1.1567203
1.155938
1.1550106
1.1539489
1.1527857
1.1516055
1.150575
1.1492486
1.1391321
1.1211687
1.1084365
1.1000603
1.0926017
1.0828823
1.0687412
1.0488864
1.0227489
0.99210329
0.9605087
0.93057609
0.90299854
0.880627
0.86140393
0.84141444
0.81465273
1.158618
1.1586137
1.1586037
1.1585847
1.1585529
1.158504
1.1584334
1.1583359
1.1582063
1.1580385
1.157819
1.1573711
1.1535514
1.1092837
1.0239444
0.99362304
0.99151698
0.99212613
0.98730569
0.97010286
0.95100721
0.93338617
0.91724424
0.90335626
0.89025442
0.87458493
0.85857029
0.84016587
0.81972718
0.79462797
1.0680995
0.99673036
0.94051708
0.89453483
0.85570535
0.82225983
0.79313877
0.7676726
0.74550373
0.72655332
0.71106419
0.69970466
0.69391831
0.70595521
0.72230084
0.73997426
0.75711113
0.77325395
0.78827172
0.80198299
0.81413776
0.82423088
0.83156648
0.83561894
0.83632026
0.83405621
0.82934022
0.82236199
0.8115432
0.79351129
1.1565131
1.1526147
1.1474205
1.1412434
1.1343188
1.126837
1.118973
1.1109095
1.1028708
1.0951634
1.0882594
1.0829041
1.0801097
1.0803678
1.0809102
1.0796316
1.0765868
1.0722699
1.0666287
1.0595641
1.0507978
1.0397768
1.0260666
1.009752
0.99138786
0.97144822
0.95011302
0.92802379
0.9055375
0.88041025
1.1585733
1.1584435
1.1582087
1.1578526
1.1573644
1.1567377
1.1559712
1.1550704
1.1540506
1.1529465
1.1518299
1.150833
1.1499855
1.1468408
1.1353767
1.1187508
1.1036474
1.0910552
1.0780872
1.0639564
1.0473422
1.0267333
1.0022304
0.97567384
0.94953632
0.92567822
0.90454872
0.88601522
0.86634573
0.84315933
1.158618
1.1586137
1.1586038
1.1585849
1.1585535
1.1585054
1.1584363
1.1583416
1.158217
1.1580582
1.1578597
1.1575694
1.1563073
1.1435889
1.1005567
1.0560189
1.0334259
1.0311788
1.0056886
0.97533096
0.9493266
0.92880657
0.91230187
0.89861301
0.88700379
0.87726519
0.86903365
0.86126202
0.84548577
0.81613172
1.0680833
0.99683044
0.94075498
0.89492397
0.85627358
0.8230566
0.79429966
0.76946985
0.74838787
0.73114005
0.71807166
0.70972708
0.7070429
0.72105142
0.73981477
0.76044384
0.7792216
0.79373851
0.80360841
0.80980809
0.8135142
0.81550652
0.816091
0.81530582
0.81315196
0.80959981
0.8045029
0.79733191
0.78644881
0.76905472
1.156513
1.152627
1.1474557
1.1413085
1.134423
1.1269987
1.1192355
1.1113503
1.1036015
1.0963142
1.0899246
1.0849859
1.0821579
1.0821966
1.0837666
1.0841655
1.0810933
1.0744585
1.065664
1.0561045
1.0462378
1.0360007
1.025146
1.0134224
1.0006534
0.98674417
0.97174529
0.95591563
0.93904108
0.91742098
1.1585733
1.1584441
1.1582105
1.1578562
1.1573698
1.1567449
1.1559808
1.1550841
1.1540708
1.1529734
1.1518492
1.1507034
1.1495657
1.1480115
1.1429904
1.1313671
1.1113418
1.0860031
1.0603846
1.0386052
1.0193301
1.0010019
0.98328139
0.96614646
0.94996286
0.93377308
0.91713101
0.90040068
0.88350591
0.86593605
1.158618
1.1586137
1.1586038
1.1585851
1.1585537
1.1585055
1.1584359
1.1583401
1.1582134
1.1580504
1.1578432
1.1575516
1.1568704
1.1530657
1.1375331
1.1089804
1.0733867
1.0313691
0.99067455
0.95605967
0.9297266
0.91022852
0.89498304
0.88254091
0.8721978
0.86418849
0.85770192
0.85206096
0.84650877
0.83883422
1.0680573
0.99607805
0.93881877
0.89147284
0.85097821
0.81554439
0.78419159
0.7565868
0.73266089
0.71197262
0.69430005
0.67962827
0.66836525
0.6692134
0.67342052
0.68089938
0.69073893
0.70158934
0.71218048
0.72162277
0.72942914
0.73541015
0.7395428
0.74188336
0.7425243
0.74153929
0.73890669
0.7343901
0.72729012
0.71652365
1.15651
1.1525499
1.1471759
1.1406601
1.1332032
1.1249668
1.1160961
1.1058475
1.0921339
1.0743149
1.0500142
1.0186092
0.98100555
0.94356553
0.90966225
0.88148803
0.85955115
0.84363267
0.83326182
0.82767815
0.82562206
0.82561752
0.82632077
0.82668794
0.82595463
0.82346921
0.81848057
0.80987319
0.79561488
0.7741412
1.1585731
1.1584403
1.158194
1.1578102
1.1572686
1.1565523
1.1556479
1.1545245
1.1530988
1.1512752
1.1487744
1.1409624
1.1208433
1.0872806
1.0454396
1.0012318
0.96009525
0.92472652
0.89628581
0.87489391
0.85982627
0.84979546
0.84333975
0.83911134
0.83599783
0.83309255
0.82958705
0.82455382
0.81641042
0.80294379
1.158618
1.1586136
1.158603
1.1585822
1.1585462
1.1584888
1.1584029
1.1582791
1.1581041
1.1578575
1.1574899
1.1566914
1.1541776
1.1408434
1.1061619
1.0612811
1.0177185
0.97812675
0.94393116
0.91593832
0.89416387
0.87788889
0.86600391
0.85735403
0.85092325
0.84587862
0.84150526
0.8370742
0.83151104
0.823157
)
;

boundaryField
{
    maxY
    {
        type            calculated;
        value           nonuniform List<scalar> 
300
(
1.1586174
1.1586174
1.1586174
1.1586174
1.1586174
1.1586174
1.1586174
1.1586174
1.1586174
1.1586174
1.158613
1.1586132
1.1586132
1.1586132
1.1586132
1.1586132
1.1586132
1.1586132
1.1586132
1.158613
1.1586025
1.1586033
1.1586032
1.1586032
1.1586031
1.1586031
1.1586032
1.1586032
1.1586033
1.1586025
1.1585817
1.1585846
1.1585844
1.1585842
1.1585841
1.1585841
1.1585842
1.1585844
1.1585846
1.1585817
1.1585458
1.1585532
1.158553
1.1585524
1.1585521
1.1585521
1.1585524
1.158553
1.1585532
1.1585457
1.1584886
1.1585052
1.158505
1.1585036
1.1585028
1.1585028
1.1585035
1.1585049
1.158505
1.1584883
1.158403
1.1584359
1.1584361
1.1584331
1.1584314
1.1584313
1.1584329
1.1584357
1.1584353
1.1584024
1.15828
1.1583408
1.1583419
1.158336
1.1583327
1.1583323
1.1583354
1.1583411
1.1583396
1.1582786
1.1581064
1.1582152
1.1582181
1.158207
1.1582007
1.1581998
1.1582057
1.1582164
1.1582129
1.1581036
1.1578623
1.1580542
1.1580609
1.1580407
1.1580287
1.1580263
1.158038
1.1580577
1.1580499
1.157857
1.1574993
1.1578501
1.1578655
1.1578266
1.1577973
1.1577838
1.1578185
1.1578591
1.1578426
1.1574894
1.1567004
1.1575648
1.1575993
1.1574548
1.1572262
1.1570071
1.1573705
1.1575689
1.1575511
1.1566909
1.1542003
1.1569429
1.1567523
1.1550731
1.1512114
1.1470133
1.1535508
1.1563068
1.1568699
1.1541771
1.1403164
1.1538685
1.1493536
1.1286073
1.072743
1.0251708
1.1092832
1.1435884
1.1530652
1.1408429
1.1060293
1.1412688
1.1181513
1.055553
0.98562998
0.9783424
1.023944
1.1005562
1.1375326
1.1061614
1.0617586
1.1144185
1.0706039
0.997538
0.97020766
0.9685539
0.99362265
1.0560185
1.1089799
1.0612806
1.0188417
1.079219
1.0423756
0.99211715
0.96333208
0.96321425
0.99151659
1.0334254
1.0733862
1.0177181
0.98004816
1.0377788
1.0373952
0.99348346
0.95768881
0.9566813
0.99212574
1.0311784
1.0313687
0.97812638
0.94653606
0.99760613
1.0154742
0.99543766
0.95117914
0.94839506
0.98730531
1.0056882
0.99067416
0.94393081
0.91887074
0.96261807
0.98527668
0.97956827
0.9453277
0.93862502
0.97010249
0.97533059
0.95605931
0.91593799
0.89704939
0.9346254
0.95722038
0.95903083
0.93571359
0.92817279
0.95100686
0.94932624
0.92972626
0.89416356
0.88049968
0.91417367
0.93475606
0.93908355
0.92408416
0.91687148
0.93338583
0.92880624
0.9102282
0.87788859
0.86826336
0.8983816
0.91687144
0.92156086
0.91245185
0.90595358
0.91724391
0.91230155
0.89498273
0.86600361
0.85928076
0.88564534
0.90225839
0.90693032
0.9021321
0.89643226
0.90335594
0.89861269
0.8825406
0.85735375
0.85258142
0.87489468
0.88984423
0.89200494
0.89332927
0.88852315
0.89025411
0.88700349
0.8721975
0.85092297
0.84734605
0.86629139
0.87928518
0.8759216
0.88720886
0.88194294
0.87458463
0.87726489
0.86418819
0.84587834
0.84286147
0.85936781
0.87033861
0.86050046
0.8752856
0.86822396
0.85857
0.86903335
0.85770163
0.84150498
0.83840505
0.85341778
0.86217927
0.84259495
0.85180446
0.84495585
0.8401656
0.86126173
0.85206068
0.83707392
0.83294856
0.84764527
0.84510253
0.81982989
0.81892163
0.81519614
0.81972692
0.84548549
0.84650849
0.83151077
0.82492318
0.83932403
0.81342903
0.79246645
0.78012213
0.78045344
0.79462773
0.81613146
0.83883394
0.82315673
)
;
    }
    minX
    {
        type            calculated;
        value           nonuniform List<scalar> 
40
(
1.1586222
1.1586212
1.1586201
1.1586191
1.1586222
1.1586212
1.1586201
1.1586191
1.1586222
1.1586212
1.1586201
1.1586191
1.1586222
1.1586212
1.1586201
1.1586191
1.1586222
1.1586212
1.1586201
1.1586191
1.1586222
1.1586212
1.1586201
1.1586191
1.1586222
1.1586212
1.1586201
1.1586191
1.1586222
1.1586212
1.1586201
1.1586191
1.1586222
1.1586212
1.1586201
1.1586191
1.1586222
1.1586212
1.1586201
1.1586191
)
;
    }
    maxX
    {
        type            calculated;
        value           nonuniform List<scalar> 
40
(
0.71964748
0.77751083
0.80548805
0.82481337
0.77401299
0.92284728
0.86808483
0.83938396
0.8011938
0.88540683
0.84439373
0.81394027
0.70649797
0.83330336
0.81950347
0.79263078
0.64783809
0.71342758
0.76460185
0.77954453
0.64674573
0.70989651
0.76075958
0.78085058
0.70344118
0.82335717
0.81494923
0.79497671
0.7934166
0.88056811
0.84346619
0.81653543
0.7689611
0.91743114
0.86599143
0.83892273
0.71647727
0.77406693
0.80288882
0.82313484
)
;
    }
    minZ
    {
        type            calculated;
        value           nonuniform List<scalar> 
120
(
1.0680755
1.1565104
1.1585731
1.158618
0.99611058
1.1525513
1.1584404
1.1586136
0.93886388
1.1471788
1.1581941
1.158603
0.89152997
1.1406653
1.1578105
1.1585822
0.85105028
1.133212
1.1572694
1.1585463
0.81563977
1.1249812
1.1565541
1.1584891
0.78432325
1.1161173
1.1556514
1.1584036
0.75676062
1.1058392
1.1545286
1.1582805
0.73288107
1.092022
1.1531009
1.1581069
0.71223546
1.0739832
1.1512708
1.1578629
0.69459048
1.0493762
1.1487454
1.1574998
0.67991601
1.0178513
1.1404126
1.1567009
0.66859355
0.98015778
1.1194726
1.1542008
0.66928752
0.94273756
1.0856132
1.1403169
0.67329024
0.90908593
1.0439065
1.1060298
0.68060787
0.88142461
1.0000894
1.0617591
0.6904107
0.86013236
0.95970375
1.0188421
0.70136051
0.84476966
0.92519714
0.98004854
0.71213345
0.83469404
0.89745007
0.94653641
0.72176276
0.82913109
0.87643342
0.91887107
0.72971819
0.82696053
0.86145552
0.89704971
0.73580525
0.8268303
0.85134306
0.88049998
0.74003654
0.82748973
0.84475194
0.86826366
0.74252596
0.82794688
0.84042153
0.85928105
0.74341333
0.82743717
0.83728437
0.85258171
0.74278879
0.82527674
0.83444286
0.84734633
0.74061393
0.82068518
0.83108271
0.84286175
0.73661323
0.81253258
0.82628524
0.83840532
0.7300556
0.79879941
0.81853114
0.83294883
0.71975386
0.77767846
0.80563682
0.82492344
)
;
    }
    maxZ
    {
        type            calculated;
        value           nonuniform List<scalar> 
120
(
1.0680573
1.15651
1.1585731
1.158618
0.99607805
1.1525499
1.1584403
1.1586136
0.93881877
1.1471759
1.158194
1.158603
0.89147284
1.1406601
1.1578102
1.1585822
0.85097821
1.1332032
1.1572686
1.1585462
0.81554439
1.1249668
1.1565523
1.1584888
0.78419159
1.1160961
1.1556479
1.1584029
0.7565868
1.1058475
1.1545245
1.1582791
0.73266089
1.0921339
1.1530988
1.1581041
0.71197262
1.0743149
1.1512752
1.1578575
0.69430005
1.0500142
1.1487744
1.1574899
0.67962827
1.0186092
1.1409624
1.1566914
0.66836525
0.98100555
1.1208433
1.1541776
0.6692134
0.94356553
1.0872806
1.1408434
0.67342052
0.90966225
1.0454396
1.1061619
0.68089938
0.88148803
1.0012318
1.0612811
0.69073893
0.85955115
0.96009525
1.0177185
0.70158934
0.84363267
0.92472652
0.97812675
0.71218048
0.83326182
0.89628581
0.94393116
0.72162277
0.82767815
0.87489391
0.91593832
0.72942914
0.82562206
0.85982627
0.89416387
0.73541015
0.82561752
0.84979546
0.87788889
0.7395428
0.82632077
0.84333975
0.86600391
0.74188336
0.82668794
0.83911134
0.85735403
0.7425243
0.82595463
0.83599783
0.85092325
0.74153929
0.82346921
0.83309255
0.84587862
0.73890669
0.81848057
0.82958705
0.84150526
0.7343901
0.80987319
0.82455382
0.8370742
0.72729012
0.79561488
0.81641042
0.83151104
0.71652365
0.7741412
0.80294379
0.823157
)
;
    }
    topAir_to_rightSolid
    {
        type            calculated;
        value           nonuniform List<scalar> 
130
(
0.46307094
0.45815216
0.45311802
0.44823207
0.44367909
0.43956794
0.43595293
0.43285843
0.43028948
0.42824031
0.42670077
0.42567614
0.42516671
0.46664818
0.46084327
0.45505687
0.44958732
0.44460507
0.44019028
0.43636649
0.43313046
0.43046623
0.42835454
0.42677254
0.42572526
0.42520493
0.47399627
0.46610026
0.45867296
0.45201756
0.44621585
0.44124237
0.4370497
0.43357001
0.43074515
0.42852678
0.42687779
0.42579189
0.42525539
0.48542934
0.47340507
0.46325306
0.4548811
0.44800919
0.44236759
0.43775492
0.43400717
0.43100516
0.42866977
0.4269573
0.42583418
0.42527702
0.49970168
0.48056024
0.46709236
0.45705309
0.44929069
0.44315095
0.43823986
0.43430352
0.43117647
0.42876738
0.4270122
0.42586387
0.42529471
0.49962959
0.48050919
0.46706137
0.45703852
0.44928903
0.44316383
0.43826693
0.43434429
0.43122501
0.42880315
0.42704084
0.42588831
0.42531694
0.48521952
0.47325531
0.46316408
0.45484383
0.44801779
0.44241889
0.43783484
0.43410572
0.43111023
0.42876035
0.42703683
0.42590417
0.42533967
0.4736802
0.46587022
0.45853376
0.45195696
0.44622433
0.44130784
0.43715313
0.43369719
0.43088121
0.42865328
0.42699154
0.42589631
0.42534955
0.46627228
0.46056691
0.45489881
0.44952626
0.4446185
0.44025739
0.4364726
0.43326168
0.4306079
0.42848658
0.42689226
0.42583658
0.42530914
0.46268969
0.4578749
0.45295722
0.44816882
0.4436887
0.43962889
0.43605252
0.43298393
0.43042456
0.42836468
0.42681477
0.42578598
0.42527199
)
;
    }
    topAir_to_heater
    {
        type            calculated;
        value           nonuniform List<scalar> 
40
(
0.47512287
0.47380008
0.4712247
0.46754732
0.48119016
0.47958671
0.47646935
0.47203225
0.49451069
0.49231775
0.48796616
0.48166704
0.5179301
0.51490802
0.50852621
0.49850605
0.55665353
0.55344932
0.54525528
0.52942743
0.55662355
0.55340439
0.54518958
0.52935127
0.51781516
0.51475026
0.50830553
0.49826612
0.49425793
0.49202909
0.48762336
0.48130031
0.48083879
0.47919892
0.47602926
0.47158999
0.47474219
0.47336578
0.47074072
0.46708991
)
;
    }
    topAir_to_leftSolid
    {
        type            calculated;
        value           nonuniform List<scalar> 
130
(
0.37555105
0.37556867
0.37560919
0.37567457
0.37576635
0.37588551
0.3760317
0.37619683
0.37635318
0.37650172
0.37663716
0.37674494
0.37680777
0.37553794
0.37555537
0.3755961
0.37566243
0.37575565
0.3758761
0.37601967
0.37617516
0.37633573
0.37648865
0.37662875
0.37673393
0.37679433
0.37552647
0.37554355
0.37558392
0.37565102
0.37574622
0.37587335
0.376012
0.37615529
0.37631089
0.37646303
0.37659284
0.37669366
0.37675108
0.37551808
0.37553482
0.37557422
0.37563943
0.37573347
0.37585753
0.37598422
0.37611561
0.37625617
0.37639316
0.37651762
0.37661631
0.37668486
0.37551302
0.37553
0.37556931
0.37563299
0.37572224
0.37582567
0.37593637
0.3760558
0.37618504
0.37631824
0.37645096
0.37656406
0.37663814
0.37551445
0.37553124
0.37556976
0.37562389
0.37569284
0.37577434
0.37586678
0.37597129
0.37609097
0.37622311
0.37636421
0.37648081
0.37655098
0.37552232
0.37553896
0.37557147
0.37561757
0.37567763
0.37574881
0.37582998
0.37592047
0.37602383
0.37613576
0.37625274
0.37635451
0.37641659
0.37552496
0.37554055
0.37557279
0.37561978
0.37568033
0.37575057
0.37583009
0.37591902
0.3760021
0.37609091
0.37618153
0.37626061
0.37631166
0.37550871
0.37552104
0.37555221
0.37560377
0.37567079
0.37574337
0.37582275
0.37590713
0.37598749
0.3760694
0.37615038
0.37621784
0.37625977
0.37549463
0.37550439
0.37553593
0.37559003
0.37565808
0.37573035
0.37581331
0.37589607
0.37597836
0.37606333
0.37615184
0.37622658
0.37626881
)
;
    }
}


// ************************************************************************* //
