/*--------------------------------*- C++ -*----------------------------------*\
| =========                 |                                                 |
| \\      /  F ield         | OpenFOAM: The Open Source CFD Toolbox           |
|  \\    /   O peration     | Version:  v2012                                 |
|   \\  /    A nd           | Website:  www.openfoam.com                      |
|    \\/     M anipulation  |                                                 |
\*---------------------------------------------------------------------------*/
FoamFile
{
    version     2.0;
    format      ascii;
    class       volScalarField;
    location    "690/topAir";
    object      T;
}
// * * * * * * * * * * * * * * * * * * * * * * * * * * * * * * * * * * * * * //

dimensions      [0 0 0 1 0 0 0];


internalField   nonuniform List<scalar> 
1200
(
325.43268
348.94384
370.22049
389.87655
408.42079
426.15212
443.16755
459.30852
474.27422
488.02202
500.41944
511.21987
519.87723
519.33816
516.25068
510.70014
503.44893
495.58896
488.09183
481.58001
476.32979
472.38927
469.6883
468.1136
467.55483
467.94795
469.3221
471.87109
476.1096
482.9241
300.54753
301.57995
302.99231
304.72249
306.72668
308.97081
311.42456
314.31908
318.2961
323.64225
331.23138
341.49027
354.62283
368.69892
382.34704
394.34604
404.10791
411.45688
416.42358
419.21752
420.31785
420.38405
420.04905
419.81711
420.07572
421.1754
423.53179
427.78132
435.13584
446.95369
300.01217
300.04655
300.11035
300.20978
300.35014
300.5359
300.77066
301.06317
301.43593
301.9151
302.57884
304.78973
310.49089
320.17483
332.96662
347.55497
362.18054
375.6886
387.30402
396.59147
403.4869
408.27962
411.46519
413.58533
415.13497
416.54862
418.23277
420.66105
424.64606
431.44257
300.00029
300.00143
300.00417
300.00954
300.01885
300.03366
300.05582
300.08768
300.13267
300.19594
300.29009
300.4975
301.14839
304.81503
314.26434
327.36781
341.15762
354.66178
367.21859
378.27481
387.47661
394.75957
400.32286
404.5077
407.6862
410.20512
412.38768
414.57967
417.29551
421.35522
325.42754
348.68651
369.46833
388.38708
405.91474
422.29081
437.56803
451.67218
464.3804
475.32762
484.00444
489.80691
491.93855
482.83812
470.98706
458.28505
446.96832
438.34423
432.54593
428.99345
426.95693
425.92662
425.62904
425.94638
426.83453
428.32475
430.55683
433.89897
439.31954
449.00051
300.54681
301.55997
302.91888
304.55015
306.39823
308.41598
310.55421
312.75682
314.9545
317.05429
318.93074
320.42287
321.33754
321.42169
320.96141
320.68777
321.34456
323.08861
325.59267
328.4471
331.44052
334.57528
337.92238
341.59317
345.71495
350.40938
355.74102
361.68445
368.35828
376.61009
300.01213
300.04559
300.10608
300.19789
300.32395
300.48599
300.68427
300.91717
301.18074
301.467
301.76192
302.06813
302.37621
302.74757
303.82952
306.50643
311.60496
318.63567
326.36112
333.56483
339.88932
346.1714
352.48313
358.78869
364.84522
371.0161
377.65259
384.70619
392.20285
400.38533
300.00029
300.00139
300.00394
300.0088
300.01691
300.02936
300.04731
300.07194
300.10448
300.14621
300.19911
300.27309
300.4345
301.235
304.56065
311.89859
322.0714
334.93223
348.41966
361.0836
371.89832
380.21837
386.90199
392.46594
397.28856
401.2341
404.46669
407.28664
410.06029
414.12572
325.42531
348.7271
369.57004
388.56608
406.19444
422.70828
438.21769
452.74396
466.20279
478.38597
488.90532
497.10301
501.76973
493.80326
482.67239
470.60529
459.203
448.96422
439.9895
432.28944
425.82697
420.61653
416.75929
414.36739
413.48267
414.0359
415.91942
419.1364
424.45422
433.73223
300.54685
301.56338
302.92852
304.56809
306.4272
308.46146
310.62899
312.88429
315.16879
317.40105
319.45164
321.11353
322.08615
322.08041
321.6959
321.76896
322.45338
323.59802
325.19117
327.24911
329.81384
333.01953
337.04498
342.01439
347.97128
354.94878
362.9765
371.89174
381.44832
392.58261
300.01213
300.04574
300.10657
300.19885
300.32543
300.48803
300.68708
300.92137
301.18727
301.47655
301.77261
302.04432
302.26629
302.78484
305.02001
309.27639
313.76946
317.59274
321.44637
325.66774
330.51558
336.46526
343.78372
352.35386
361.83392
371.67416
381.30878
390.29573
400.01177
411.71433
300.00029
300.00139
300.00397
300.00884
300.01697
300.0294
300.04725
300.07166
300.10373
300.14447
300.19512
300.26414
300.48402
302.4183
310.85738
324.66311
333.45522
335.0561
342.28892
352.77969
363.11973
371.84634
379.09963
385.23957
390.61403
395.3048
399.36831
403.1478
411.2941
427.30918
325.4259
348.74378
369.62633
388.69293
406.44276
423.16525
439.02146
454.10038
468.42988
481.94534
494.40343
505.19267
513.02328
508.6059
504.43137
502.48144
502.48713
503.16462
503.32221
502.18768
499.45176
495.2967
490.17206
484.50759
478.78177
473.86902
471.25839
472.96838
480.7752
491.74443
300.54691
301.56477
302.93424
304.58273
306.45804
308.52066
310.73677
313.07242
315.48512
317.90654
320.20505
322.12697
323.30978
323.83726
324.80379
326.32672
328.10522
329.93063
331.77982
333.75686
336.11177
339.15589
343.09191
347.92129
353.61081
360.29651
367.93902
376.68525
389.19738
416.8912
300.01213
300.04581
300.10689
300.19979
300.32765
300.49262
300.69589
300.93729
301.21445
301.52003
301.83502
302.11914
302.40796
304.07936
308.76762
313.03704
315.98783
318.21803
320.8559
324.65227
330.11506
337.59197
346.82264
357.13328
368.14496
379.58168
389.9611
399.30288
409.58223
424.00997
300.00029
300.00139
300.00398
300.0089
300.01713
300.02977
300.04802
300.07318
300.10659
300.14971
300.20521
300.30165
300.92084
307.97744
329.29242
348.44346
350.34733
349.8655
349.17867
354.8355
362.43424
370.1328
377.17057
383.25507
389.66785
396.8228
403.93432
412.51811
423.97294
438.61252
325.42549
348.74786
369.64045
388.72212
406.49324
423.24652
439.14535
454.27403
468.64395
482.14221
494.39515
504.53551
511.21805
505.6109
502.53957
502.71431
504.92454
508.19955
512.03033
516.00787
519.74532
522.8789
525.10648
526.24481
526.30129
525.59527
524.8809
525.37218
528.62682
536.29754
300.54691
301.5653
302.93647
304.58828
306.46896
308.53963
310.76693
313.11665
315.54264
317.96222
320.20405
321.94021
322.85999
323.93154
325.61915
327.64424
330.40834
334.60388
339.76885
345.50617
352.08391
360.52124
371.57614
384.79817
399.60369
415.22125
431.1535
447.49832
465.20436
486.68652
300.01213
300.04584
300.10704
300.20024
300.32869
300.49469
300.69957
300.94333
301.22337
301.53062
301.83985
302.10407
302.5812
306.91525
311.41419
314.37072
315.97753
317.52228
319.52663
323.05113
328.9568
337.67263
348.10779
359.09229
369.60565
380.9129
394.28492
410.18266
429.54527
454.08711
300.00029
300.0014
300.00399
300.00893
300.01722
300.02997
300.04846
300.07404
300.10823
300.1528
300.2128
300.36097
301.93027
324.0157
352.65323
358.25897
360.81597
362.94211
365.42602
367.68796
371.46583
376.14066
380.93587
385.29351
389.09018
391.77433
397.11114
408.05807
424.44319
445.55297
325.42532
348.74748
369.63985
388.72215
406.49569
423.25264
439.15307
454.27859
468.62815
482.05625
494.11284
503.82168
510.05133
505.24162
503.54116
504.91279
506.93764
510.07554
513.81119
517.72483
521.41136
524.49228
526.67025
527.78073
527.84294
527.16567
526.48202
526.97564
530.10831
537.52531
300.5469
301.56528
302.93645
304.58826
306.469
308.5397
310.76662
313.11445
315.53359
317.93194
320.1157
321.72679
322.55683
323.97483
325.88127
328.05661
332.13911
337.886
344.94842
353.14056
362.42158
372.98777
385.04278
398.40762
412.51
426.71505
440.76502
454.99157
470.51393
489.93156
300.01213
300.04584
300.10704
300.20024
300.3287
300.49473
300.69966
300.94341
301.22302
301.52819
301.83016
302.08468
302.79353
307.98888
311.6655
313.85509
315.41918
317.40179
320.04622
323.76517
329.81525
339.19378
351.23412
363.81451
375.78641
388.43109
401.91957
416.99352
434.77856
457.20428
300.00029
300.0014
300.00399
300.00893
300.01722
300.02999
300.04849
300.07414
300.10847
300.15343
300.2163
300.41784
303.03536
339.0514
355.28011
358.87068
360.86011
363.32434
366.49875
370.3136
374.48375
379.09962
383.66826
387.74335
391.19482
394.11354
400.34102
411.3655
426.38291
445.36383
325.42536
348.74241
369.62426
388.69117
406.44328
423.17102
439.03366
454.11393
468.42968
481.88845
494.18332
504.58787
511.77851
507.27937
503.99319
503.23537
504.16768
505.41856
505.9654
505.01688
502.23778
497.91784
492.68634
487.09425
481.58156
476.91054
474.57837
476.56765
483.61772
494.18956
300.54689
301.56472
302.93415
304.58262
306.45795
308.52058
310.73627
313.0699
315.47601
317.87788
320.1251
321.93262
322.95475
323.64538
324.94753
326.67124
328.57357
330.52061
332.50783
334.666
337.2753
340.66257
344.99188
350.20901
356.2278
363.16034
370.97121
379.77154
393.80505
422.18909
300.01213
300.0458
300.10689
300.1998
300.32769
300.49273
300.69608
300.93754
301.21442
301.51835
301.82734
302.09767
302.44635
305.13234
310.02116
313.58224
315.96996
318.12692
320.98226
325.22936
331.38574
339.85471
350.35265
361.87701
373.51703
384.92423
394.70288
403.51106
413.09727
426.66771
300.00029
300.00139
300.00398
300.0089
300.01714
300.02979
300.04809
300.07333
300.10693
300.15041
300.20731
300.3235
301.31795
313.3425
339.45761
349.81649
350.55953
350.34429
352.05482
358.29782
365.49223
372.39222
378.9457
384.77153
390.4342
397.42942
404.84255
413.71091
424.0262
437.41955
325.42535
348.72686
369.56972
388.56691
406.19896
422.72115
438.24186
452.77975
466.24394
478.40479
488.82589
496.76185
500.90417
492.36349
481.22133
469.72791
459.09582
449.51151
440.94763
433.40887
426.93823
421.71016
417.99007
415.96296
415.61413
416.74231
419.11208
422.66848
428.30312
438.03595
300.54685
301.56336
302.9285
304.56811
306.42739
308.46197
310.62978
312.88449
315.16507
317.38308
319.3966
320.9761
321.80652
321.72962
321.56819
321.94899
322.85952
324.15934
325.87376
328.0465
330.78323
334.28933
338.75607
344.22936
350.60574
357.80216
365.83675
374.54455
383.84522
394.80029
300.01213
300.04574
300.10657
300.19887
300.3255
300.48822
300.68745
300.92196
301.18787
301.47631
301.76854
302.02995
302.25255
303.08134
306.14158
310.69118
314.94299
318.57784
322.40991
326.69197
331.87436
338.53582
346.81249
356.25226
366.05867
375.49334
384.26455
392.30253
401.20936
412.24237
300.00029
300.00139
300.00397
300.00885
300.01698
300.02944
300.04735
300.07187
300.10415
300.14529
300.19676
300.27203
300.59978
303.9429
315.8272
329.14725
336.34316
337.0761
345.61963
356.37722
366.13926
374.22834
380.99862
386.8025
391.86503
396.21517
399.96815
403.57729
411.1078
425.89423
325.4303
348.69185
369.47627
388.39795
405.92941
422.31193
437.60136
451.72219
464.44713
475.40357
484.05557
489.74682
491.60606
482.05518
469.82918
457.0838
446.06894
437.91065
432.53224
429.22087
427.26548
426.22164
425.91638
426.32655
427.45579
429.33126
432.05127
435.93701
441.96962
451.96586
300.54686
301.56013
302.91919
304.55073
306.39926
308.4177
310.55695
312.76038
314.95638
317.04992
318.90861
320.36025
321.19742
321.18595
320.72064
320.60264
321.51369
323.49904
326.16873
329.12112
332.22493
335.50777
339.06025
342.98262
347.35929
352.2557
357.69276
363.61603
370.15019
378.87319
300.01213
300.0456
300.1061
300.19794
300.32409
300.48633
300.68495
300.91839
301.18261
301.46925
301.76351
302.06396
302.36291
302.77225
304.10231
307.22655
312.76248
320.05987
327.79238
334.66614
340.99453
347.23811
353.49595
359.76532
365.8943
372.23818
378.99274
386.0348
393.41672
401.39914
300.00029
300.00139
300.00395
300.0088
300.01693
300.02942
300.04745
300.07224
300.10508
300.14733
300.20104
300.27666
300.45345
301.44486
305.56097
313.42819
323.82153
337.01391
350.85763
363.56071
373.85801
381.86646
388.37133
393.84663
398.51713
402.2106
405.25241
407.93534
410.61096
414.36767
325.43821
348.95523
370.23827
389.90154
408.45538
426.20196
443.24195
459.41405
474.41674
488.20219
500.62877
511.4363
520.05481
519.39568
516.15081
510.4815
503.2097
495.42731
488.0596
481.67343
476.51855
472.64307
470.00188
468.51907
468.11465
468.73645
470.40647
473.29952
477.91998
485.10121
300.54764
301.5803
302.99306
304.72387
306.72906
308.97476
311.43049
314.31672
318.26349
323.54232
331.03014
341.2362
354.31637
368.37539
382.1048
394.31767
404.38116
412.01141
417.13933
419.95343
420.99926
421.00157
420.64327
420.45644
420.82973
422.09989
424.67258
429.18603
436.87752
448.99594
300.01217
300.04656
300.11038
300.20987
300.35036
300.53638
300.77156
301.06423
301.43647
301.91396
302.5712
304.64284
310.11117
319.68382
332.47834
347.15839
362.03285
375.8798
387.80712
397.28933
404.25146
409.02316
412.1542
414.23111
415.77383
417.22378
418.9868
421.54437
425.74913
432.88961
300.00029
300.00143
300.00417
300.00955
300.01887
300.03373
300.05599
300.08805
300.13339
300.19733
300.29266
300.49995
301.15444
304.67435
314.22682
327.51525
341.53428
355.3586
368.23211
379.48601
388.72717
395.9337
401.36747
405.41688
408.48079
410.91688
413.05244
415.23894
418.01707
422.25942
)
;

boundaryField
{
    maxY
    {
        type            zeroGradient;
    }
    minX
    {
        type            fixedValue;
        value           uniform 300;
    }
    maxX
    {
        type            inletOutlet;
        inletValue      uniform 300;
        value           nonuniform List<scalar> 
40
(
482.99551
447.05006
431.52226
421.41143
449.0706
376.64538
400.40553
414.09627
433.83569
392.57229
411.63971
427.04091
491.98514
417.11848
424.14221
438.52173
536.53302
487.20615
454.59747
445.88324
537.43924
489.62955
456.89345
445.13745
494.12306
422.15729
426.51248
437.22768
438.08822
394.72948
412.09238
425.68366
452.02089
378.86895
401.37345
414.32393
485.13263
449.03904
432.91925
422.27077
)
;
    }
    minZ
    {
        type            zeroGradient;
    }
    maxZ
    {
        type            zeroGradient;
    }
    topAir_to_rightSolid
    {
        type            compressible::turbulentTemperatureCoupledBaffleMixed;
        refValue        nonuniform List<scalar> 
130
(
750.694
758.75766
767.19129
775.55743
783.51892
790.84923
797.40886
803.11077
807.90634
811.77251
814.7011
816.66112
817.63763
744.95657
754.34388
763.93886
773.23503
781.90178
789.74515
796.6666
802.61943
807.58734
811.56849
814.57631
816.57872
817.57502
733.40235
745.83194
757.91397
769.07743
779.08044
787.86464
795.42476
801.80992
807.06893
811.24697
814.3802
816.45572
817.4829
716.10802
734.30088
750.3967
764.21138
775.93721
785.83656
794.12047
800.98105
806.56262
810.95842
814.21109
816.35642
817.4226
695.64851
723.3625
744.22298
760.57243
773.71471
784.43591
793.22811
800.41908
806.22543
810.75649
814.08953
816.28411
817.3743
695.74832
723.4388
744.27183
760.59616
773.71707
784.41263
793.17865
800.34348
806.13423
810.68841
814.0345
816.23689
817.33128
716.41707
734.5325
750.54004
764.27319
775.92157
785.7447
793.97474
800.79837
806.36513
810.7861
814.05837
816.22142
817.30149
733.89165
746.2
758.14375
769.18024
779.06529
787.74734
795.23602
801.57406
806.81315
811.0065
814.16208
816.25427
817.30052
745.5574
754.79661
764.20426
773.33998
781.87807
789.62466
796.47278
802.3761
807.32126
811.31787
814.34715
816.36437
817.37371
751.31275
759.21723
767.46366
775.66684
783.50188
790.73947
797.22658
802.87777
807.65248
811.53644
814.48301
816.44983
817.43449
)
;
        refGradient     uniform 0;
        valueFraction   uniform 0.99967867;
        value           nonuniform List<scalar> 
130
(
750.61203
758.6707
767.09952
775.46128
783.41895
790.74604
797.30306
803.00295
807.79711
811.66248
814.59095
816.55171
817.5301
744.85805
754.24048
763.83123
773.12377
781.7874
789.62815
796.54748
802.49868
807.46547
811.44607
814.454
816.45752
817.45661
733.31096
745.73367
757.80935
768.96715
778.96526
787.7454
795.30232
801.68514
806.94264
811.11995
814.25321
816.32977
817.35962
716.03961
734.22668
750.31696
764.12633
775.84707
785.74159
794.02103
800.87757
806.45577
810.84933
814.10151
816.24866
817.31803
695.58828
723.2946
744.14966
760.49506
773.63412
784.3526
793.14235
800.33102
806.1353
810.66467
813.99681
816.19174
817.28406
695.68866
723.37144
744.19903
760.51929
773.63697
784.32979
793.09334
800.25589
806.04456
810.59705
813.94222
816.14491
817.24135
716.34925
734.45903
750.46111
764.18894
775.83218
785.65047
793.87607
800.69574
806.25921
810.67802
813.94988
816.11451
817.19764
733.80026
746.1019
758.03939
769.07025
778.95045
787.62852
795.11414
801.45004
806.68781
810.88058
814.03629
816.12962
817.17866
745.45854
754.69306
764.09662
773.22878
781.76379
789.50778
796.35384
802.25563
807.19981
811.19601
814.22557
816.24409
817.25631
751.23053
759.1301
767.37183
775.57071
783.40199
790.63641
797.12095
802.7702
807.54358
811.42682
814.37338
816.34106
817.32772
)
;
        Tnbr            T;
        thicknessLayers List<scalar> 0();
        kappaLayers     List<scalar> 0();
        kappaMethod     fluidThermo;
        kappa           none;
        alphaAni        none;
        alpha           none;
        field           T;
    }
    topAir_to_heater
    {
        type            compressible::turbulentTemperatureCoupledBaffleMixed;
        refValue        nonuniform List<scalar> 
40
(
731.64033
733.68442
737.6969
743.50269
722.42482
724.84449
729.59195
736.45511
702.9573
706.09278
712.39483
721.71698
671.15951
675.10095
683.57586
697.31922
624.46011
628.07735
637.51839
656.58185
624.49387
628.12803
637.59453
656.67569
671.30896
675.30806
683.87247
697.65456
703.31734
706.50759
712.89605
722.26707
722.95309
725.43157
730.26699
737.1462
732.22712
734.35774
738.45558
744.23102
)
;
        refGradient     uniform 0;
        valueFraction   uniform 0.99967867;
        value           nonuniform List<scalar> 
40
(
731.57211
733.61456
737.62396
743.42555
722.34783
724.76292
729.50477
736.3621
702.89009
706.02099
712.31715
721.63264
671.10728
675.04611
683.51768
697.25662
624.42192
628.03701
637.47507
656.53312
624.45555
628.08799
637.55189
656.62757
671.25625
675.253
683.81442
697.59237
703.24955
706.4352
712.81791
722.18249
722.87568
725.34943
730.1792
737.05267
732.15873
734.28763
738.38232
744.15357
)
;
        Tnbr            T;
        thicknessLayers List<scalar> 0();
        kappaLayers     List<scalar> 0();
        kappaMethod     fluidThermo;
        kappa           none;
        alphaAni        none;
        alpha           none;
        field           T;
    }
    topAir_to_leftSolid
    {
        type            compressible::turbulentTemperatureCoupledBaffleMixed;
        refValue        nonuniform List<scalar> 
130
(
925.73099
925.67995
925.57318
925.40573
925.17369
924.87461
924.5095
924.09842
923.70961
923.34066
923.00457
922.73695
922.58027
925.7633
925.71282
925.6057
925.43612
925.20083
924.89902
924.54089
924.15411
923.75563
923.37682
923.03049
922.77085
922.62221
925.79158
925.74195
925.63567
925.46417
925.22397
924.90565
924.55954
924.2026
923.81603
923.4387
923.11693
922.86717
922.72498
925.81228
925.76346
925.65958
925.4927
925.25529
924.94443
924.6276
924.29967
923.94969
923.609
923.29963
923.05415
922.88359
925.82475
925.77533
925.67167
925.50856
925.28294
925.02284
924.74526
924.44664
924.12437
923.79284
923.46315
923.18244
922.99866
925.82123
925.77227
925.67055
925.53098
925.35535
925.14921
924.9165
924.65446
924.35554
924.02651
923.67611
923.38685
923.21272
925.80181
925.75325
925.66635
925.54657
925.39282
925.21209
925.00713
924.77955
924.52068
924.24116
923.9498
923.69654
923.54184
925.7953
925.74934
925.66311
925.54115
925.38627
925.2079
925.00709
924.78356
924.57484
924.35253
924.12646
923.92963
923.80292
925.83536
925.79744
925.71389
925.58066
925.40986
925.22576
925.02537
924.81315
924.61133
924.40637
924.20454
924.03694
923.93333
925.87009
925.83842
925.75377
925.61404
925.44036
925.25659
925.0468
924.83786
924.63058
924.41717
924.19557
924.00845
923.90193
)
;
        refGradient     uniform 0;
        valueFraction   uniform 0.99967867;
        value           nonuniform List<scalar> 
130
(
925.5381
925.49463
925.39473
925.23365
925.00764
924.71436
924.35483
923.94907
923.56519
923.20078
922.86879
922.60472
922.45087
925.5704
925.52741
925.427
925.26355
925.03397
924.73752
924.38442
924.00229
923.60803
923.23285
922.88942
922.63173
922.48382
925.59866
925.55654
925.457
925.29165
925.0572
924.74429
924.40327
924.05111
923.66899
923.2957
922.9774
922.73036
922.58972
925.61936
925.57805
925.48091
925.32021
925.08858
924.7832
924.47156
924.14858
923.80332
923.46708
923.16181
922.91988
922.75189
925.63182
925.58992
925.493
925.33608
925.11624
924.86161
924.58922
924.29556
923.97801
923.65092
923.32528
923.04792
922.86635
925.62831
925.58686
925.49188
925.35849
925.18863
924.98793
924.76041
924.50332
924.2091
923.88449
923.53808
923.25203
923.07996
925.6089
925.56784
925.48768
925.37406
925.22607
925.05077
924.85097
924.62832
924.37413
924.09902
923.8117
923.56187
923.40953
925.60239
925.56393
925.48443
925.36861
925.21944
925.04644
924.85068
924.63189
924.42756
924.20924
923.98658
923.79237
923.66703
925.64244
925.612
925.53515
925.40805
925.24293
925.06417
924.86875
924.66114
924.46347
924.2621
924.06311
923.89739
923.79441
925.67716
925.65306
925.57527
925.4419
925.27424
925.09623
924.89199
924.68831
924.48591
924.277
924.05947
923.87588
923.77217
)
;
        Tnbr            T;
        thicknessLayers List<scalar> 0();
        kappaLayers     List<scalar> 0();
        kappaMethod     fluidThermo;
        kappa           none;
        alphaAni        none;
        alpha           none;
        field           T;
    }
}


// ************************************************************************* //
