/*--------------------------------*- C++ -*----------------------------------*\
| =========                 |                                                 |
| \\      /  F ield         | OpenFOAM: The Open Source CFD Toolbox           |
|  \\    /   O peration     | Version:  v2012                                 |
|   \\  /    A nd           | Website:  www.openfoam.com                      |
|    \\/     M anipulation  |                                                 |
\*---------------------------------------------------------------------------*/
FoamFile
{
    version     2.0;
    format      ascii;
    class       volScalarField;
    location    "270/topAir";
    object      rho;
}
// * * * * * * * * * * * * * * * * * * * * * * * * * * * * * * * * * * * * * //

dimensions      [1 -3 0 0 0 0 0];


internalField   nonuniform List<scalar> 
1200
(
1.0823519
1.020085
0.96959442
0.92726685
0.89069253
0.85840319
0.82952916
0.80367363
0.78107418
0.76135221
0.74429377
0.729842
0.71822867
0.71533149
0.71519629
0.71799912
0.72338244
0.73042403
0.73800984
0.74523052
0.75153527
0.75666231
0.76051222
0.76303918
0.76419771
0.76391486
0.76202716
0.75813685
0.75137522
0.7407464
1.1568625
1.1535533
1.1490458
1.1435606
1.1372626
1.1302797
1.1227308
1.1145797
1.1035548
1.0890834
1.0694367
1.0433087
1.010796
0.97623853
0.94340485
0.9155431
0.89382168
0.87781469
0.86663945
0.85950667
0.85558133
0.85385039
0.85326769
0.85287241
0.85182429
0.84933549
0.84447466
0.83581099
0.8208841
0.79804579
1.1585809
1.1584701
1.1582644
1.1579437
1.1574909
1.1568911
1.1561327
1.1552025
1.1540304
1.152533
1.1505051
1.1450452
1.1300103
1.1023295
1.0652625
1.0249116
0.98619278
0.95295898
0.92602714
0.90521875
0.88990224
0.87912851
0.87178568
0.86676146
0.8630454
0.85974223
0.85597684
0.8506484
0.84184938
0.82696569
1.158618
1.1586144
1.1586056
1.1585883
1.1585584
1.1585108
1.1584395
1.1583373
1.1581938
1.157993
1.1577
1.1571169
1.1553348
1.1455451
1.1172311
1.0769464
1.0363841
1.0002999
0.96944132
0.94377273
0.92310302
0.90701354
0.89481382
0.88566316
0.87871861
0.87320965
0.86842428
0.86356189
0.85734541
0.84772479
1.0823633
1.0207294
0.97129424
0.93034078
0.89546058
0.86523524
0.83883849
0.81582289
0.79600626
0.7794404
0.76631757
0.75695048
0.75178864
0.75817197
0.76828575
0.78108739
0.79468141
0.80681675
0.81621978
0.82286888
0.8274282
0.83052457
0.83247399
0.83327312
0.83276195
0.83074072
0.82686797
0.82028751
0.80908864
0.79279863
1.1568647
1.1536175
1.1492803
1.144106
1.1382908
1.1319973
1.1253813
1.1186146
1.1118797
1.1054142
1.0994851
1.0944283
1.0905989
1.0885831
1.0882322
1.0885212
1.0878113
1.0847225
1.0793327
1.0725044
1.0649423
1.056801
1.0480093
1.038396
1.0278074
1.016178
1.0035405
0.99008762
0.97564108
0.94974061
1.158581
1.1584732
1.1582782
1.1579821
1.1575753
1.1570517
1.1564095
1.1556522
1.1547884
1.1538361
1.1528235
1.1517283
1.1504796
1.1491486
1.1468186
1.1411267
1.1297483
1.1115239
1.0898532
1.0685767
1.0498697
1.0322248
1.0153515
0.99907624
0.98337943
0.96813311
0.95232338
0.93561562
0.91793232
0.89864322
1.158618
1.1586145
1.1586063
1.1585907
1.1585646
1.1585245
1.1584667
1.158387
1.1582812
1.1581446
1.1579697
1.1577289
1.1572625
1.1553965
1.1477788
1.1277804
1.09483
1.0565677
1.0198811
0.98755042
0.96082536
0.94068394
0.92525288
0.91277923
0.90228021
0.89332033
0.88600614
0.87958558
0.87319926
0.86609847
1.082364
1.020614
0.97104584
0.92994826
0.89489784
0.86445997
0.83776064
0.81421379
0.79347099
0.77537815
0.75995687
0.74738876
0.73823908
0.7415138
0.74968126
0.76318223
0.78056238
0.79890296
0.8160926
0.83098919
0.84321291
0.85274444
0.85954594
0.86347369
0.86445621
0.86265962
0.85832809
0.85130576
0.83954082
0.81555319
1.1568644
1.153606
1.1492488
1.1440493
1.1382028
1.1318656
1.1251766
1.1182707
1.111294
1.1044303
1.0979173
1.092076
1.0873862
1.0848464
1.0850997
1.0874339
1.0892326
1.0887709
1.0856404
1.0800716
1.0725325
1.0632158
1.0519386
1.0385126
1.0230993
1.0061508
0.9879216
0.96884546
0.94792672
0.92147889
1.158581
1.1584727
1.1582766
1.1579791
1.157571
1.1570465
1.1564038
1.1556448
1.1547771
1.1538157
1.1527897
1.1517508
1.1507841
1.150028
1.1493803
1.1458541
1.1356932
1.1217784
1.1062822
1.0900176
1.0736187
1.0562525
1.0365263
1.0143137
0.99099519
0.96855559
0.94775039
0.92900114
0.91202006
0.89246662
1.158618
1.1586145
1.1586062
1.1585906
1.1585645
1.1585246
1.1584673
1.158389
1.1582859
1.1581545
1.1579915
1.1577938
1.1575519
1.1571711
1.1555041
1.1419382
1.1111862
1.0829904
1.0549831
1.0213726
0.99039958
0.96582977
0.94696074
0.93203378
0.91969962
0.90919106
0.90014417
0.89228018
0.88338722
0.87030285
1.0823605
1.0205703
0.97091943
0.9296953
0.89445051
0.86370541
0.83651773
0.81223588
0.79039387
0.77064347
0.75276129
0.73666692
0.72275924
0.72104576
0.72257897
0.7258221
0.72775158
0.72763749
0.72675083
0.72643362
0.72742146
0.72993378
0.73371086
0.73816662
0.74275077
0.74679348
0.748163
0.74267587
0.73069063
0.71648405
1.1568642
1.1536015
1.149231
1.1440049
1.1381118
1.1316949
1.1248711
1.1177413
1.1104011
1.1029565
1.0955531
1.0884391
1.0821122
1.0778609
1.0764856
1.0755154
1.0727227
1.0686549
1.0639573
1.0586742
1.0524261
1.044613
1.0345361
1.0217821
1.0064665
0.98875728
0.9687275
0.94811708
0.91033413
0.84290714
1.158581
1.1584725
1.1582756
1.1579763
1.1575644
1.1570332
1.1563784
1.1555988
1.154696
1.1536768
1.1525586
1.1513828
1.1502479
1.1493389
1.1480551
1.1379696
1.1223255
1.110144
1.0996155
1.0880763
1.0732703
1.0536585
1.028644
1.0003048
0.97215185
0.94579781
0.92015621
0.90260283
0.8868945
0.85104615
1.158618
1.1586145
1.1586062
1.1585904
1.158564
1.1585236
1.1584653
1.1583851
1.1582787
1.1581416
1.157969
1.1577557
1.1574851
1.1569245
1.1522973
1.1053875
1.0452489
1.019987
1.0230685
1.015117
0.99366901
0.97094448
0.95411956
0.93996886
0.9272012
0.91446319
0.89617177
0.87890535
0.8600913
0.83907016
1.0823676
1.0205697
0.97090024
0.92965038
0.89437218
0.86358248
0.83633523
0.81197382
0.79001994
0.77013117
0.75209894
0.73588527
0.72207882
0.72337401
0.72784518
0.7308931
0.72943126
0.72341657
0.71677362
0.70996587
0.70337794
0.69735294
0.69218294
0.68807464
0.68509964
0.68308545
0.68138212
0.67867987
0.67326924
0.66303501
1.1568643
1.1536002
1.1492247
1.143989
1.1380799
1.1316388
1.1247791
1.1175972
1.1101819
1.1026337
1.0951047
1.0878858
1.0816123
1.0778927
1.0769868
1.0736919
1.068669
1.0627387
1.0524514
1.0403038
1.0281983
1.0162219
1.002276
0.98354585
0.95879351
0.92863668
0.89373207
0.85412095
0.80859628
0.7545938
1.158581
1.1584724
1.1582752
1.157975
1.1575614
1.1570273
1.1563677
1.1555803
1.1546657
1.153629
1.1524871
1.1512881
1.1501579
1.1492823
1.1464863
1.1280968
1.1158931
1.1087755
1.103038
1.0948851
1.0810361
1.0587019
1.0278425
0.99293443
0.96149083
0.94023158
0.92488142
0.89926007
0.85933896
0.80269294
1.158618
1.1586145
1.1586061
1.1585903
1.1585638
1.158523
1.1584642
1.1583829
1.1582748
1.1581346
1.1579567
1.1577334
1.1574285
1.1564615
1.145133
1.0223488
0.99226918
0.98324853
0.97742705
0.97194159
0.96254457
0.95001301
0.93702093
0.92408883
0.91153147
0.899681
0.88921229
0.88267033
0.85435693
0.81282667
1.0823849
1.0205997
0.97094079
0.92970166
0.89443596
0.86366262
0.8364377
0.81210083
0.79017246
0.77031527
0.75233559
0.73623001
0.72265921
0.7243742
0.72874891
0.7311454
0.72899271
0.72296481
0.71627543
0.70938307
0.70266717
0.69647949
0.69114378
0.68689103
0.68380066
0.68167575
0.67981424
0.67689847
0.67124015
0.66055454
1.1568647
1.1536015
1.1492271
1.1439929
1.1380859
1.1316475
1.1247919
1.1176161
1.1102107
1.10268
1.0951865
1.0880475
1.0819491
1.0784687
1.0770888
1.073403
1.0681512
1.0606783
1.0486887
1.0339931
1.0179717
1.0004325
0.9794866
0.95307169
0.92241206
0.88904378
0.85408249
0.81784856
0.77919804
0.73455466
1.158581
1.1584724
1.1582753
1.1579751
1.1575617
1.1570277
1.1563684
1.1555815
1.1546677
1.1536328
1.1524954
1.1513091
1.1502081
1.1492493
1.1444271
1.1279161
1.1168696
1.1104432
1.1051401
1.0975471
1.0848821
1.0646571
1.0365655
1.0048173
0.97384847
0.94721331
0.91845579
0.88287597
0.83794422
0.78147278
1.158618
1.1586145
1.1586062
1.1585903
1.1585638
1.1585231
1.1584642
1.158383
1.1582748
1.1581346
1.1579565
1.157731
1.1573893
1.1557853
1.13599
1.0160947
0.99434077
0.98681939
0.98166433
0.97677528
0.96804747
0.9558115
0.94291715
0.92961859
0.91624305
0.90293658
0.89345206
0.87662395
0.83890771
0.79201029
1.0824057
1.0206489
0.97102653
0.92983092
0.89461836
0.86390859
0.83675635
0.81250745
0.79069672
0.77099218
0.7531746
0.73718366
0.7234707
0.72213763
0.72399641
0.72698202
0.72821113
0.72728899
0.7256305
0.72450761
0.72468695
0.726488
0.72981554
0.73425065
0.7392392
0.74362604
0.74476588
0.73911796
0.72861337
0.71421322
1.1568653
1.1536047
1.1492371
1.144015
1.138127
1.1317167
1.1249013
1.1177822
1.1104558
1.103032
1.0956645
1.0886197
1.0824335
1.0784182
1.0770989
1.0756449
1.0724
1.0680387
1.06312
1.057625
1.0511471
1.0430905
1.0328185
1.0199633
1.0046252
0.98678329
0.96693082
0.94604881
0.9042242
0.83610686
1.158581
1.1584726
1.1582758
1.1579767
1.1575652
1.1570344
1.1563804
1.1556018
1.1547003
1.1536836
1.15257
1.151405
1.1502948
1.1493932
1.1474974
1.1362064
1.1214779
1.1104068
1.1007842
1.0902183
1.076663
1.058745
1.0357097
1.0088119
0.97970989
0.94809271
0.91914395
0.89884114
0.87931404
0.83939607
1.158618
1.1586145
1.1586062
1.1585904
1.1585641
1.1585237
1.1584654
1.1583853
1.158279
1.158142
1.1579697
1.1577559
1.1574721
1.1566897
1.1494362
1.0967846
1.0391922
1.0206121
1.0238262
1.0162459
0.99509693
0.97183597
0.95498186
0.94015015
0.92593717
0.90663099
0.88496875
0.86749623
0.84927044
0.82378727
1.0824294
1.0207287
0.97120302
0.9301483
0.89514023
0.86474161
0.83807553
0.81456054
0.79384343
0.77576692
0.76036522
0.74783279
0.73876627
0.74224482
0.75072271
0.76438766
0.78147145
0.79924725
0.81586897
0.83033506
0.84234625
0.85193795
0.85909116
0.86362521
0.86537012
0.86434046
0.86068973
0.85426249
0.84305263
0.82042203
1.156866
1.1536107
1.1492577
1.1440639
1.1382246
1.1318959
1.1252167
1.118322
1.1113583
1.1045097
1.0980163
1.0922083
1.0875856
1.0851741
1.0855615
1.0877347
1.0890806
1.0882279
1.0849328
1.079414
1.072083
1.0630933
1.0522157
1.0391428
1.0238102
1.0064121
0.98724722
0.96677018
0.94368865
0.91464718
1.158581
1.1584728
1.1582769
1.1579798
1.1575721
1.1570483
1.1564064
1.1556487
1.1547824
1.153823
1.1528002
1.1517666
1.1508115
1.15007
1.1492769
1.1448933
1.1339135
1.1200966
1.1053082
1.0899498
1.0745365
1.058269
1.039649
1.018116
0.99435409
0.96995863
0.9468868
0.92623935
0.90647719
0.88107546
1.158618
1.1586145
1.1586062
1.1585906
1.1585645
1.1585247
1.1584675
1.1583893
1.1582863
1.1581551
1.1579924
1.1577949
1.1575502
1.1571144
1.1547652
1.1381005
1.1055634
1.0796549
1.0542308
1.0219527
0.99136066
0.9666952
0.94757107
0.9323371
0.91962805
0.90865613
0.89927741
0.89117689
0.88041882
0.85861773
1.0824473
1.0208762
0.97149401
0.93059076
0.89575798
0.86557705
0.83921859
0.81622451
0.79641377
0.7798389
0.76669544
0.75730161
0.75212714
0.75858557
0.76893674
0.78217379
0.7962622
0.80878154
0.81836266
0.82496816
0.82931699
0.83212638
0.83381597
0.83447509
0.83400126
0.8321996
0.82870755
0.82268624
0.81221858
0.79575693
1.1568668
1.1536235
1.1492917
1.1441244
1.1383179
1.1320344
1.1254297
1.1186745
1.1119499
1.1054927
1.0995701
1.0945203
1.0907079
1.0887448
1.0885315
1.0890155
1.0884052
1.0852536
1.0796904
1.0726543
1.0649227
1.0566826
1.047868
1.0382767
1.0276771
1.0158936
1.0028995
0.98884837
0.97346805
0.94961191
1.158581
1.1584733
1.1582786
1.1579829
1.1575767
1.157054
1.1564129
1.1556569
1.1547948
1.1538442
1.1528335
1.1517443
1.1505085
1.1492033
1.1469984
1.1414867
1.1300626
1.1115709
1.0896109
1.0680333
1.0491613
1.0314313
1.014483
0.99814385
0.98245296
0.96719722
0.95127155
0.93446288
0.91689415
0.89819154
1.1586181
1.1586145
1.1586063
1.1585907
1.1585647
1.1585247
1.1584669
1.1583874
1.1582819
1.1581456
1.1579715
1.1577335
1.1572846
1.1555581
1.1485314
1.1297721
1.0976862
1.0596402
1.022722
0.98993141
0.96269038
0.942122
0.92637053
0.91365088
0.9028816
0.89370402
0.88629291
0.87987535
0.87361255
0.86685173
1.0824469
1.020252
0.96982261
0.9275511
0.89102768
0.85878141
0.82993671
0.80408285
0.78147126
0.76172468
0.74463415
0.73014649
0.71849946
0.71560382
0.71550128
0.71839207
0.72391892
0.73113265
0.73888106
0.74621906
0.75257544
0.75769092
0.76149091
0.76396848
0.76511622
0.76488265
0.76310879
0.75940209
0.75289853
0.74248299
1.1568648
1.1535601
1.149059
1.1435822
1.1372944
1.1303232
1.1227874
1.1146836
1.1037246
1.0893405
1.0698361
1.0438668
1.0115275
0.97711548
0.9443701
0.91652509
0.89472853
0.87857778
0.86723492
0.85993774
0.85587252
0.85403666
0.85339444
0.85299803
0.85201106
0.84963301
0.84493234
0.83655168
0.82216454
0.79981389
1.1585809
1.1584703
1.1582649
1.1579447
1.1574926
1.1568938
1.1561368
1.1552093
1.1540415
1.1525509
1.1505372
1.1452133
1.1305304
1.1033117
1.0666856
1.0266437
0.98807435
0.95478023
0.92764362
0.90656053
0.89095676
0.87992291
0.87237037
0.86719872
0.86340045
0.86007494
0.85634614
0.85115091
0.84269086
0.82838407
1.158618
1.1586144
1.1586056
1.1585883
1.1585585
1.1585109
1.1584398
1.1583379
1.1581948
1.1579949
1.157704
1.1571328
1.1554194
1.1461912
1.1189198
1.0793047
1.039018
1.0028927
0.97179225
0.94578242
0.92474426
0.90830852
0.89581319
0.88642927
0.87931426
0.87369373
0.86885335
0.86400675
0.85794172
0.84872631
)
;

boundaryField
{
    maxY
    {
        type            calculated;
        value           nonuniform List<scalar> 
300
(
1.1586175
1.1586175
1.1586175
1.1586175
1.1586175
1.1586175
1.1586175
1.1586175
1.1586175
1.1586175
1.1586139
1.158614
1.158614
1.158614
1.158614
1.158614
1.158614
1.158614
1.158614
1.1586139
1.158605
1.1586058
1.1586057
1.1586056
1.1586056
1.1586056
1.1586057
1.1586057
1.1586058
1.1586051
1.1585878
1.1585902
1.15859
1.1585899
1.1585898
1.1585898
1.1585899
1.1585901
1.1585902
1.1585878
1.1585578
1.1585641
1.1585639
1.1585635
1.1585633
1.1585633
1.1585635
1.158564
1.1585641
1.1585579
1.1585102
1.158524
1.1585241
1.1585231
1.1585225
1.1585225
1.1585231
1.1585242
1.1585241
1.1585104
1.1584389
1.1584661
1.1584668
1.1584648
1.1584636
1.1584637
1.1584649
1.158467
1.1584664
1.1584393
1.1583368
1.1583865
1.1583885
1.1583845
1.1583824
1.1583825
1.1583848
1.1583888
1.1583869
1.1583374
1.1581933
1.1582807
1.1582854
1.1582781
1.1582742
1.1582743
1.1582784
1.1582858
1.1582813
1.1581943
1.1579925
1.1581441
1.158154
1.158141
1.158134
1.158134
1.1581415
1.1581546
1.1581451
1.1579943
1.1576995
1.1579692
1.157991
1.1579685
1.1579562
1.1579559
1.1579691
1.1579919
1.157971
1.1577035
1.1571163
1.1577283
1.1577933
1.1577552
1.1577329
1.1577304
1.1577554
1.1577944
1.1577329
1.1571323
1.1553343
1.1572619
1.1575514
1.1574846
1.157428
1.1573888
1.1574716
1.1575497
1.1572841
1.1554189
1.1455446
1.155396
1.1571706
1.1569239
1.1564609
1.1557848
1.1566892
1.1571138
1.1555576
1.1461907
1.1172306
1.1477783
1.1555036
1.1522968
1.1451325
1.1359895
1.1494357
1.1547646
1.1485309
1.1189193
1.0769459
1.1277799
1.1419377
1.105387
1.0223484
1.0160943
1.0967841
1.1381
1.1297716
1.0793042
1.0363837
1.0948295
1.1111857
1.0452485
0.9922688
0.99434038
1.0391917
1.105563
1.0976857
1.0390176
1.0002995
1.0565673
1.0829899
1.0199866
0.98324815
0.98681901
1.0206117
1.0796544
1.0596397
1.0028923
0.96944095
1.0198807
1.0549826
1.0230681
0.97742668
0.98166395
1.0238258
1.0542304
1.0227216
0.97179188
0.94377238
0.98755004
1.0213722
1.0151166
0.97194122
0.97677491
1.0162455
1.0219523
0.98993102
0.94578207
0.92310268
0.96082499
0.9903992
0.99366862
0.96254421
0.9680471
0.99509654
0.99136027
0.96269002
0.92474392
0.90701322
0.94068359
0.96582941
0.97094411
0.95001265
0.95581114
0.9718356
0.96669483
0.94212166
0.90830819
0.89481351
0.92525254
0.94696039
0.9541192
0.93702059
0.9429168
0.9549815
0.94757072
0.9263702
0.89581287
0.88566285
0.9127789
0.93203344
0.93996851
0.9240885
0.92961825
0.9401498
0.93233676
0.91365055
0.88642896
0.8787183
0.90227989
0.91969929
0.92720086
0.91153115
0.91624272
0.92593684
0.91962772
0.90288128
0.87931396
0.87320935
0.89332001
0.90919073
0.91446286
0.89968069
0.90293626
0.90663067
0.9086558
0.89370371
0.87369343
0.86842398
0.88600583
0.90014385
0.89617146
0.88921198
0.89345175
0.88496845
0.8992771
0.8862926
0.86885306
0.86356159
0.87958528
0.89227987
0.87890505
0.88267003
0.87662365
0.86749593
0.89117657
0.87987505
0.86400646
0.85734512
0.87319896
0.88338692
0.86009101
0.85435664
0.83890743
0.84927015
0.88041852
0.87361225
0.85794143
0.8477245
0.86609818
0.87030256
0.83906989
0.81282641
0.79201005
0.823787
0.85861744
0.86685144
0.84872603
)
;
    }
    minX
    {
        type            calculated;
        value           nonuniform List<scalar> 
40
(
1.1586221
1.1586211
1.15862
1.158619
1.1586221
1.1586211
1.15862
1.158619
1.1586221
1.1586211
1.15862
1.158619
1.1586221
1.1586211
1.15862
1.158619
1.1586221
1.1586211
1.15862
1.158619
1.1586221
1.1586211
1.15862
1.158619
1.1586221
1.1586211
1.15862
1.158619
1.1586221
1.1586211
1.15862
1.158619
1.1586221
1.1586211
1.15862
1.158619
1.1586221
1.1586211
1.15862
1.158619
)
;
    }
    maxX
    {
        type            calculated;
        value           nonuniform List<scalar> 
40
(
0.74081545
0.79814484
0.82706044
0.84778755
0.79287655
0.94977989
0.89863009
0.86613231
0.8157106
0.92152823
0.89246554
0.87043725
0.7166892
0.84276127
0.85105176
0.84008843
0.66316756
0.75450312
0.8025501
0.81376164
0.66055018
0.73418297
0.78104863
0.79297422
0.71421794
0.8357151
0.83938966
0.82551701
0.82049307
0.91465126
0.88109383
0.85898937
0.79579048
0.94963372
0.89820495
0.86686631
0.74252008
0.79987549
0.82844563
0.84876106
)
;
    }
    minZ
    {
        type            calculated;
        value           nonuniform List<scalar> 
120
(
1.0823519
1.1568625
1.1585809
1.158618
1.020085
1.1535533
1.1584701
1.1586144
0.96959442
1.1490458
1.1582644
1.1586056
0.92726685
1.1435606
1.1579437
1.1585883
0.89069253
1.1372626
1.1574909
1.1585584
0.85840319
1.1302797
1.1568911
1.1585108
0.82952916
1.1227308
1.1561327
1.1584395
0.80367363
1.1145797
1.1552025
1.1583373
0.78107418
1.1035548
1.1540304
1.1581938
0.76135221
1.0890834
1.152533
1.157993
0.74429377
1.0694367
1.1505051
1.1577
0.729842
1.0433087
1.1450452
1.1571169
0.71822867
1.010796
1.1300103
1.1553348
0.71533149
0.97623853
1.1023295
1.1455451
0.71519629
0.94340485
1.0652625
1.1172311
0.71799912
0.9155431
1.0249116
1.0769464
0.72338244
0.89382168
0.98619278
1.0363841
0.73042403
0.87781469
0.95295898
1.0002999
0.73800984
0.86663945
0.92602714
0.96944132
0.74523052
0.85950667
0.90521875
0.94377273
0.75153527
0.85558133
0.88990224
0.92310302
0.75666231
0.85385039
0.87912851
0.90701354
0.76051222
0.85326769
0.87178568
0.89481382
0.76303918
0.85287241
0.86676146
0.88566316
0.76419771
0.85182429
0.8630454
0.87871861
0.76391486
0.84933549
0.85974223
0.87320965
0.76202716
0.84447466
0.85597684
0.86842428
0.75813685
0.83581099
0.8506484
0.86356189
0.75137522
0.8208841
0.84184938
0.85734541
0.7407464
0.79804579
0.82696569
0.84772479
)
;
    }
    maxZ
    {
        type            calculated;
        value           nonuniform List<scalar> 
120
(
1.0824469
1.1568648
1.1585809
1.158618
1.020252
1.1535601
1.1584703
1.1586144
0.96982261
1.149059
1.1582649
1.1586056
0.9275511
1.1435822
1.1579447
1.1585883
0.89102768
1.1372944
1.1574926
1.1585585
0.85878141
1.1303232
1.1568938
1.1585109
0.82993671
1.1227874
1.1561368
1.1584398
0.80408285
1.1146836
1.1552093
1.1583379
0.78147126
1.1037246
1.1540415
1.1581948
0.76172468
1.0893405
1.1525509
1.1579949
0.74463415
1.0698361
1.1505372
1.157704
0.73014649
1.0438668
1.1452133
1.1571328
0.71849946
1.0115275
1.1305304
1.1554194
0.71560382
0.97711548
1.1033117
1.1461912
0.71550128
0.9443701
1.0666856
1.1189198
0.71839207
0.91652509
1.0266437
1.0793047
0.72391892
0.89472853
0.98807435
1.039018
0.73113265
0.87857778
0.95478023
1.0028927
0.73888106
0.86723492
0.92764362
0.97179225
0.74621906
0.85993774
0.90656053
0.94578242
0.75257544
0.85587252
0.89095676
0.92474426
0.75769092
0.85403666
0.87992291
0.90830852
0.76149091
0.85339444
0.87237037
0.89581319
0.76396848
0.85299803
0.86719872
0.88642927
0.76511622
0.85201106
0.86340045
0.87931426
0.76488265
0.84963301
0.86007494
0.87369373
0.76310879
0.84493234
0.85634614
0.86885335
0.75940209
0.83655168
0.85115091
0.86400675
0.75289853
0.82216454
0.84269086
0.85794172
0.74248299
0.79981389
0.82838407
0.84872631
)
;
    }
    topAir_to_rightSolid
    {
        type            calculated;
        value           nonuniform List<scalar> 
130
(
0.48133555
0.47652255
0.47162179
0.46688319
0.46247991
0.45852416
0.45506402
0.45210995
0.44965979
0.44771832
0.44627342
0.44531583
0.44483966
0.4848963
0.47920702
0.47356147
0.46824196
0.4634143
0.45916193
0.45550192
0.4524188
0.44989003
0.44789665
0.44641813
0.44543674
0.44494352
0.49222124
0.48445985
0.47718879
0.47069468
0.46504809
0.46025129
0.45623546
0.45292735
0.45026552
0.44819142
0.4466595
0.44564837
0.44514069
0.50363856
0.49178944
0.48180846
0.47360331
0.46690441
0.46145035
0.45702505
0.45346426
0.45064662
0.44847971
0.44689619
0.44585612
0.44533865
0.51793658
0.49904691
0.48575883
0.47588756
0.46829184
0.46232958
0.45760788
0.45386809
0.45094078
0.44870828
0.44708909
0.44602837
0.44550185
0.51811845
0.49922489
0.48593354
0.47605606
0.46845706
0.46249465
0.45776762
0.45401521
0.45107745
0.44883931
0.44721434
0.44614635
0.44561547
0.50410492
0.49227996
0.48229426
0.47408976
0.46739161
0.46192934
0.45748852
0.45390855
0.45106975
0.44889004
0.44729913
0.4462495
0.44572726
0.49277078
0.48509441
0.47788938
0.4714453
0.46583298
0.46102891
0.45699661
0.45366742
0.45097567
0.44888851
0.44735746
0.44634842
0.44584385
0.48548489
0.47990696
0.47436446
0.46913234
0.4643664
0.46013868
0.45647346
0.45338131
0.4508427
0.44884788
0.44737124
0.44639391
0.44590465
0.48193865
0.47724571
0.47246238
0.46782427
0.46349803
0.4595864
0.45614369
0.45319691
0.4507501
0.44881073
0.44736653
0.44640696
0.44592623
)
;
    }
    topAir_to_heater
    {
        type            calculated;
        value           nonuniform List<scalar> 
40
(
0.49325365
0.49192855
0.48936614
0.48573772
0.49928695
0.49769714
0.49460354
0.49020302
0.5125063
0.51034406
0.50604464
0.49979382
0.53571564
0.53276293
0.52645025
0.51654614
0.5738244
0.57077547
0.56276253
0.547184
0.57389405
0.57085731
0.56287112
0.54732858
0.53596306
0.53302204
0.52676899
0.5169424
0.51282415
0.51069395
0.50642938
0.50025107
0.49959582
0.49805318
0.49500688
0.49068593
0.49355854
0.49229143
0.48977756
0.48622849
)
;
    }
    topAir_to_leftSolid
    {
        type            calculated;
        value           nonuniform List<scalar> 
130
(
0.42470599
0.42470959
0.42472847
0.42476763
0.42483144
0.42492583
0.42505517
0.42521922
0.42541334
0.42562535
0.42579926
0.42593232
0.42600642
0.42468776
0.42469553
0.42472019
0.42476678
0.4248372
0.4249359
0.42507014
0.42524525
0.42544648
0.4256549
0.4258263
0.42596622
0.42605161
0.42466568
0.42467854
0.42471205
0.42477224
0.42486079
0.42497803
0.42512553
0.4253116
0.42552435
0.42573112
0.42590824
0.42605285
0.42614915
0.42465293
0.42467173
0.4247166
0.42479263
0.42489862
0.42503677
0.4252085
0.42541803
0.42565448
0.42587349
0.42606203
0.42621328
0.42631227
0.4246736
0.42469609
0.42475139
0.42484137
0.42496598
0.42512619
0.42532522
0.42555768
0.42582344
0.42605436
0.42625261
0.42641176
0.4265179
0.42473985
0.42476321
0.424823
0.42492322
0.42506288
0.42524645
0.4254762
0.42570102
0.42592353
0.4261304
0.42631233
0.42645473
0.42654262
0.42482609
0.42485295
0.42491733
0.42502498
0.42517631
0.42535325
0.4255376
0.42572477
0.42591061
0.42608893
0.42624459
0.42636507
0.42644215
0.42491673
0.42494674
0.42501467
0.42512737
0.42525709
0.42539558
0.42554167
0.4256938
0.42584497
0.42599131
0.42612364
0.42622606
0.42628842
0.4250107
0.42503777
0.42510062
0.42519571
0.4252985
0.42541126
0.42553056
0.42565395
0.42578053
0.4259089
0.42601901
0.42610286
0.42615347
0.42507079
0.42509656
0.4251564
0.42523697
0.42532586
0.42542128
0.4255206
0.42562339
0.4257316
0.42584423
0.42594085
0.42601547
0.42605897
)
;
    }
}


// ************************************************************************* //
