/*--------------------------------*- C++ -*----------------------------------*\
| =========                 |                                                 |
| \\      /  F ield         | OpenFOAM: The Open Source CFD Toolbox           |
|  \\    /   O peration     | Version:  v2012                                 |
|   \\  /    A nd           | Website:  www.openfoam.com                      |
|    \\/     M anipulation  |                                                 |
\*---------------------------------------------------------------------------*/
FoamFile
{
    version     2.0;
    format      ascii;
    class       volScalarField;
    location    "270/topAir";
    object      T;
}
// * * * * * * * * * * * * * * * * * * * * * * * * * * * * * * * * * * * * * //

dimensions      [0 0 0 1 0 0 0];


internalField   nonuniform List<scalar> 
1200
(
321.14012
340.74279
358.48661
374.85068
390.24309
404.9223
419.01672
432.49718
445.01097
456.53847
467.00185
476.24904
483.9497
485.90974
486.00159
484.10439
480.50174
475.86949
470.97814
466.41474
462.50191
459.36806
457.04262
455.52902
454.83843
455.00683
456.13397
458.47458
462.60039
469.23816
300.45605
301.31795
302.49999
303.95093
305.63419
307.52239
309.59008
311.85417
314.9697
319.15492
325.01812
333.15768
343.87383
356.04649
368.4381
379.65038
388.87653
395.9677
401.07367
404.40205
406.25741
407.08098
407.35897
407.54777
408.04923
409.24493
411.60056
415.86703
423.42913
435.54674
300.01014
300.03884
300.09212
300.17522
300.29266
300.44834
300.64544
300.88751
301.19312
301.58444
302.11602
303.55657
307.59543
315.31951
326.29142
339.13755
352.45238
364.74392
375.35184
383.98011
390.58896
395.37563
398.70578
401.0169
402.74358
404.29093
406.06939
408.613
412.88382
420.31489
300.00025
300.00119
300.00347
300.00795
300.0157
300.02802
300.04649
300.07295
300.11014
300.16217
300.23814
300.38945
300.85279
303.42384
311.11353
322.75118
335.38309
347.48152
358.54231
368.2939
376.54058
383.22003
388.44478
392.45819
395.55981
398.05534
400.24879
402.50244
405.42092
410.02194
321.13676
340.52769
357.85924
373.61214
388.16516
401.72496
414.36653
426.05643
436.66313
445.94375
453.58032
459.19327
462.34612
458.45345
452.41832
445.0034
437.39105
430.81224
425.84919
422.40815
420.08058
418.51442
417.53437
417.13394
417.38998
418.4055
420.36516
423.73737
429.60246
438.4297
300.45547
301.30118
302.43826
303.80605
305.35811
307.0558
308.86094
310.72929
312.61143
314.43988
316.13553
317.59623
318.71141
319.30159
319.40453
319.31973
319.52812
320.43797
322.03812
324.08842
326.38977
328.90416
331.66334
334.73379
338.18226
342.0525
346.35994
351.06612
356.26443
365.98013
300.01011
300.03803
300.08854
300.16527
300.27076
300.40663
300.57346
300.77043
300.9954
301.24384
301.50845
301.79513
302.12269
302.47264
303.08717
304.59894
307.66675
312.7112
318.92916
325.27938
331.07533
336.73476
342.33067
347.90735
353.46068
359.02704
364.98732
371.50508
378.66186
386.78971
300.00024
300.00116
300.00329
300.00733
300.01408
300.02446
300.03944
300.06008
300.08748
300.12288
300.1682
300.23065
300.35165
300.83672
302.83335
308.20335
317.47914
328.97626
340.81003
351.96755
361.75742
369.50318
375.66564
380.79933
385.23035
389.09417
392.30624
395.16989
398.06005
401.32358
321.13653
340.56618
357.95078
373.76984
388.40926
402.08524
414.89964
426.89843
438.05833
448.28008
457.37671
465.06796
470.83197
468.75265
463.64578
455.44371
445.30271
435.0798
425.91556
418.28045
412.2168
407.60925
404.38387
402.54441
402.08688
402.92427
404.9576
408.29805
414.01974
426.19717
300.45555
301.30419
302.44655
303.82111
305.38171
307.09152
308.91712
310.82485
312.7762
314.72
316.58697
318.28032
319.65304
320.40142
320.32662
319.63902
319.11118
319.24648
320.16703
321.8178
324.07995
326.91978
330.42447
334.69622
339.73853
345.46137
351.83585
358.76334
366.68047
377.20473
300.01011
300.03816
300.08895
300.16605
300.27188
300.40798
300.57495
300.77235
300.99837
301.24916
301.51727
301.78924
302.04277
302.24133
302.41166
303.34229
306.05624
309.85264
314.19288
318.88106
323.75178
329.0747
335.33734
342.68096
350.74436
358.87044
366.74844
374.15021
381.11659
389.46662
300.00024
300.00116
300.0033
300.00736
300.01412
300.02445
300.03927
300.05956
300.08627
300.12032
300.16255
300.21381
300.27655
300.37536
300.80871
304.38222
312.80598
320.94993
329.4704
340.31233
350.95502
359.88299
367.05399
372.93253
377.93396
382.30219
386.14452
389.54776
393.46929
399.38481
321.13758
340.58077
357.99738
373.87154
388.6035
402.43652
415.51611
427.93798
439.76376
451.03421
461.74873
471.8368
480.9161
482.05894
481.03607
478.8867
477.61702
477.6919
478.27469
478.48353
477.83374
476.1891
473.73771
470.87811
467.97191
465.43856
464.58657
468.01907
475.6958
485.128
300.45561
301.30536
302.45124
303.83289
305.40614
307.13784
309.00103
310.97206
313.02773
315.14055
317.27016
319.34385
321.21097
322.4779
322.88989
323.18116
324.02251
325.25588
326.69196
328.32223
330.27143
332.74167
335.98274
340.17651
345.35303
351.5385
358.80703
366.60687
381.82269
412.36598
300.01012
300.03821
300.08921
300.16679
300.27359
300.41145
300.58154
300.78433
301.01951
301.28543
301.57774
301.88571
302.18357
302.42254
302.76074
305.44402
309.70159
313.0999
316.09775
319.45001
323.85689
329.88485
337.90699
347.48007
357.54289
367.50559
377.74671
385.09294
391.91356
408.42201
300.00024
300.00116
300.00332
300.00741
300.01423
300.02471
300.0398
300.06058
300.08815
300.12367
300.16838
300.22369
300.29388
300.4394
301.64585
314.44693
332.53869
340.77464
339.74822
342.40949
349.80029
357.98722
364.29996
369.7843
374.87628
380.09812
387.85616
395.47575
404.12659
414.25114
321.13548
340.58097
358.00446
373.8896
388.63754
402.4938
415.60678
428.0761
439.97191
451.33425
462.15538
472.33798
481.36928
480.50739
477.55561
475.56414
476.51719
480.47909
484.93209
489.58201
494.1675
498.437
502.15988
505.15813
507.35173
508.84772
510.11974
512.15085
516.26668
524.2355
300.45558
301.3057
302.45288
303.83713
305.41468
307.15306
309.02629
311.01216
313.08952
315.23281
317.40006
319.50624
321.35944
322.46836
322.73962
323.73001
325.25159
327.06655
330.26351
334.11999
338.05373
342.03776
346.79696
353.40118
362.52462
374.29735
388.91549
406.95202
429.86378
460.62698
300.01012
300.03823
300.08932
300.16712
300.27435
300.41299
300.58434
300.78915
301.0274
301.29792
301.59644
301.91055
302.20722
302.43746
303.17502
308.11718
311.48681
313.48637
315.11698
317.46344
321.53042
328.31338
338.17049
350.05936
361.50734
369.68125
375.81681
386.52443
404.48067
433.02488
300.00024
300.00116
300.00332
300.00743
300.01429
300.02484
300.04009
300.06113
300.08916
300.12548
300.17158
300.22947
300.30856
300.55969
303.53304
339.98738
350.29376
353.50747
355.61293
357.61995
361.11129
365.8747
370.94766
376.13887
381.32061
386.34331
390.89175
393.78887
406.83906
427.62598
321.13033
340.57096
357.98951
373.86898
388.60983
402.45645
415.55586
428.00915
439.88698
451.22639
462.01
472.11681
480.98267
479.84392
476.96339
475.40003
476.80386
480.77932
485.26937
489.98424
494.66736
499.06209
502.91489
506.02857
508.31551
509.90001
511.29625
513.49868
517.82731
526.20407
300.45547
301.30538
302.45225
303.8361
305.4131
307.15069
309.02277
311.00691
313.0814
315.21956
317.37636
319.45876
321.2594
322.29615
322.70905
323.81716
325.40925
327.7019
331.44849
336.15918
341.44984
347.43601
354.86577
364.70106
376.82319
390.9664
406.97034
425.00075
446.08204
473.1932
300.01011
300.03823
300.08929
300.16708
300.27428
300.41286
300.58414
300.78883
301.02687
301.29692
301.59426
301.90504
302.19402
302.44614
303.72053
308.16653
311.21449
313.01554
314.51759
316.69347
320.39056
326.47695
335.32467
345.91959
356.91999
366.9564
378.44608
393.69743
414.80805
444.78328
300.00024
300.00116
300.00332
300.00743
300.01429
300.02484
300.04008
300.06112
300.08914
300.12548
300.17165
300.23011
300.31874
300.73553
305.97602
342.08002
349.56396
352.22828
354.07796
355.85023
359.05854
363.65509
368.62807
373.90144
379.35975
384.95034
389.03682
396.50498
414.33137
438.86528
321.12418
340.55453
357.9579
373.817
388.53059
402.34187
415.39761
427.79495
439.59532
450.83022
461.49534
471.50606
480.44318
481.33007
480.0943
478.12262
477.31561
477.9208
479.01312
479.75551
479.63678
478.4477
476.26624
473.38944
470.19489
467.42108
466.70569
470.27199
477.05201
486.67046
300.45532
301.30453
302.44961
303.83021
305.40206
307.13193
308.99274
310.96069
313.0123
315.11897
317.2379
319.29085
321.11562
322.31123
322.70603
323.14223
324.12001
325.44354
326.94925
328.64793
330.67328
333.22733
336.54146
340.78309
345.98599
352.24172
359.47374
367.40835
384.40271
415.71986
300.01011
300.03819
300.08915
300.16667
300.27338
300.41112
300.58103
300.78356
301.01837
301.28366
301.57474
301.87987
302.17124
302.40826
302.90787
305.91801
309.93566
313.0258
315.76214
318.82236
322.83639
328.30002
335.60175
344.54985
354.7846
366.61603
378.16273
386.70458
395.2922
414.09056
300.00024
300.00116
300.00332
300.0074
300.01422
300.02469
300.03977
300.06053
300.08806
300.12355
300.16822
300.22365
300.29726
300.50037
302.39668
316.91337
334.47682
340.56592
339.49676
342.02913
349.29834
357.65883
363.97102
369.71299
375.38803
383.38171
392.76612
400.67696
409.27572
421.93634
321.11713
340.52792
357.89285
373.68945
388.30408
401.95428
414.74376
426.7167
437.85282
448.05542
457.13107
464.79182
470.49598
468.29099
463.00258
454.72549
444.7847
434.89238
426.0323
418.60997
412.64091
407.99511
404.59794
402.47379
401.66224
402.14073
403.84645
406.88487
412.2951
423.66788
300.45513
301.30298
302.44419
303.81722
305.37587
307.0833
308.90613
310.81059
312.7581
314.69739
316.55843
318.24177
319.59445
320.30464
320.19033
319.55062
319.1557
319.40579
320.37586
322.01385
324.21583
326.95745
330.33747
334.49324
339.50261
345.37167
352.07619
359.53346
368.32723
380.02216
300.0101
300.03813
300.08887
300.16588
300.27159
300.40752
300.57426
300.77135
300.99698
301.24725
301.51454
301.78512
302.03556
302.23031
302.43887
303.59685
306.5366
310.31787
314.46974
318.9009
323.47526
328.44767
334.33011
341.40114
349.55956
358.35134
367.08293
375.26583
383.44702
394.50193
300.00024
300.00116
300.0033
300.00735
300.0141
300.02442
300.03923
300.05949
300.08616
300.12016
300.16232
300.21352
300.27699
300.39009
301.0012
305.40861
314.39688
321.94148
329.70549
340.11915
350.61478
359.56081
366.81756
372.81121
377.96338
382.52725
386.5167
390.03003
394.79591
404.82014
321.11183
340.47871
357.78565
373.51178
388.03629
401.56633
414.17885
425.84679
436.43969
445.71587
453.35677
458.98036
462.13804
458.20349
452.0353
444.38531
436.52272
429.76566
424.7341
421.33326
419.12383
417.7088
416.86238
416.53311
416.76975
417.67202
419.43202
422.50187
427.94696
436.7998
300.45493
301.29964
302.43526
303.80116
305.35085
307.04572
308.84767
310.71265
312.5917
314.41757
316.1111
317.56953
318.67955
319.25417
319.31672
319.17479
319.35374
320.28115
321.93143
324.04313
326.39577
328.94102
331.70804
334.77227
338.22514
342.14828
346.58132
351.50609
357.0597
366.02973
300.0101
300.03799
300.08844
300.16506
300.2704
300.40605
300.57259
300.76921
300.99375
301.24172
301.50582
301.79094
302.11511
302.45823
303.03964
304.5029
307.58118
312.698
319.00008
325.44488
331.2989
336.99381
342.62375
348.23234
353.794
359.37444
365.3909
371.96337
379.09061
386.98422
300.00024
300.00115
300.00328
300.00732
300.01406
300.02442
300.03938
300.05998
300.08731
300.12261
300.16774
300.22946
300.3459
300.79465
302.63491
307.66001
316.65306
328.02239
339.86331
351.12099
361.05659
368.93917
375.21241
380.43604
384.97376
388.92712
392.1793
395.03975
397.87174
400.97485
321.11193
340.68703
358.40226
374.73581
390.0963
404.74397
418.81096
432.27708
444.78485
456.31523
466.78837
476.05044
483.76731
485.72482
485.79442
483.83959
480.14565
475.40827
470.42281
465.79687
461.86266
458.74444
456.45521
454.97491
454.2924
454.43112
455.48745
457.71071
461.66443
468.14066
300.45545
301.31617
302.49651
303.9452
305.62564
307.51056
309.57449
311.8251
314.92124
319.07958
324.89678
332.97958
343.62516
355.72694
368.06152
379.24361
388.48239
395.62379
400.79828
404.19933
406.11919
406.99219
407.29847
407.48775
407.95978
409.10162
411.3776
415.49882
422.76968
434.5839
300.01013
300.03878
300.09199
300.17497
300.29222
300.44763
300.64437
300.88575
301.19021
301.57974
302.10759
303.51202
307.45394
315.03882
325.85609
338.56536
351.78122
364.04817
374.69777
383.41178
390.12667
395.01869
398.43856
400.8147
402.57796
404.13454
405.89427
408.37176
412.47154
419.59522
300.00025
300.00119
300.00347
300.00794
300.01567
300.02798
300.04641
300.0728
300.10987
300.16169
300.23711
300.3853
300.83076
303.25279
310.64397
322.04595
334.53291
346.58316
357.67494
367.51132
375.8723
382.67367
388.01143
392.119
395.29185
397.8348
400.05113
402.2952
405.13914
409.53811
)
;

boundaryField
{
    maxY
    {
        type            zeroGradient;
    }
    minX
    {
        type            fixedValue;
        value           uniform 300;
    }
    maxX
    {
        type            inletOutlet;
        inletValue      uniform 300;
        value           nonuniform List<scalar> 
40
(
469.19444
435.4927
420.26675
409.99158
438.38662
365.96495
386.79534
401.30789
426.11493
377.1845
389.46707
399.32313
484.98917
412.43734
408.41932
413.74902
524.13077
460.68237
433.10197
427.13466
526.2076
473.43279
445.02485
438.33181
486.66728
415.91473
414.09373
421.05224
423.6312
380.02044
394.49369
404.64498
436.78139
366.02128
386.97842
400.96809
468.11729
434.55044
419.56405
409.52132
)
;
    }
    minZ
    {
        type            zeroGradient;
    }
    maxZ
    {
        type            zeroGradient;
    }
    topAir_to_rightSolid
    {
        type            compressible::turbulentTemperatureCoupledBaffleMixed;
        refValue        nonuniform List<scalar> 
130
(
722.20867
729.50628
737.08983
744.57364
751.66516
758.1519
763.91819
768.91079
773.10125
776.45395
778.9676
780.64164
781.47531
716.9187
725.43338
734.08434
742.42627
750.16246
757.11138
763.19605
768.39786
772.71733
776.15629
778.72623
780.44033
781.30276
706.24652
717.56627
728.50457
738.55944
747.53008
755.32332
761.97348
767.53989
772.07782
775.65071
778.31033
780.07467
780.96057
690.21925
706.85282
721.49885
734.00164
744.53544
753.33797
760.63481
766.60974
771.40468
775.13283
777.87881
779.69131
780.59443
671.1601
696.56892
715.62652
730.47244
742.32194
751.89587
759.65478
765.91481
770.88737
774.72323
777.52893
779.37709
780.29586
670.92435
696.32041
715.36904
730.21367
742.05985
751.6272
759.38934
765.66625
770.65338
774.49661
777.31065
779.17042
780.0962
689.58048
706.1481
720.77153
733.24776
743.75845
752.55583
759.86326
765.85849
770.68024
774.42343
777.17717
779.00337
779.9132
705.45881
716.62739
727.43627
737.38319
746.2702
754.04903
760.70418
766.28772
770.86209
774.44633
777.09626
778.85155
779.72948
716.04969
724.37551
732.84182
741.01724
748.62437
755.50417
761.5716
766.7665
771.08447
774.51142
777.06728
778.76712
779.61891
721.30485
728.40083
735.77835
743.07576
750.01394
756.39943
762.10987
767.06644
771.23104
774.56392
777.06413
778.73351
779.5711
)
;
        refGradient     uniform 0;
        valueFraction   uniform 0.99967867;
        value           nonuniform List<scalar> 
130
(
722.12952
729.42321
737.00286
744.483
751.57123
758.05514
763.8191
768.80987
772.99904
776.35102
778.86461
780.53944
781.37496
716.82677
725.33712
733.9842
742.32269
750.05589
757.00227
763.08485
768.28507
772.60348
776.04197
778.61216
780.32759
781.19258
706.15938
717.47255
728.40488
738.45457
747.42085
755.21055
761.85798
767.42246
771.9592
775.5316
778.19143
779.95704
780.84655
690.15095
706.77936
721.42075
733.91931
744.4492
753.24811
760.54167
766.51375
771.30633
775.03301
777.77922
779.59358
780.49944
671.09883
696.50091
715.55388
730.3965
742.24357
751.81561
759.57299
765.83171
770.80315
774.63818
777.44362
779.2925
780.21355
670.86325
696.25259
715.29662
730.13799
741.98177
751.54728
759.30793
765.58355
770.56959
774.41203
777.22588
779.08644
780.01462
689.51247
706.07511
720.69408
733.16627
743.6732
752.46705
759.7712
765.76349
770.58279
774.32456
777.07857
778.90634
779.81897
705.37187
716.53401
727.33704
737.27884
746.1615
753.93674
760.58908
766.17056
770.74361
774.32725
776.97731
778.73377
779.61505
715.9577
724.27923
732.74173
740.91381
748.51804
755.39536
761.46073
766.65404
770.97091
774.39733
776.95335
778.65439
779.50875
721.22584
728.31793
735.6916
742.9854
749.92035
756.30305
762.01118
766.96593
771.12925
774.46139
776.96151
778.63162
779.47103
)
;
        Tnbr            T;
        thicknessLayers List<scalar> 0();
        kappaLayers     List<scalar> 0();
        kappaMethod     fluidThermo;
        kappa           none;
        alphaAni        none;
        alpha           none;
        field           T;
    }
    topAir_to_heater
    {
        type            compressible::turbulentTemperatureCoupledBaffleMixed;
        refValue        nonuniform List<scalar> 
40
(
704.75164
706.6504
710.35197
715.66053
696.24252
698.46896
702.84096
709.15404
678.27685
681.15287
686.94393
695.54049
648.88039
652.47783
660.30424
672.96809
605.77722
609.01489
617.68922
635.27909
605.7039
608.92776
617.57007
635.11114
648.581
652.16088
659.90486
672.45219
677.85652
680.6863
686.42218
694.90477
695.81207
697.96967
702.26835
708.45627
704.31625
706.12946
709.75521
714.93815
)
;
        refGradient     uniform 0;
        valueFraction   uniform 0.99967867;
        value           nonuniform List<scalar> 
40
(
704.68132
706.5795
710.27927
715.58497
696.16612
698.3899
702.75812
709.06672
678.20953
681.08298
686.86955
695.46009
648.82678
652.42274
660.24594
672.90531
605.73697
608.97265
617.64355
635.22807
605.66345
608.88535
617.52439
635.06027
648.52725
652.10559
659.84645
672.38949
677.78918
680.61635
686.34773
694.8244
695.73572
697.89064
702.18549
708.36889
704.24601
706.05866
709.68262
714.86271
)
;
        Tnbr            T;
        thicknessLayers List<scalar> 0();
        kappaLayers     List<scalar> 0();
        kappaMethod     fluidThermo;
        kappa           none;
        alphaAni        none;
        alpha           none;
        field           T;
    }
    topAir_to_leftSolid
    {
        type            compressible::turbulentTemperatureCoupledBaffleMixed;
        refValue        nonuniform List<scalar> 
130
(
818.57725
818.56397
818.52185
818.44109
818.31316
818.12662
817.87308
817.55312
817.17596
816.76512
816.42808
816.16999
816.0255
818.6124
818.59115
818.538
818.44313
818.30274
818.10825
817.84577
817.50515
817.11499
816.71182
816.38057
816.11054
815.9459
818.65496
818.62388
818.55368
818.43256
818.25721
818.02703
817.73902
817.37732
816.96498
816.56483
816.22226
815.94267
815.75639
818.67955
818.63701
818.54488
818.39322
818.18429
817.91384
817.57923
817.17247
816.71464
816.29092
815.92618
815.63332
815.44095
818.6397
818.59004
818.47782
818.29932
818.05457
817.74175
817.3548
816.90423
816.39045
815.94423
815.56118
815.25342
815.04759
818.51199
818.46069
818.33985
818.14167
817.86805
817.51047
817.06474
816.62913
816.19861
815.79864
815.44695
815.17135
815.00048
818.34582
818.28779
818.15816
817.94578
817.64985
817.30522
816.94687
816.58363
816.22345
815.87817
815.57673
815.34299
815.19271
818.17124
818.10716
817.97078
817.7488
817.49459
817.224
816.93926
816.6434
816.34986
816.06607
815.80967
815.61112
815.48993
817.9903
817.93194
817.8054
817.61741
817.41508
817.194
816.96078
816.72016
816.47388
816.22476
816.01128
815.84885
815.75092
817.87467
817.81874
817.6979
817.53767
817.36181
817.17373
816.97841
816.77673
816.56505
816.3453
816.1567
816.01073
815.9249
)
;
        refGradient     uniform 0;
        valueFraction   uniform 0.99967867;
        value           nonuniform List<scalar> 
130
(
818.41741
818.41044
818.37403
818.29855
818.17561
817.99385
817.74491
817.42939
817.05637
816.64937
816.3158
816.06077
815.9188
818.45255
818.43754
818.38997
818.30019
818.16453
817.97446
817.71612
817.37937
816.99274
816.59269
816.26399
815.99585
815.83228
818.49509
818.47027
818.40567
818.28967
818.11909
817.89337
817.60957
817.25185
816.84323
816.44649
816.10695
815.82993
815.64556
818.51968
818.48339
818.3969
818.25039
818.04625
817.78034
817.45004
817.04739
816.59351
816.17355
815.81237
815.52285
815.33345
818.47984
818.43645
818.32986
818.15652
817.91659
817.60832
817.22571
816.77929
816.2695
815.82707
815.44762
815.14324
814.94037
818.35217
818.30713
818.19193
817.99891
817.73012
817.3771
816.93573
816.50426
816.07769
815.68149
815.33338
815.06111
814.89315
818.18605
818.13429
818.01028
817.80307
817.51197
817.17188
816.81784
816.4587
816.10243
815.76087
815.46296
815.23251
815.08514
818.01152
817.9537
817.82294
817.60611
817.35668
817.09056
816.81003
816.5181
816.22823
815.94782
815.69442
815.4984
815.37908
817.83065
817.77853
817.65758
817.4747
817.27711
817.06045
816.83136
816.59456
816.35176
816.1057
815.89475
815.73417
815.6373
817.71504
817.66543
817.55031
817.39538
817.22452
817.04121
816.85047
816.65318
816.44559
816.22961
816.04444
815.90149
815.81817
)
;
        Tnbr            T;
        thicknessLayers List<scalar> 0();
        kappaLayers     List<scalar> 0();
        kappaMethod     fluidThermo;
        kappa           none;
        alphaAni        none;
        alpha           none;
        field           T;
    }
}


// ************************************************************************* //
