/*--------------------------------*- C++ -*----------------------------------*\
| =========                 |                                                 |
| \\      /  F ield         | OpenFOAM: The Open Source CFD Toolbox           |
|  \\    /   O peration     | Version:  v2012                                 |
|   \\  /    A nd           | Website:  www.openfoam.com                      |
|    \\/     M anipulation  |                                                 |
\*---------------------------------------------------------------------------*/
FoamFile
{
    version     2.0;
    format      ascii;
    class       volScalarField;
    location    "680/leftSolid";
    object      T;
}
// * * * * * * * * * * * * * * * * * * * * * * * * * * * * * * * * * * * * * //

dimensions      [0 0 0 1 0 0 0];


internalField   nonuniform List<scalar> 
130
(
925.06097
925.00769
924.8964
924.72213
924.48119
924.17019
923.80929
923.45643
923.09016
922.74448
922.44729
922.2336
922.11457
925.12845
925.0738
924.95906
924.77841
924.52663
924.2036
923.8589
923.51324
923.14261
922.79335
922.5045
922.28633
922.1619
925.22573
925.172
925.05585
924.86797
924.59775
924.27685
923.9594
923.63209
923.29203
922.9486
922.64746
922.41585
922.27839
925.31482
925.26346
925.15116
924.96891
924.7078
924.41482
924.11861
923.80809
923.48121
923.14125
922.82008
922.56909
922.4117
925.38561
925.33563
925.22898
925.05661
924.80994
924.5524
924.27934
923.98133
923.65721
923.31657
922.96598
922.70189
922.5428
925.44105
925.39043
925.28737
925.12759
924.93326
924.71261
924.46105
924.17014
923.85792
923.52358
923.1844
922.94053
922.78687
925.47687
925.41551
925.31193
925.17904
925.01577
924.8231
924.6
924.34579
924.06963
923.78441
923.51394
923.29591
923.14599
925.50356
925.43535
925.32932
925.20045
925.04476
924.86658
924.6653
924.44044
924.19088
923.96423
923.75742
923.59345
923.48961
925.52089
925.44736
925.34351
925.21857
925.06804
924.89029
924.69611
924.49549
924.28438
924.08532
923.90298
923.76061
923.67542
925.51356
925.45055
925.34633
925.22882
925.08681
924.91763
924.7119
924.51967
924.32556
924.12299
923.89958
923.73697
923.66155
)
;

boundaryField
{
    minX
    {
        type            zeroGradient;
    }
    minZ
    {
        type            zeroGradient;
    }
    maxZ
    {
        type            zeroGradient;
    }
    leftSolid_to_bottomWater
    {
        type            compressible::turbulentTemperatureCoupledBaffleMixed;
        refValue        nonuniform List<scalar> 
130
(
965.94122
965.43113
965.07248
964.63752
964.34209
961.81736
952.84593
952.23276
946.92844
942.34113
938.71853
936.66582
934.12626
967.31542
966.7516
966.29266
965.9312
965.37132
958.89134
953.8646
953.62727
945.85944
939.13153
939.80269
937.25855
934.54629
967.77231
967.58608
967.42985
967.21072
962.60562
954.07421
953.84598
952.63385
950.76688
944.94532
942.37229
939.4817
936.15515
966.88889
966.86937
966.83286
966.82747
961.56426
956.8626
956.58546
955.71902
954.6872
951.12541
946.32536
942.90277
936.19438
965.73689
965.47649
965.65323
965.7803
957.71911
957.37339
957.40719
956.66054
954.45362
952.7817
941.29547
936.60234
931.4049
965.03117
964.61393
964.30932
961.09754
960.87043
960.99149
960.73486
957.41184
955.70801
951.22743
937.81722
936.68213
930.99275
964.5146
961.50712
959.7136
960.22985
960.50923
960.54223
960.38437
959.48997
957.60492
953.50346
948.56145
944.65051
935.13347
964.13684
960.12208
957.88256
957.61601
956.94766
957.11461
957.11537
956.60216
949.98303
950.39971
948.68961
947.42701
944.51058
964.29427
958.89285
957.9974
957.62213
957.0207
954.86115
953.75203
953.91001
951.12516
950.68177
950.04641
949.40467
947.59116
961.21259
959.70015
957.00512
958.19396
957.86917
957.92195
951.18833
951.74726
951.38874
950.49847
938.90546
934.74889
935.87237
)
;
        refGradient     uniform 0;
        valueFraction   nonuniform List<scalar> 
130
(
0.0075140686
0.0075140686
0.0075140686
0.0075140686
0.0075140686
0.0075140686
0.0075140686
0.0075140686
0.0075140686
0.0075140686
0.0075140686
0.0075140686
0.0075140686
0.0075140686
0.0075140686
0.0075140686
0.0075140686
0.0075140686
0.0075140686
0.0075140686
0.0075140686
0.0075140686
0.0075140686
0.0075140686
0.0075140686
0.0075140686
0.0075140686
0.0075140686
0.0075140686
0.0075140686
0.0075140686
0.0075140686
0.0075140686
0.0075140686
0.0075140686
0.0075140686
0.0075140686
0.0075140686
0.0075140686
0.0075140686
0.0075140686
0.0075140686
0.0075140686
0.0075140686
0.0075140686
0.0075140686
0.0075140686
0.0075140686
0.0075140686
0.0075140686
0.0075140686
0.0075140686
0.0075140686
0.0075140686
0.0075140686
0.0075140686
0.0075140686
0.0075140686
0.0075140686
0.0075140686
0.0075140686
0.0075140686
0.0075140686
0.0075140686
0.0075140686
0.0075140686
0.0075140686
0.0075140686
0.0075140686
0.0075140686
0.0075140686
0.0075140686
0.0075140686
0.0075140686
0.0075140686
0.0075140686
0.0075140686
0.0075140686
0.0075140686
0.0075140686
0.0075140686
0.0075140686
0.0075140686
0.0075140686
0.0075140686
0.0075140686
0.0075140686
0.0075140686
0.0075140686
0.0075140686
0.0075140686
0.0075140686
0.0075140686
0.0075140686
0.0075140686
0.0075140686
0.0075140686
0.0075140686
0.0075140686
0.0075140686
0.0075140686
0.0075140686
0.0075140686
0.0075140686
0.0075140686
0.0075140686
0.0075140686
0.0075140686
0.0075140686
0.0075140686
0.0075140686
0.0075140686
0.0075140686
0.0075140686
0.0075140686
0.0075140686
0.0075140686
0.0075140686
0.0075140686
0.0075140686
0.0075140686
0.0075140686
0.0075140686
0.0075140686
0.0075140686
0.0075140686
0.0075140686
0.0075140686
0.0075140686
0.0075140686
)
;
        value           nonuniform List<scalar> 
130
(
925.36728
925.31056
925.19741
925.02118
924.77984
924.45221
924.02672
923.67199
923.26869
922.89122
922.56897
922.34149
922.20433
925.44461
925.38612
925.26879
925.08678
924.83268
924.46339
924.08361
923.73884
923.31269
922.91561
922.63388
922.39825
922.25442
925.54467
925.48993
925.37347
925.18533
924.8825
924.49999
924.18326
923.84934
923.49785
923.11331
922.79506
922.54349
922.38207
925.62653
925.5754
925.46366
925.28271
924.98399
924.65792
924.36187
924.0472
923.71503
923.35085
922.99598
922.72117
922.51459
925.68819
925.63663
925.5321
925.36195
925.05651
924.7983
924.52753
924.22616
923.8879
923.53724
923.10295
922.80563
922.60872
925.73798
925.6846
925.58002
925.39728
925.20266
924.98456
924.73295
924.41921
924.09652
923.73103
923.29367
923.04316
922.84793
925.76972
925.68622
925.56992
925.44189
925.28192
925.09092
924.86829
924.60923
924.32099
924.00713
923.70161
923.45587
923.23559
925.79344
925.69558
925.57349
925.44357
925.28399
925.10838
924.9086
924.68157
924.3842
924.16242
923.94435
923.77215
923.64721
925.8119
925.6983
925.58844
925.46161
925.30767
925.11503
924.91398
924.71605
924.48566
924.2848
924.0991
923.953
923.85484
925.78151
925.70754
925.58378
925.47603
925.33265
925.16516
924.91041
924.72385
924.52856
924.3209
924.01214
923.81953
923.75317
)
;
        Tnbr            T;
        thicknessLayers List<scalar> 0();
        kappaLayers     List<scalar> 0();
        kappaMethod     solidThermo;
        kappa           none;
        alphaAni        none;
        alpha           none;
        field           T;
    }
    leftSolid_to_heater
    {
        type            compressible::turbulentTemperatureCoupledBaffleMixed;
        refValue        nonuniform List<scalar> 10(731.87795 722.69191 703.23281 671.41266 624.69466 624.7434 671.59994 703.66439 723.29355 732.53685);
        refGradient     uniform 0;
        valueFraction   nonuniform List<scalar> 10(2.08329e-05 2.08329e-05 2.08329e-05 2.08329e-05 2.08329e-05 2.08329e-05 2.08329e-05 2.08329e-05 2.08329e-05 2.08329e-05);
        value           nonuniform List<scalar> 10(922.11011 922.1572 922.27323 922.40579 922.53592 922.78006 923.14027 923.48467 923.67096 923.65743);
        Tnbr            T;
        thicknessLayers List<scalar> 1(0.001);
        kappaLayers     List<scalar> 1(0.0005);
        kappaMethod     solidThermo;
        kappa           none;
        alphaAni        none;
        alpha           none;
        field           T;
    }
    leftSolid_to_topAir
    {
        type            compressible::turbulentTemperatureCoupledBaffleMixed;
        refValue        nonuniform List<scalar> 
130
(
325.40676
348.89256
370.14506
389.7768
408.29529
425.9996
442.99
459.11154
474.0603
487.79303
500.17624
510.95956
519.58571
325.40303
348.63877
369.39877
388.29582
405.80049
422.15146
437.40266
451.48173
464.16484
475.08427
483.72033
489.43762
491.38523
325.40353
348.6843
369.50752
388.48397
406.09139
422.58359
438.07112
452.57318
466.00193
478.13586
488.55559
496.54313
500.83255
325.40689
348.7065
369.57216
388.62215
406.35452
423.05991
438.898
453.95481
468.24947
481.69614
494.00235
504.4679
511.80583
325.40878
348.71511
369.59309
388.66073
406.41719
423.15561
439.03846
454.14588
468.47983
481.90277
493.98275
503.7723
510.11032
325.411
348.71936
369.59942
388.66978
406.43156
423.17768
439.06961
454.19243
468.556
482.04097
494.26095
504.33044
510.90882
325.41325
348.71824
369.58903
388.64583
406.38889
423.10926
438.96756
454.04977
468.38014
481.88802
494.31599
505.02761
512.69965
325.41456
348.705
369.53774
388.52623
406.15124
422.66864
438.18731
452.72922
466.20897
478.41071
488.92997
497.08463
501.6302
325.41858
348.66778
369.44084
388.35327
405.87823
422.25764
437.54841
451.67478
464.41015
475.38431
484.07189
489.84771
491.9005
325.42476
348.92718
370.19607
389.8472
408.3911
426.12945
443.16394
459.33661
474.34046
488.12782
500.55773
511.37567
520.02491
)
;
        refGradient     uniform 0;
        valueFraction   nonuniform List<scalar> 
130
(
0.00032132529
0.00032132529
0.00032132529
0.00032132529
0.00032132529
0.00032132529
0.00032132529
0.00032132529
0.00032132529
0.00032132529
0.00032132529
0.00032132529
0.00032132529
0.00032132529
0.00032132529
0.00032132529
0.00032132529
0.00032132529
0.00032132529
0.00032132529
0.00032132529
0.00032132529
0.00032132529
0.00032132529
0.00032132529
0.00032132529
0.00032132529
0.00032132529
0.00032132529
0.00032132529
0.00032132529
0.00032132529
0.00032132529
0.00032132529
0.00032132529
0.00032132529
0.00032132529
0.00032132529
0.00032132529
0.00032132529
0.00032132529
0.00032132529
0.00032132529
0.00032132529
0.00032132529
0.00032132529
0.00032132529
0.00032132529
0.00032132529
0.00032132529
0.00032132529
0.00032132529
0.00032132529
0.00032132529
0.00032132529
0.00032132529
0.00032132529
0.00032132529
0.00032132529
0.00032132529
0.00032132529
0.00032132529
0.00032132529
0.00032132529
0.00032132529
0.00032132529
0.00032132529
0.00032132529
0.00032132529
0.00032132529
0.00032132529
0.00032132529
0.00032132529
0.00032132529
0.00032132529
0.00032132529
0.00032132529
0.00032132529
0.00032132529
0.00032132529
0.00032132529
0.00032132529
0.00032132529
0.00032132529
0.00032132529
0.00032132529
0.00032132529
0.00032132529
0.00032132529
0.00032132529
0.00032132529
0.00032132529
0.00032132529
0.00032132529
0.00032132529
0.00032132529
0.00032132529
0.00032132529
0.00032132529
0.00032132529
0.00032132529
0.00032132529
0.00032132529
0.00032132529
0.00032132529
0.00032132529
0.00032132529
0.00032132529
0.00032132529
0.00032132529
0.00032132529
0.00032132529
0.00032132529
0.00032132529
0.00032132529
0.00032132529
0.00032132529
0.00032132529
0.00032132529
0.00032132529
0.00032132529
0.00032132529
0.00032132529
0.00032132529
0.00032132529
0.00032132529
0.00032132529
0.00032132529
0.00032132529
0.00032132529
)
;
        value           nonuniform List<scalar> 
130
(
924.86741
924.82169
924.71727
924.54936
924.31445
924.00924
923.65403
923.30655
922.94528
922.6042
922.31102
922.10089
921.98473
924.9349
924.88772
924.77968
924.60516
924.35908
924.04141
923.70183
923.36088
922.99451
922.64898
922.36291
922.14666
922.02294
925.03223
924.98599
924.87655
924.69481
924.43029
924.11487
923.80256
923.48005
923.14446
922.80509
922.50736
922.27841
922.14237
925.12137
925.0775
924.97194
924.79584
924.54048
924.253
923.96199
923.65644
923.33426
922.99872
922.68156
922.43403
922.27908
925.1922
925.14972
925.0498
924.88359
924.64265
924.39056
924.12268
923.82964
923.51023
923.174
922.82737
922.56657
922.4096
925.24769
925.20457
925.10825
924.95462
924.76601
924.5508
924.30441
924.01841
923.7109
923.381
923.04589
922.80539
922.65392
925.28357
925.22972
925.13286
925.00611
924.84857
924.66131
924.44336
924.19403
923.92258
923.64182
923.37548
923.16101
923.01362
925.31032
925.24962
925.15029
925.02755
924.87753
924.70469
924.50845
924.28833
924.04323
923.82061
923.61728
923.45602
923.3537
925.32772
925.26165
925.16445
925.04562
924.90074
924.72831
924.53911
924.3431
924.1362
923.94077
923.76132
923.62088
923.53639
925.32044
925.26493
925.16751
925.0563
924.92029
924.75689
924.55673
924.36978
924.18061
923.98261
923.76336
923.60429
923.53172
)
;
        Tnbr            T;
        thicknessLayers List<scalar> 0();
        kappaLayers     List<scalar> 0();
        kappaMethod     solidThermo;
        kappa           none;
        alphaAni        none;
        alpha           none;
        field           T;
    }
}


// ************************************************************************* //
