/*--------------------------------*- C++ -*----------------------------------*\
| =========                 |                                                 |
| \\      /  F ield         | OpenFOAM: The Open Source CFD Toolbox           |
|  \\    /   O peration     | Version:  v2012                                 |
|   \\  /    A nd           | Website:  www.openfoam.com                      |
|    \\/     M anipulation  |                                                 |
\*---------------------------------------------------------------------------*/
FoamFile
{
    version     2.0;
    format      ascii;
    class       volScalarField;
    location    "530/leftSolid";
    object      T;
}
// * * * * * * * * * * * * * * * * * * * * * * * * * * * * * * * * * * * * * //

dimensions      [0 0 0 1 0 0 0];


internalField   nonuniform List<scalar> 
130
(
912.16772
912.12815
912.04003
911.89809
911.69793
911.43693
911.11988
910.79471
910.47283
910.15486
909.87177
909.65165
909.50657
912.21108
912.16973
912.07892
911.93335
911.73148
911.47448
911.17703
910.87329
910.5575
910.23308
909.93694
909.68853
909.52011
912.29075
912.24593
912.14717
911.98977
911.77487
911.51847
911.23527
910.92903
910.60152
910.27299
909.98455
909.75101
909.59578
912.40862
912.35985
912.2501
912.06834
911.83238
911.57322
911.28976
910.98423
910.6596
910.34357
910.05463
909.81027
909.65434
912.55544
912.50237
912.38215
912.18931
911.95105
911.68918
911.3956
911.0763
910.75097
910.42791
910.10459
909.78807
909.58905
912.7113
912.65377
912.52423
912.32678
912.08449
911.82121
911.52296
911.1944
910.86617
910.53916
910.21721
909.93581
909.75583
912.85939
912.79745
912.65843
912.452
912.20189
911.93293
911.63963
911.34111
911.03183
910.73807
910.47529
910.24499
910.08991
912.9668
912.90713
912.77369
912.58562
912.34516
912.09672
911.84057
911.59137
911.34803
911.11641
910.90875
910.7344
910.62638
913.04564
912.99139
912.87241
912.70744
912.50306
912.30425
912.10827
911.91377
911.73302
911.55096
911.37252
911.21737
911.12329
913.08621
913.03467
912.92132
912.77162
912.60663
912.4389
912.27023
912.10722
911.95018
911.7961
911.65235
911.53297
911.45829
)
;

boundaryField
{
    minX
    {
        type            zeroGradient;
    }
    minZ
    {
        type            zeroGradient;
    }
    maxZ
    {
        type            zeroGradient;
    }
    leftSolid_to_bottomWater
    {
        type            compressible::turbulentTemperatureCoupledBaffleMixed;
        refValue        nonuniform List<scalar> 
130
(
968.7982
968.71382
968.40349
968.14942
967.83193
966.96742
961.60962
959.37528
958.20979
954.42354
951.63666
950.89827
945.57843
969.37708
969.2037
969.00642
968.64748
968.29855
966.57817
963.4856
964.85568
964.48933
960.06243
957.96576
953.08255
943.86141
969.79724
969.68831
969.33098
968.91277
966.9377
964.68758
964.30573
963.55668
960.3661
955.71964
954.58001
953.62106
948.12223
970.72451
970.91288
971.07334
968.05403
963.29596
962.51554
962.03875
961.69608
958.17352
956.52879
955.63232
953.75295
950.38863
972.09833
972.46921
972.13062
968.71062
965.71103
965.52794
964.03843
961.12322
959.13618
957.7844
953.65572
936.43985
926.63034
973.16204
973.54708
972.3211
969.72929
966.65246
967.47829
966.19587
960.77364
958.45153
954.43626
945.62578
936.62303
928.55179
974.55595
974.74098
972.27276
967.78193
963.43944
961.92909
958.4388
957.40024
951.66694
947.06938
945.04892
939.01723
930.44511
973.41527
973.63028
970.50311
968.40167
961.4436
959.3349
956.44494
955.66395
954.59954
953.02135
952.3025
950.08542
947.61487
973.21551
973.17727
970.56119
968.27082
962.141
962.00767
962.46763
961.64741
964.91966
965.13288
962.45874
957.41322
954.65639
973.05422
972.78586
968.85787
965.61392
964.53922
964.43855
964.03078
964.85944
966.00186
966.43467
966.34743
965.50532
963.6925
)
;
        refGradient     uniform 0;
        valueFraction   nonuniform List<scalar> 
130
(
0.0075140686
0.0075140686
0.0075140686
0.0075140686
0.0075140686
0.0075140686
0.0075140686
0.0075140686
0.0075140686
0.0075140686
0.0075140686
0.0075140686
0.0075140686
0.0075140686
0.0075140686
0.0075140686
0.0075140686
0.0075140686
0.0075140686
0.0075140686
0.0075140686
0.0075140686
0.0075140686
0.0075140686
0.0075140686
0.0075140686
0.0075140686
0.0075140686
0.0075140686
0.0075140686
0.0075140686
0.0075140686
0.0075140686
0.0075140686
0.0075140686
0.0075140686
0.0075140686
0.0075140686
0.0075140686
0.0075140686
0.0075140686
0.0075140686
0.0075140686
0.0075140686
0.0075140686
0.0075140686
0.0075140686
0.0075140686
0.0075140686
0.0075140686
0.0075140686
0.0075140686
0.0075140686
0.0075140686
0.0075140686
0.0075140686
0.0075140686
0.0075140686
0.0075140686
0.0075140686
0.0075140686
0.0075140686
0.0075140686
0.0075140686
0.0075140686
0.0075140686
0.0075140686
0.0075140686
0.0075140686
0.0075140686
0.0075140686
0.0075140686
0.0075140686
0.0075140686
0.0075140686
0.0075140686
0.0075140686
0.0075140686
0.0075140686
0.0075140686
0.0075140686
0.0075140686
0.0075140686
0.0075140686
0.0075140686
0.0075140686
0.0075140686
0.0075140686
0.0075140686
0.0075140686
0.0075140686
0.0075140686
0.0075140686
0.0075140686
0.0075140686
0.0075140686
0.0075140686
0.0075140686
0.0075140686
0.0075140686
0.0075140686
0.0075140686
0.0075140686
0.0075140686
0.0075140686
0.0075140686
0.0075140686
0.0075140686
0.0075140686
0.0075140686
0.0075140686
0.0075140686
0.0075140686
0.0075140686
0.0075140686
0.0075140686
0.0075140686
0.0075140686
0.0075140686
0.0075140686
0.0075140686
0.0075140686
0.0075140686
0.0075140686
0.0075140686
0.0075140686
0.0075140686
0.0075140686
0.0075140686
0.0075140686
)
;
        value           nonuniform List<scalar> 
130
(
912.59122
912.55132
912.46152
912.31873
912.11767
911.85208
911.49707
911.15751
910.82927
910.48526
910.18335
909.95934
909.77536
912.6386
912.59626
912.50464
912.35747
912.15448
911.88645
911.56793
911.27672
910.96055
910.6053
910.29554
910.01227
909.7758
912.72082
912.67552
912.57481
912.41544
912.18731
911.91593
911.63197
911.32236
910.97332
910.61229
910.31741
910.07836
909.88293
912.84478
912.79778
912.69006
912.48696
912.21702
911.95393
911.669
911.36318
911.01453
910.68849
910.39498
910.13831
909.95821
913.00081
912.95093
912.82905
912.61193
912.35292
912.09164
911.78906
911.45024
911.11245
910.7817
910.42985
909.98645
909.71521
913.16352
913.10931
912.97152
912.75604
912.49245
912.23734
911.93165
911.56481
911.22163
910.86697
910.48139
910.13458
909.89536
913.321
913.26092
913.10439
912.86577
912.58492
912.30663
911.98926
911.68516
911.33515
911.00912
910.73322
910.4594
910.2411
913.41908
913.36147
913.20553
913.00312
912.71223
912.4498
912.17383
911.92063
911.6711
911.42938
911.2179
911.0282
910.90245
913.49583
913.44171
913.30398
913.12311
912.87426
912.67596
912.48493
912.28571
912.13085
911.95172
911.75454
911.56266
911.44857
913.53489
913.48174
913.33977
913.16689
912.9951
912.8279
912.65744
912.50185
912.35454
912.20481
912.06146
911.93664
911.8489
)
;
        Tnbr            T;
        thicknessLayers List<scalar> 0();
        kappaLayers     List<scalar> 0();
        kappaMethod     solidThermo;
        kappa           none;
        alphaAni        none;
        alpha           none;
        field           T;
    }
    leftSolid_to_heater
    {
        type            compressible::turbulentTemperatureCoupledBaffleMixed;
        refValue        nonuniform List<scalar> 10(734.18263 724.75685 705.00465 672.92508 626.08625 626.22821 673.39488 705.75617 725.62659 735.10409);
        refGradient     uniform 0;
        valueFraction   nonuniform List<scalar> 10(2.08329e-05 2.08329e-05 2.08329e-05 2.08329e-05 2.08329e-05 2.08329e-05 2.08329e-05 2.08329e-05 2.08329e-05 2.08329e-05);
        value           nonuniform List<scalar> 10(909.50064 909.51389 909.58916 909.64718 909.58124 909.74821 910.08321 910.62023 911.11758 911.45273);
        Tnbr            T;
        thicknessLayers List<scalar> 1(0.001);
        kappaLayers     List<scalar> 1(0.0005);
        kappaMethod     solidThermo;
        kappa           none;
        alphaAni        none;
        alpha           none;
        field           T;
    }
    leftSolid_to_topAir
    {
        type            compressible::turbulentTemperatureCoupledBaffleMixed;
        refValue        nonuniform List<scalar> 
130
(
324.88957
347.90452
368.73109
387.96609
406.10617
423.44744
440.09889
455.91917
470.59364
484.08237
496.25549
506.8695
515.38969
324.88506
347.65323
367.99531
386.50844
403.65296
419.66572
434.60548
448.40399
460.84654
471.58572
480.11714
485.81827
487.86296
324.88508
347.69734
368.1012
386.692
403.9378
420.08879
435.252
449.45089
462.60506
474.50163
484.73763
492.62259
496.92824
324.88961
347.72114
368.16636
386.82698
404.19012
420.54084
436.03707
450.76328
464.73882
477.88906
489.94179
500.23998
507.53603
324.89471
347.73576
368.19546
386.87529
404.26397
420.64832
436.18655
450.96197
464.98257
478.11952
489.96597
499.62072
505.97071
324.90103
347.74786
368.21272
386.89756
404.29156
420.68269
436.2322
451.02797
465.09227
478.33841
490.45839
500.70704
507.74919
324.90787
347.75606
368.216
386.89042
404.26769
420.63411
436.14941
450.90469
464.93459
478.1941
490.48916
501.31344
509.49003
324.91244
347.74976
368.17582
386.78705
404.05221
420.22307
435.41065
449.6392
462.83603
474.8094
485.20524
493.43652
498.41025
324.91881
347.71811
368.0885
386.62882
403.80123
419.84436
434.81511
448.64644
461.12367
471.89749
480.48131
486.30926
488.66158
324.9267
347.97616
368.8345
388.10062
406.27351
423.65046
440.33412
456.17511
470.86968
484.37607
496.56598
507.20407
515.77841
)
;
        refGradient     uniform 0;
        valueFraction   nonuniform List<scalar> 
130
(
0.00032132529
0.00032132529
0.00032132529
0.00032132529
0.00032132529
0.00032132529
0.00032132529
0.00032132529
0.00032132529
0.00032132529
0.00032132529
0.00032132529
0.00032132529
0.00032132529
0.00032132529
0.00032132529
0.00032132529
0.00032132529
0.00032132529
0.00032132529
0.00032132529
0.00032132529
0.00032132529
0.00032132529
0.00032132529
0.00032132529
0.00032132529
0.00032132529
0.00032132529
0.00032132529
0.00032132529
0.00032132529
0.00032132529
0.00032132529
0.00032132529
0.00032132529
0.00032132529
0.00032132529
0.00032132529
0.00032132529
0.00032132529
0.00032132529
0.00032132529
0.00032132529
0.00032132529
0.00032132529
0.00032132529
0.00032132529
0.00032132529
0.00032132529
0.00032132529
0.00032132529
0.00032132529
0.00032132529
0.00032132529
0.00032132529
0.00032132529
0.00032132529
0.00032132529
0.00032132529
0.00032132529
0.00032132529
0.00032132529
0.00032132529
0.00032132529
0.00032132529
0.00032132529
0.00032132529
0.00032132529
0.00032132529
0.00032132529
0.00032132529
0.00032132529
0.00032132529
0.00032132529
0.00032132529
0.00032132529
0.00032132529
0.00032132529
0.00032132529
0.00032132529
0.00032132529
0.00032132529
0.00032132529
0.00032132529
0.00032132529
0.00032132529
0.00032132529
0.00032132529
0.00032132529
0.00032132529
0.00032132529
0.00032132529
0.00032132529
0.00032132529
0.00032132529
0.00032132529
0.00032132529
0.00032132529
0.00032132529
0.00032132529
0.00032132529
0.00032132529
0.00032132529
0.00032132529
0.00032132529
0.00032132529
0.00032132529
0.00032132529
0.00032132529
0.00032132529
0.00032132529
0.00032132529
0.00032132529
0.00032132529
0.00032132529
0.00032132529
0.00032132529
0.00032132529
0.00032132529
0.00032132529
0.00032132529
0.00032132529
0.00032132529
0.00032132529
0.00032132529
0.00032132529
0.00032132529
0.00032132529
0.00032132529
)
;
        value           nonuniform List<scalar> 
130
(
911.97697
911.94482
911.86341
911.72769
911.5334
911.278
910.96632
910.64629
910.32921
910.0157
909.7366
909.51997
909.37765
912.02032
911.98629
911.90204
911.76247
911.56616
911.31435
911.02173
910.72247
910.41078
910.08992
909.79652
909.54998
909.38225
912.09995
912.06248
911.9703
911.81891
911.60962
911.35849
911.08023
910.77862
910.45542
910.13076
909.84566
909.61467
909.46083
912.21779
912.17636
912.07321
911.89749
911.66719
911.41335
911.13494
910.83423
910.5142
910.20248
909.9175
909.6765
909.5229
912.36456
912.31885
912.20522
912.01842
911.78582
911.5293
911.24079
910.92632
910.60563
910.28693
909.96759
909.65437
909.45745
912.52039
912.47022
912.34729
912.15587
911.91924
911.6613
911.3681
911.04439
910.72081
910.39824
910.08044
909.80254
909.62494
912.66847
912.6139
912.48148
912.28112
912.03669
911.77307
911.48481
911.19111
910.88645
910.59712
910.33847
910.11179
909.95942
912.77589
912.72358
912.59674
912.41475
912.17996
911.93678
911.68557
911.44101
911.20197
910.97429
910.77006
910.59841
910.49205
912.85472
912.80782
912.69544
912.53654
912.33781
912.14424
911.95315
911.76313
911.58639
911.40782
911.2322
911.07899
910.9857
912.89528
912.85119
912.74462
912.60123
912.44217
912.2801
912.11685
911.95895
911.80664
911.6569
911.51708
911.40115
911.32926
)
;
        Tnbr            T;
        thicknessLayers List<scalar> 0();
        kappaLayers     List<scalar> 0();
        kappaMethod     solidThermo;
        kappa           none;
        alphaAni        none;
        alpha           none;
        field           T;
    }
}


// ************************************************************************* //
