/*--------------------------------*- C++ -*----------------------------------*\
| =========                 |                                                 |
| \\      /  F ield         | OpenFOAM: The Open Source CFD Toolbox           |
|  \\    /   O peration     | Version:  v2012                                 |
|   \\  /    A nd           | Website:  www.openfoam.com                      |
|    \\/     M anipulation  |                                                 |
\*---------------------------------------------------------------------------*/
FoamFile
{
    version     2.0;
    format      ascii;
    class       volScalarField;
    location    "70/leftSolid";
    object      T;
}
// * * * * * * * * * * * * * * * * * * * * * * * * * * * * * * * * * * * * * //

dimensions      [0 0 0 1 0 0 0];


internalField   nonuniform List<scalar> 
130
(
525.93038
525.97801
526.0313
526.08768
526.11929
526.10862
526.03589
525.9286
525.83763
525.75645
525.68596
525.61833
525.57338
526.15178
526.15163
526.16539
526.19475
526.21023
526.18154
526.0881
525.96162
525.85414
525.75209
525.64931
525.54611
525.4741
526.2136
526.24326
526.2689
526.28674
526.28265
526.22529
526.11203
525.95674
525.81459
525.67795
525.52427
525.37132
525.25226
526.21793
526.25014
526.28351
526.30042
526.28549
526.20892
526.07471
525.89549
525.70269
525.51377
525.30147
525.0767
524.87933
526.18615
526.21734
526.25281
526.27435
526.25909
526.17994
526.03253
525.83366
525.59566
525.35508
525.09326
524.80968
524.5287
526.18599
526.21716
526.2526
526.27415
526.2589
526.17976
526.03233
525.83346
525.59544
525.35492
525.09315
524.80967
524.52922
526.21776
526.24993
526.28324
526.30013
526.2852
526.20875
526.07453
525.89529
525.70247
525.51355
525.30121
525.07653
524.87964
526.21355
526.24321
526.26885
526.28662
526.28251
526.22521
526.11197
525.95666
525.81441
525.67772
525.52393
525.37105
525.25217
526.15173
526.15161
526.16536
526.19469
526.21016
526.18151
526.08808
525.96153
525.85393
525.75182
525.64896
525.54579
525.47388
525.93019
525.97796
526.03128
526.08764
526.11925
526.10861
526.03587
525.92851
525.83744
525.75619
525.68564
525.61797
525.57305
)
;

boundaryField
{
    minX
    {
        type            zeroGradient;
    }
    minZ
    {
        type            zeroGradient;
    }
    maxZ
    {
        type            zeroGradient;
    }
    leftSolid_to_bottomWater
    {
        type            compressible::turbulentTemperatureCoupledBaffleMixed;
        refValue        nonuniform List<scalar> 
130
(
1013.2625
1019.442
1020.535
1024.4557
1027.2577
1029.3376
1026.7685
1021.5863
1021.7346
1021.6032
1023.2986
1022.5087
1021.4859
1035.7695
1030.9132
1027.4639
1028.9134
1031.8124
1033.7018
1030.04
1024.6584
1025.8898
1026.2112
1026.2941
1023.4246
1020.2385
1028.7277
1032.4522
1031.9744
1032.1564
1034.1778
1033.5437
1031.9918
1026.1002
1026.8419
1028.894
1026.7333
1024.1274
1017.3329
1027.3253
1029.7796
1030.8072
1031.2791
1033.1262
1031.0469
1028.9748
1025.0264
1023.1187
1025.5185
1023.6843
1019.1651
1003.4813
1024.247
1026.1862
1027.2888
1028.923
1030.8227
1030.648
1027.7285
1024.8173
1019.0427
1018.7079
1016.6427
1012.1403
982.85136
1024.2305
1026.1667
1027.2664
1028.909
1030.8098
1030.6336
1027.7076
1024.7952
1019.0171
1018.7008
1016.6374
1012.0956
982.92566
1027.3178
1029.7647
1030.7825
1031.2529
1033.0996
1031.0489
1028.9612
1025.0086
1023.1086
1025.5183
1023.6588
1019.1125
1003.5266
1028.7296
1032.4557
1031.9835
1032.1513
1034.1663
1033.5455
1031.9973
1026.1102
1026.8394
1028.8957
1026.7051
1024.1019
1017.3312
1035.7659
1030.9151
1027.4613
1028.9072
1031.8056
1033.7052
1030.0474
1024.6618
1025.8773
1026.2055
1026.2713
1023.408
1020.2375
1013.2482
1019.4387
1020.5336
1024.4497
1027.2519
1029.3396
1026.773
1021.5901
1021.7267
1021.5965
1023.288
1022.4878
1021.4556
)
;
        refGradient     uniform 0;
        valueFraction   nonuniform List<scalar> 
130
(
0.0075140686
0.0075140686
0.0075140686
0.0075140686
0.0075140686
0.0075140686
0.0075140686
0.0075140686
0.0075140686
0.0075140686
0.0075140686
0.0075140686
0.0075140686
0.0075140686
0.0075140686
0.0075140686
0.0075140686
0.0075140686
0.0075140686
0.0075140686
0.0075140686
0.0075140686
0.0075140686
0.0075140686
0.0075140686
0.0075140686
0.0075140686
0.0075140686
0.0075140686
0.0075140686
0.0075140686
0.0075140686
0.0075140686
0.0075140686
0.0075140686
0.0075140686
0.0075140686
0.0075140686
0.0075140686
0.0075140686
0.0075140686
0.0075140686
0.0075140686
0.0075140686
0.0075140686
0.0075140686
0.0075140686
0.0075140686
0.0075140686
0.0075140686
0.0075140686
0.0075140686
0.0075140686
0.0075140686
0.0075140686
0.0075140686
0.0075140686
0.0075140686
0.0075140686
0.0075140686
0.0075140686
0.0075140686
0.0075140686
0.0075140686
0.0075140686
0.0075140686
0.0075140686
0.0075140686
0.0075140686
0.0075140686
0.0075140686
0.0075140686
0.0075140686
0.0075140686
0.0075140686
0.0075140686
0.0075140686
0.0075140686
0.0075140686
0.0075140686
0.0075140686
0.0075140686
0.0075140686
0.0075140686
0.0075140686
0.0075140686
0.0075140686
0.0075140686
0.0075140686
0.0075140686
0.0075140686
0.0075140686
0.0075140686
0.0075140686
0.0075140686
0.0075140686
0.0075140686
0.0075140686
0.0075140686
0.0075140686
0.0075140686
0.0075140686
0.0075140686
0.0075140686
0.0075140686
0.0075140686
0.0075140686
0.0075140686
0.0075140686
0.0075140686
0.0075140686
0.0075140686
0.0075140686
0.0075140686
0.0075140686
0.0075140686
0.0075140686
0.0075140686
0.0075140686
0.0075140686
0.0075140686
0.0075140686
0.0075140686
0.0075140686
0.0075140686
0.0075140686
0.0075140686
0.0075140686
0.0075140686
0.0075140686
)
;
        value           nonuniform List<scalar> 
130
(
529.54919
529.64286
529.70401
529.7894
529.84177
529.84683
529.75538
529.61002
529.52092
529.43942
529.38221
529.30917
529.25686
529.93792
529.90127
529.88908
529.92915
529.96628
529.95202
529.83179
529.66586
529.56849
529.46967
529.36832
529.24435
529.14894
529.94636
530.00381
530.02573
530.04483
530.05599
529.99431
529.87023
529.67185
529.53636
529.41621
529.24749
529.07612
528.90688
529.94014
529.99058
530.03147
530.05184
530.05092
529.95936
529.81061
529.60309
529.39737
529.22788
529.0034
528.74633
528.43254
529.88549
529.93104
529.97457
530.00826
530.00743
529.92757
529.75936
529.54015
529.26053
529.0192
528.74379
528.42843
527.92938
529.88521
529.93071
529.97419
530.00796
530.00714
529.92728
529.75901
529.53979
529.26013
529.01898
528.74364
528.42809
527.93045
529.93992
529.99026
530.03102
530.05135
530.05044
529.95921
529.81032
529.60276
529.39707
529.22766
529.00294
528.74576
528.43318
529.94633
530.00379
530.02575
530.04468
530.05578
529.99426
529.87022
529.67184
529.53616
529.416
529.24695
529.07566
528.90678
529.93784
529.90127
529.88902
529.92904
529.96616
529.95202
529.83183
529.6658
529.56819
529.46936
529.3678
529.24391
529.14872
529.5489
529.64279
529.70398
529.78932
529.84168
529.84683
529.7554
529.60997
529.52067
529.43912
529.38181
529.30866
529.25631
)
;
        Tnbr            T;
        thicknessLayers List<scalar> 0();
        kappaLayers     List<scalar> 0();
        kappaMethod     solidThermo;
        kappa           none;
        alphaAni        none;
        alpha           none;
        field           T;
    }
    leftSolid_to_heater
    {
        type            compressible::turbulentTemperatureCoupledBaffleMixed;
        refValue        nonuniform List<scalar> 10(510.60506 507.35917 500.29175 488.23399 469.86739 469.86791 488.23484 500.29208 507.35903 510.60466);
        refGradient     uniform 0;
        valueFraction   nonuniform List<scalar> 10(2.08329e-05 2.08329e-05 2.08329e-05 2.08329e-05 2.08329e-05 2.08329e-05 2.08329e-05 2.08329e-05 2.08329e-05 2.08329e-05);
        value           nonuniform List<scalar> 10(525.5299 525.43055 525.20851 524.8352 524.48405 524.48457 524.83551 525.20842 525.43033 525.52958);
        Tnbr            T;
        thicknessLayers List<scalar> 1(0.001);
        kappaLayers     List<scalar> 1(0.0005);
        kappaMethod     solidThermo;
        kappa           none;
        alphaAni        none;
        alpha           none;
        field           T;
    }
    leftSolid_to_topAir
    {
        type            compressible::turbulentTemperatureCoupledBaffleMixed;
        refValue        nonuniform List<scalar> 
130
(
309.33906
318.18861
326.3016
333.8061
340.83161
347.47201
353.79503
359.84092
365.57597
370.91489
375.85929
380.39451
384.47299
309.34642
318.10319
326.03266
333.26905
339.93804
346.11689
351.85264
357.16973
362.0666
366.51617
370.46757
373.84378
376.54437
309.34902
318.12897
326.0856
333.35074
340.05337
346.27566
352.07072
357.47084
362.49165
367.13629
371.39257
375.23256
378.60057
309.34941
318.13565
326.10661
333.39459
340.13084
346.40356
352.27606
357.79656
363.00421
367.93252
372.61108
377.0702
381.30546
309.34804
318.13514
326.10966
333.40348
340.14793
346.4321
352.32058
357.86368
363.10267
368.07456
372.81309
377.34528
381.59449
309.34803
318.13513
326.10964
333.40345
340.14789
346.43205
352.32052
357.86359
363.10256
368.07443
372.81292
377.3451
381.59435
309.3494
318.13563
326.10659
333.39455
340.13079
346.4035
352.27599
357.79647
363.0041
367.93239
372.61092
377.07
381.30523
309.34902
318.12897
326.0856
333.35073
340.05336
346.27565
352.07071
357.47083
362.49164
367.13628
371.39255
375.23255
378.60057
309.34642
318.10319
326.03266
333.26904
339.93803
346.11688
351.85264
357.16973
362.0666
366.51617
370.46757
373.84379
376.54438
309.33905
318.1886
326.30159
333.80609
340.8316
347.472
353.79502
359.8409
365.57595
370.91486
375.85925
380.39445
384.47293
)
;
        refGradient     uniform 0;
        valueFraction   nonuniform List<scalar> 
130
(
0.00032132529
0.00032132529
0.00032132529
0.00032132529
0.00032132529
0.00032132529
0.00032132529
0.00032132529
0.00032132529
0.00032132529
0.00032132529
0.00032132529
0.00032132529
0.00032132529
0.00032132529
0.00032132529
0.00032132529
0.00032132529
0.00032132529
0.00032132529
0.00032132529
0.00032132529
0.00032132529
0.00032132529
0.00032132529
0.00032132529
0.00032132529
0.00032132529
0.00032132529
0.00032132529
0.00032132529
0.00032132529
0.00032132529
0.00032132529
0.00032132529
0.00032132529
0.00032132529
0.00032132529
0.00032132529
0.00032132529
0.00032132529
0.00032132529
0.00032132529
0.00032132529
0.00032132529
0.00032132529
0.00032132529
0.00032132529
0.00032132529
0.00032132529
0.00032132529
0.00032132529
0.00032132529
0.00032132529
0.00032132529
0.00032132529
0.00032132529
0.00032132529
0.00032132529
0.00032132529
0.00032132529
0.00032132529
0.00032132529
0.00032132529
0.00032132529
0.00032132529
0.00032132529
0.00032132529
0.00032132529
0.00032132529
0.00032132529
0.00032132529
0.00032132529
0.00032132529
0.00032132529
0.00032132529
0.00032132529
0.00032132529
0.00032132529
0.00032132529
0.00032132529
0.00032132529
0.00032132529
0.00032132529
0.00032132529
0.00032132529
0.00032132529
0.00032132529
0.00032132529
0.00032132529
0.00032132529
0.00032132529
0.00032132529
0.00032132529
0.00032132529
0.00032132529
0.00032132529
0.00032132529
0.00032132529
0.00032132529
0.00032132529
0.00032132529
0.00032132529
0.00032132529
0.00032132529
0.00032132529
0.00032132529
0.00032132529
0.00032132529
0.00032132529
0.00032132529
0.00032132529
0.00032132529
0.00032132529
0.00032132529
0.00032132529
0.00032132529
0.00032132529
0.00032132529
0.00032132529
0.00032132529
0.00032132529
0.00032132529
0.00032132529
0.00032132529
0.00032132529
0.00032132529
0.00032132529
0.00032132529
0.00032132529
)
;
        value           nonuniform List<scalar> 
130
(
525.81743
525.86786
525.92378
525.98253
526.01633
526.00782
525.93719
525.83193
525.74291
525.66353
525.59466
525.52853
525.48489
526.03864
526.04129
526.05766
526.08938
526.10698
526.08031
525.98876
525.86407
525.75825
525.65771
525.55627
525.4542
525.38308
526.10044
526.13294
526.16119
526.18139
526.17948
526.12415
526.01278
525.85929
525.71881
525.58376
525.43153
525.27987
525.16192
526.10478
526.13984
526.17581
526.1951
526.18236
526.10789
525.97563
525.79826
525.60716
525.41986
525.20914
524.98584
524.78984
526.07304
526.10707
526.14512
526.16904
526.15599
526.0789
525.93345
525.73647
525.50021
525.26126
525.00101
524.7189
524.43927
526.07288
526.10688
526.14492
526.16885
526.1558
526.07871
525.93325
525.73627
525.5
525.2611
525.0009
524.7189
524.43979
526.10462
526.13963
526.17554
526.19481
526.18208
526.10771
525.97544
525.79806
525.60694
525.41964
525.20887
524.98567
524.79015
526.10039
526.13289
526.16113
526.18128
526.17935
526.12408
526.01273
525.8592
525.71864
525.58353
525.4312
525.2796
525.16183
526.03859
526.04128
526.05763
526.08932
526.10692
526.08028
525.98874
525.86398
525.75804
525.65744
525.55592
525.45389
525.38286
525.81725
525.86781
525.92376
525.98249
526.01628
526.0078
525.93717
525.83185
525.74272
525.66327
525.59434
525.52817
525.48456
)
;
        Tnbr            T;
        thicknessLayers List<scalar> 0();
        kappaLayers     List<scalar> 0();
        kappaMethod     solidThermo;
        kappa           none;
        alphaAni        none;
        alpha           none;
        field           T;
    }
}


// ************************************************************************* //
