/*--------------------------------*- C++ -*----------------------------------*\
| =========                 |                                                 |
| \\      /  F ield         | OpenFOAM: The Open Source CFD Toolbox           |
|  \\    /   O peration     | Version:  v2012                                 |
|   \\  /    A nd           | Website:  www.openfoam.com                      |
|    \\/     M anipulation  |                                                 |
\*---------------------------------------------------------------------------*/
FoamFile
{
    version     2.0;
    format      ascii;
    class       volScalarField;
    location    "620/leftSolid";
    object      T;
}
// * * * * * * * * * * * * * * * * * * * * * * * * * * * * * * * * * * * * * //

dimensions      [0 0 0 1 0 0 0];


internalField   nonuniform List<scalar> 
130
(
921.36864
921.33225
921.24816
921.10483
920.90108
920.67831
920.43677
920.16987
919.87193
919.60624
919.39615
919.2294
919.10387
921.37313
921.33831
921.2592
921.12838
920.9476
920.72072
920.47728
920.22285
919.95078
919.7025
919.48765
919.29895
919.12642
921.43936
921.40226
921.31966
921.18833
921.01935
920.81225
920.5786
920.33211
920.07614
919.83774
919.60796
919.38547
919.18477
921.59526
921.54384
921.43978
921.29876
921.13102
920.9318
920.71025
920.47315
920.2011
919.92791
919.66132
919.40451
919.21302
921.74359
921.69737
921.59953
921.4531
921.27143
921.06769
920.8394
920.57436
920.26252
919.93988
919.62065
919.33756
919.15089
921.84084
921.79771
921.70604
921.56368
921.37282
921.14205
920.88423
920.59413
920.25474
919.8947
919.53539
919.22535
919.03128
921.88914
921.84365
921.74614
921.59355
921.38237
921.11994
920.84749
920.54269
920.19513
919.81504
919.41198
919.08695
918.90753
921.89259
921.84272
921.73805
921.57315
921.34308
921.0604
920.77271
920.46863
920.13852
919.78854
919.41415
919.08482
918.89372
921.88228
921.83057
921.71813
921.53518
921.302
921.03846
920.75158
920.44963
920.12793
919.79296
919.44846
919.14782
918.9638
921.88179
921.83076
921.7197
921.54332
921.2992
921.03746
920.76075
920.46591
920.14234
919.81976
919.5066
919.23119
919.04564
)
;

boundaryField
{
    minX
    {
        type            zeroGradient;
    }
    minZ
    {
        type            zeroGradient;
    }
    maxZ
    {
        type            zeroGradient;
    }
    leftSolid_to_bottomWater
    {
        type            compressible::turbulentTemperatureCoupledBaffleMixed;
        refValue        nonuniform List<scalar> 
130
(
959.22592
959.16811
958.99724
957.39879
951.76382
950.86676
950.83249
950.91126
944.2913
939.48907
939.48457
939.27117
932.37751
957.27302
957.39703
957.60764
957.10834
956.05951
950.79631
948.77207
949.10621
945.52658
943.89558
944.01361
944.38621
927.87411
957.54099
957.67947
957.51555
955.80565
955.29564
953.41146
950.34986
949.14295
946.86675
948.87296
949.14884
946.84033
927.63129
964.53587
962.53958
958.17436
955.4587
955.48949
953.73572
952.12871
954.26618
951.20297
950.13963
949.66557
943.40624
931.86369
965.59377
964.99971
963.3914
960.34455
957.74288
957.77404
958.81385
958.52085
953.23206
949.96526
944.97902
939.15587
931.33406
965.31315
964.96547
964.5857
963.91776
962.63032
961.02822
960.23786
960.31095
955.38493
951.06933
945.33303
938.13969
930.1005
965.72079
965.41389
964.80218
964.3455
962.84337
958.77441
960.86767
960.26281
956.70614
951.94982
938.25207
931.00696
929.64538
965.18623
964.57996
964.19871
963.98211
960.91431
955.14326
955.68356
956.25558
955.12328
955.3399
948.44661
938.26941
932.95316
964.58708
964.4312
964.22488
960.62307
958.43151
958.34847
956.77432
956.46122
955.88112
955.37557
950.0786
943.40793
938.19868
964.98933
964.96825
964.76969
964.59746
958.6652
958.02525
958.29453
959.19086
955.91876
955.40472
953.95595
950.15616
941.96488
)
;
        refGradient     uniform 0;
        valueFraction   nonuniform List<scalar> 
130
(
0.0075140686
0.0075140686
0.0075140686
0.0075140686
0.0075140686
0.0075140686
0.0075140686
0.0075140686
0.0075140686
0.0075140686
0.0075140686
0.0075140686
0.0075140686
0.0075140686
0.0075140686
0.0075140686
0.0075140686
0.0075140686
0.0075140686
0.0075140686
0.0075140686
0.0075140686
0.0075140686
0.0075140686
0.0075140686
0.0075140686
0.0075140686
0.0075140686
0.0075140686
0.0075140686
0.0075140686
0.0075140686
0.0075140686
0.0075140686
0.0075140686
0.0075140686
0.0075140686
0.0075140686
0.0075140686
0.0075140686
0.0075140686
0.0075140686
0.0075140686
0.0075140686
0.0075140686
0.0075140686
0.0075140686
0.0075140686
0.0075140686
0.0075140686
0.0075140686
0.0075140686
0.0075140686
0.0075140686
0.0075140686
0.0075140686
0.0075140686
0.0075140686
0.0075140686
0.0075140686
0.0075140686
0.0075140686
0.0075140686
0.0075140686
0.0075140686
0.0075140686
0.0075140686
0.0075140686
0.0075140686
0.0075140686
0.0075140686
0.0075140686
0.0075140686
0.0075140686
0.0075140686
0.0075140686
0.0075140686
0.0075140686
0.0075140686
0.0075140686
0.0075140686
0.0075140686
0.0075140686
0.0075140686
0.0075140686
0.0075140686
0.0075140686
0.0075140686
0.0075140686
0.0075140686
0.0075140686
0.0075140686
0.0075140686
0.0075140686
0.0075140686
0.0075140686
0.0075140686
0.0075140686
0.0075140686
0.0075140686
0.0075140686
0.0075140686
0.0075140686
0.0075140686
0.0075140686
0.0075140686
0.0075140686
0.0075140686
0.0075140686
0.0075140686
0.0075140686
0.0075140686
0.0075140686
0.0075140686
0.0075140686
0.0075140686
0.0075140686
0.0075140686
0.0075140686
0.0075140686
0.0075140686
0.0075140686
0.0075140686
0.0075140686
0.0075140686
0.0075140686
0.0075140686
0.0075140686
0.0075140686
0.0075140686
)
;
        value           nonuniform List<scalar> 
130
(
921.65249
921.61593
921.5312
921.37694
921.13237
920.90453
920.66453
920.40015
920.05461
919.7549
919.5464
919.37935
919.20304
921.64222
921.60858
921.53165
921.39805
921.21076
920.94607
920.68926
920.43923
920.14225
919.88361
919.67128
919.48685
919.19163
921.70988
921.67412
921.59092
921.44773
921.2762
921.05652
920.80167
920.54796
920.27683
920.0553
919.82932
919.59118
919.24771
921.91708
921.85106
921.71504
921.55471
921.38847
921.1776
920.9457
920.72647
920.43344
920.15433
919.88617
919.58426
919.30748
922.07228
922.02195
921.91278
921.74459
921.54475
921.34279
921.12404
920.85881
920.5096
920.16486
919.8106
919.48584
919.24183
922.16669
922.12127
922.02744
921.88115
921.68205
921.44095
921.1791
920.89175
920.51792
920.12819
919.72851
919.36671
919.11372
922.21767
922.17022
922.06883
921.91395
921.69306
921.40194
921.1472
920.84015
920.4685
920.05558
919.55263
919.17556
918.98724
922.21705
922.16299
922.05624
921.89095
921.63957
921.31555
921.03401
920.73646
920.40033
920.05461
919.63119
919.2278
918.99818
922.2023
922.1498
922.03664
921.82796
921.58005
921.31781
921.02122
920.71916
920.39548
920.0592
919.67744
919.32889
919.10708
922.20483
922.15401
922.04228
921.86591
921.57902
921.3144
921.04175
920.75583
920.41006
920.086
919.76424
919.4623
919.21653
)
;
        Tnbr            T;
        thicknessLayers List<scalar> 0();
        kappaLayers     List<scalar> 0();
        kappaMethod     solidThermo;
        kappa           none;
        alphaAni        none;
        alpha           none;
        field           T;
    }
    leftSolid_to_heater
    {
        type            compressible::turbulentTemperatureCoupledBaffleMixed;
        refValue        nonuniform List<scalar> 10(733.18872 723.89671 704.29918 672.34532 625.50641 625.51311 672.4214 704.46457 724.15822 733.51594);
        refGradient     uniform 0;
        valueFraction   nonuniform List<scalar> 10(2.08329e-05 2.08329e-05 2.08329e-05 2.08329e-05 2.08329e-05 2.08329e-05 2.08329e-05 2.08329e-05 2.08329e-05 2.08329e-05);
        value           nonuniform List<scalar> 10(919.09942 919.12183 919.17977 919.20728 919.14416 919.02442 918.90142 918.88806 918.95848 919.04044);
        Tnbr            T;
        thicknessLayers List<scalar> 1(0.001);
        kappaLayers     List<scalar> 1(0.0005);
        kappaMethod     solidThermo;
        kappa           none;
        alphaAni        none;
        alpha           none;
        field           T;
    }
    leftSolid_to_topAir
    {
        type            compressible::turbulentTemperatureCoupledBaffleMixed;
        refValue        nonuniform List<scalar> 
130
(
325.25816
348.60997
369.74202
389.26263
407.67686
425.28472
442.18762
458.2294
473.10596
486.77439
499.10187
509.83876
518.43444
325.25189
348.35196
368.99119
387.77833
405.18191
421.44047
436.60833
450.61412
463.23581
474.10849
482.71653
488.43275
490.42259
325.25114
348.39482
369.09548
387.96005
405.46497
421.86309
437.26364
451.6859
465.04396
477.12096
487.50385
495.48669
499.81958
325.2572
348.42177
369.16589
388.10444
405.73431
422.34446
438.09311
453.06686
467.28565
480.66841
492.93259
503.39463
510.76607
325.2623
348.43705
369.19733
388.15727
405.81456
422.46034
438.2568
453.28483
467.54883
480.91887
492.98068
502.80912
509.20109
325.26622
348.44491
369.20944
388.17414
405.83651
422.48725
438.28715
453.32057
467.59531
480.98702
493.10059
503.03747
509.50154
325.26896
348.44519
369.20118
388.15158
405.79232
422.41171
438.17009
453.15247
467.37869
480.77466
493.07118
503.61503
511.08867
325.2693
348.43021
369.1473
388.02785
405.54799
421.96064
437.37417
451.8111
465.18633
477.28094
487.68651
495.71488
500.12411
325.27212
348.39071
369.04672
387.84881
405.26579
421.53779
436.72152
450.7412
463.37247
474.25035
482.85451
488.5604
490.55411
325.2785
348.64934
369.79898
389.33619
407.76625
425.38939
442.30945
458.37256
473.26955
486.9554
499.2929
510.02911
518.61325
)
;
        refGradient     uniform 0;
        valueFraction   nonuniform List<scalar> 
130
(
0.00032132529
0.00032132529
0.00032132529
0.00032132529
0.00032132529
0.00032132529
0.00032132529
0.00032132529
0.00032132529
0.00032132529
0.00032132529
0.00032132529
0.00032132529
0.00032132529
0.00032132529
0.00032132529
0.00032132529
0.00032132529
0.00032132529
0.00032132529
0.00032132529
0.00032132529
0.00032132529
0.00032132529
0.00032132529
0.00032132529
0.00032132529
0.00032132529
0.00032132529
0.00032132529
0.00032132529
0.00032132529
0.00032132529
0.00032132529
0.00032132529
0.00032132529
0.00032132529
0.00032132529
0.00032132529
0.00032132529
0.00032132529
0.00032132529
0.00032132529
0.00032132529
0.00032132529
0.00032132529
0.00032132529
0.00032132529
0.00032132529
0.00032132529
0.00032132529
0.00032132529
0.00032132529
0.00032132529
0.00032132529
0.00032132529
0.00032132529
0.00032132529
0.00032132529
0.00032132529
0.00032132529
0.00032132529
0.00032132529
0.00032132529
0.00032132529
0.00032132529
0.00032132529
0.00032132529
0.00032132529
0.00032132529
0.00032132529
0.00032132529
0.00032132529
0.00032132529
0.00032132529
0.00032132529
0.00032132529
0.00032132529
0.00032132529
0.00032132529
0.00032132529
0.00032132529
0.00032132529
0.00032132529
0.00032132529
0.00032132529
0.00032132529
0.00032132529
0.00032132529
0.00032132529
0.00032132529
0.00032132529
0.00032132529
0.00032132529
0.00032132529
0.00032132529
0.00032132529
0.00032132529
0.00032132529
0.00032132529
0.00032132529
0.00032132529
0.00032132529
0.00032132529
0.00032132529
0.00032132529
0.00032132529
0.00032132529
0.00032132529
0.00032132529
0.00032132529
0.00032132529
0.00032132529
0.00032132529
0.00032132529
0.00032132529
0.00032132529
0.00032132529
0.00032132529
0.00032132529
0.00032132529
0.00032132529
0.00032132529
0.00032132529
0.00032132529
0.00032132529
0.00032132529
0.00032132529
0.00032132529
0.00032132529
)
;
        value           nonuniform List<scalar> 
130
(
921.17647
921.14759
921.07033
920.93333
920.73554
920.51851
920.28246
920.02072
919.72756
919.46642
919.2604
919.0972
918.97455
921.18091
921.15352
921.08106
920.95631
920.7812
920.55965
920.32117
920.0713
919.80331
919.55863
919.34664
919.15989
918.98814
921.24704
921.2174
921.14149
921.01627
920.85298
920.65124
920.42266
920.18088
919.92931
919.69486
919.4685
919.24867
919.04949
921.4028
921.35885
921.26155
921.12669
920.96468
920.7709
920.55454
920.32236
920.05496
919.78616
919.5236
919.27023
919.08118
921.55112
921.51236
921.42125
921.28099
921.10507
920.90676
920.68363
920.42352
920.11639
919.79818
919.48296
919.20308
919.01855
921.64833
921.61267
921.52771
921.3915
921.20638
920.981
920.72832
920.44316
920.10849
919.75291
919.39763
919.09085
918.89895
921.6966
921.65857
921.56775
921.4213
921.21584
920.95874
920.69138
920.3915
920.04865
919.67303
919.27406
918.95249
918.77551
921.70002
921.6576
921.55962
921.40084
921.17648
920.89907
920.61635
920.31696
919.99126
919.64527
919.2743
918.9476
918.75797
921.6897
921.64543
921.53965
921.36276
921.13523
920.87695
920.595
920.29763
919.98005
919.64865
919.30699
919.00823
918.82488
921.6892
921.64569
921.54145
921.37138
921.13323
920.8772
920.60598
920.31636
919.99764
919.67951
919.37035
919.09843
918.91563
)
;
        Tnbr            T;
        thicknessLayers List<scalar> 0();
        kappaLayers     List<scalar> 0();
        kappaMethod     solidThermo;
        kappa           none;
        alphaAni        none;
        alpha           none;
        field           T;
    }
}


// ************************************************************************* //
