/*--------------------------------*- C++ -*----------------------------------*\
| =========                 |                                                 |
| \\      /  F ield         | OpenFOAM: The Open Source CFD Toolbox           |
|  \\    /   O peration     | Version:  v2012                                 |
|   \\  /    A nd           | Website:  www.openfoam.com                      |
|    \\/     M anipulation  |                                                 |
\*---------------------------------------------------------------------------*/
FoamFile
{
    version     2.0;
    format      ascii;
    class       volScalarField;
    location    "520/leftSolid";
    object      T;
}
// * * * * * * * * * * * * * * * * * * * * * * * * * * * * * * * * * * * * * //

dimensions      [0 0 0 1 0 0 0];


internalField   nonuniform List<scalar> 
130
(
910.57881
910.53863
910.45062
910.30953
910.10938
909.84093
909.51206
909.14973
908.78401
908.46115
908.18456
907.96123
907.79121
910.62316
910.58199
910.49104
910.34794
910.15199
909.90178
909.60254
909.248
908.85136
908.50294
908.19226
907.94678
907.76451
910.69944
910.65413
910.55452
910.39693
910.19163
909.94573
909.64906
909.29971
908.9426
908.59213
908.26522
908.00858
907.83116
910.81606
910.76687
910.65474
910.46607
910.24241
909.98968
909.69458
909.36102
909.02866
908.70404
908.39311
908.13367
907.95719
910.96211
910.91058
910.79024
910.58945
910.35126
910.08796
909.7913
909.46241
909.1418
908.83503
908.54224
908.28548
908.10431
911.12405
911.07062
910.94678
910.74901
910.50412
910.23289
909.92484
909.59661
909.28579
908.98727
908.6953
908.45069
908.29148
911.29003
911.23247
911.1039
910.91606
910.67628
910.41201
910.11291
909.79711
909.49946
909.20891
908.91662
908.70746
908.58691
911.41155
911.35898
911.24318
911.07159
910.86193
910.62624
910.36334
910.09326
909.82844
909.56844
909.33033
909.15644
909.0484
911.49755
911.45173
911.35428
911.2074
911.03249
910.84248
910.64354
910.43337
910.2124
909.99222
909.79007
909.63197
909.53672
911.5444
911.5044
911.41856
911.29013
911.14321
910.98255
910.80762
910.62359
910.42722
910.22655
910.05094
909.91598
909.8389
)
;

boundaryField
{
    minX
    {
        type            zeroGradient;
    }
    minZ
    {
        type            zeroGradient;
    }
    maxZ
    {
        type            zeroGradient;
    }
    leftSolid_to_bottomWater
    {
        type            compressible::turbulentTemperatureCoupledBaffleMixed;
        refValue        nonuniform List<scalar> 
130
(
968.8828
968.64286
968.2684
967.90244
967.44916
964.60102
959.71417
955.92689
952.25634
952.41866
952.41182
952.59385
942.30268
969.50022
969.44698
969.00138
968.64284
968.29881
967.37067
968.05612
965.81437
953.89604
954.19664
949.94432
948.73155
936.91199
969.73106
969.59716
969.21932
968.08007
966.376
966.49326
965.74806
960.92332
959.64123
956.42211
950.25649
947.54278
938.70882
970.74107
971.01268
971.20772
965.52053
963.4686
963.65096
962.25993
958.4359
957.44556
956.36931
952.06432
947.75926
939.4647
971.89549
972.44716
972.25268
966.39567
963.72282
963.32125
962.55401
958.03399
956.40859
955.39267
952.57123
947.47859
936.88478
972.80356
973.36102
972.45506
968.29157
964.70561
964.02466
960.46956
955.4225
954.64363
953.86988
948.81613
944.28403
937.46531
975.24423
974.94398
971.65374
969.19269
964.25069
963.26041
959.18542
954.14718
953.69018
952.65798
941.79157
942.04154
940.22306
974.39366
974.10782
971.65904
968.52505
965.81947
964.16013
960.1115
958.18752
957.48422
955.19395
952.05388
952.68841
949.4063
973.85897
973.23185
971.99054
968.98751
967.06365
966.5314
968.07958
969.23576
968.75281
967.96188
966.02898
964.12335
961.59792
973.54156
973.13546
971.95518
969.3116
969.2025
969.86683
969.93401
971.12698
971.32115
969.4285
969.10443
968.4235
967.91444
)
;
        refGradient     uniform 0;
        valueFraction   nonuniform List<scalar> 
130
(
0.0075140686
0.0075140686
0.0075140686
0.0075140686
0.0075140686
0.0075140686
0.0075140686
0.0075140686
0.0075140686
0.0075140686
0.0075140686
0.0075140686
0.0075140686
0.0075140686
0.0075140686
0.0075140686
0.0075140686
0.0075140686
0.0075140686
0.0075140686
0.0075140686
0.0075140686
0.0075140686
0.0075140686
0.0075140686
0.0075140686
0.0075140686
0.0075140686
0.0075140686
0.0075140686
0.0075140686
0.0075140686
0.0075140686
0.0075140686
0.0075140686
0.0075140686
0.0075140686
0.0075140686
0.0075140686
0.0075140686
0.0075140686
0.0075140686
0.0075140686
0.0075140686
0.0075140686
0.0075140686
0.0075140686
0.0075140686
0.0075140686
0.0075140686
0.0075140686
0.0075140686
0.0075140686
0.0075140686
0.0075140686
0.0075140686
0.0075140686
0.0075140686
0.0075140686
0.0075140686
0.0075140686
0.0075140686
0.0075140686
0.0075140686
0.0075140686
0.0075140686
0.0075140686
0.0075140686
0.0075140686
0.0075140686
0.0075140686
0.0075140686
0.0075140686
0.0075140686
0.0075140686
0.0075140686
0.0075140686
0.0075140686
0.0075140686
0.0075140686
0.0075140686
0.0075140686
0.0075140686
0.0075140686
0.0075140686
0.0075140686
0.0075140686
0.0075140686
0.0075140686
0.0075140686
0.0075140686
0.0075140686
0.0075140686
0.0075140686
0.0075140686
0.0075140686
0.0075140686
0.0075140686
0.0075140686
0.0075140686
0.0075140686
0.0075140686
0.0075140686
0.0075140686
0.0075140686
0.0075140686
0.0075140686
0.0075140686
0.0075140686
0.0075140686
0.0075140686
0.0075140686
0.0075140686
0.0075140686
0.0075140686
0.0075140686
0.0075140686
0.0075140686
0.0075140686
0.0075140686
0.0075140686
0.0075140686
0.0075140686
0.0075140686
0.0075140686
0.0075140686
0.0075140686
0.0075140686
0.0075140686
0.0075140686
)
;
        value           nonuniform List<scalar> 
130
(
911.01474
910.97306
910.8829
910.74012
910.53809
910.25027
909.88715
909.49905
909.10847
908.78923
908.51467
908.2944
908.04831
911.06341
911.02215
910.92853
910.7838
910.58675
910.33146
910.03962
909.67091
909.18764
908.84403
908.50375
908.25102
907.98132
911.14084
911.09486
910.99316
910.82818
910.61166
910.3685
910.06847
909.68543
909.32134
908.94928
908.57847
908.30342
908.06097
911.26417
911.21738
911.10756
910.87756
910.64019
910.39076
910.08743
909.72761
909.39031
909.06003
908.71907
908.42925
908.19178
911.41778
911.37079
911.2499
911.00662
910.75014
910.4858
910.18562
909.82522
909.49483
909.18277
908.87102
908.57794
908.31852
911.58532
911.53649
911.4068
911.17925
910.90926
910.63496
910.30252
909.93882
909.6245
909.32244
908.99472
908.71784
908.50856
911.76841
911.70903
911.55674
911.35186
911.07676
910.80704
910.47957
910.12825
909.82938
909.53326
909.16149
908.95568
908.82239
911.88263
911.82832
911.69503
911.50119
911.2728
911.02642
910.73508
910.45251
910.18436
909.90906
909.64909
909.48125
909.34934
911.96398
911.91381
911.80778
911.63946
911.45142
911.25882
911.07297
910.87302
910.65005
910.42553
910.21033
910.03905
909.92552
912.0081
911.96537
911.87133
911.72401
911.57736
911.42288
911.24974
911.07602
910.88253
910.66909
910.49231
910.35321
910.27286
)
;
        Tnbr            T;
        thicknessLayers List<scalar> 0();
        kappaLayers     List<scalar> 0();
        kappaMethod     solidThermo;
        kappa           none;
        alphaAni        none;
        alpha           none;
        field           T;
    }
    leftSolid_to_heater
    {
        type            compressible::turbulentTemperatureCoupledBaffleMixed;
        refValue        nonuniform List<scalar> 10(734.2226 724.78487 704.98432 672.86332 626.08419 626.23509 673.41195 705.73408 725.57887 735.02302);
        refGradient     uniform 0;
        valueFraction   nonuniform List<scalar> 10(2.08329e-05 2.08329e-05 2.08329e-05 2.08329e-05 2.08329e-05 2.08329e-05 2.08329e-05 2.08329e-05 2.08329e-05 2.08329e-05);
        value           nonuniform List<scalar> 10(907.78535 907.75847 907.82471 907.95011 908.09637 908.28346 908.57976 909.04184 909.53048 909.83281);
        Tnbr            T;
        thicknessLayers List<scalar> 1(0.001);
        kappaLayers     List<scalar> 1(0.0005);
        kappaMethod     solidThermo;
        kappa           none;
        alphaAni        none;
        alpha           none;
        field           T;
    }
    leftSolid_to_topAir
    {
        type            compressible::turbulentTemperatureCoupledBaffleMixed;
        refValue        nonuniform List<scalar> 
130
(
324.82664
347.78396
368.55726
387.74143
405.83149
423.12198
439.7177
455.47536
470.08845
483.52073
495.64883
506.23913
514.77413
324.82216
347.53387
367.82515
386.2913
403.39179
419.3622
434.2581
448.01462
460.42237
471.13918
479.67827
485.44664
487.65297
324.82194
347.57693
367.92855
386.47013
403.66862
419.77359
434.89495
449.05234
462.16975
474.048
484.30739
492.30012
496.86284
324.82641
347.60074
367.99409
386.6061
403.92353
420.23046
435.6851
450.3746
464.32597
477.47352
489.57052
500.00824
507.59018
324.83135
347.61512
368.02287
386.65375
403.99549
420.335
435.83104
450.56815
464.55936
477.69319
489.59799
499.43035
506.03722
324.83786
347.62786
368.0417
386.67922
404.02819
420.37543
435.88042
450.63082
464.64889
477.84276
489.88827
500.01538
506.88828
324.84529
347.63734
368.04724
386.6761
404.01047
420.33531
435.80924
450.52202
464.50171
477.6969
489.89586
500.56033
508.47296
324.85037
347.6323
368.00967
386.57714
403.80321
419.93859
435.09038
449.28619
462.45253
474.38791
484.72498
492.85301
497.63857
324.85686
347.60082
367.9228
386.41958
403.55239
419.56014
434.50315
448.31054
460.76739
471.52922
480.09769
485.88361
488.14081
324.86502
347.8591
368.66847
387.89004
406.02192
423.361
440.01564
455.84086
470.52366
484.02195
496.2042
506.82874
515.37368
)
;
        refGradient     uniform 0;
        valueFraction   nonuniform List<scalar> 
130
(
0.00032132529
0.00032132529
0.00032132529
0.00032132529
0.00032132529
0.00032132529
0.00032132529
0.00032132529
0.00032132529
0.00032132529
0.00032132529
0.00032132529
0.00032132529
0.00032132529
0.00032132529
0.00032132529
0.00032132529
0.00032132529
0.00032132529
0.00032132529
0.00032132529
0.00032132529
0.00032132529
0.00032132529
0.00032132529
0.00032132529
0.00032132529
0.00032132529
0.00032132529
0.00032132529
0.00032132529
0.00032132529
0.00032132529
0.00032132529
0.00032132529
0.00032132529
0.00032132529
0.00032132529
0.00032132529
0.00032132529
0.00032132529
0.00032132529
0.00032132529
0.00032132529
0.00032132529
0.00032132529
0.00032132529
0.00032132529
0.00032132529
0.00032132529
0.00032132529
0.00032132529
0.00032132529
0.00032132529
0.00032132529
0.00032132529
0.00032132529
0.00032132529
0.00032132529
0.00032132529
0.00032132529
0.00032132529
0.00032132529
0.00032132529
0.00032132529
0.00032132529
0.00032132529
0.00032132529
0.00032132529
0.00032132529
0.00032132529
0.00032132529
0.00032132529
0.00032132529
0.00032132529
0.00032132529
0.00032132529
0.00032132529
0.00032132529
0.00032132529
0.00032132529
0.00032132529
0.00032132529
0.00032132529
0.00032132529
0.00032132529
0.00032132529
0.00032132529
0.00032132529
0.00032132529
0.00032132529
0.00032132529
0.00032132529
0.00032132529
0.00032132529
0.00032132529
0.00032132529
0.00032132529
0.00032132529
0.00032132529
0.00032132529
0.00032132529
0.00032132529
0.00032132529
0.00032132529
0.00032132529
0.00032132529
0.00032132529
0.00032132529
0.00032132529
0.00032132529
0.00032132529
0.00032132529
0.00032132529
0.00032132529
0.00032132529
0.00032132529
0.00032132529
0.00032132529
0.00032132529
0.00032132529
0.00032132529
0.00032132529
0.00032132529
0.00032132529
0.00032132529
0.00032132529
0.00032132529
0.00032132529
0.00032132529
)
;
        value           nonuniform List<scalar> 
130
(
910.38841
910.35562
910.27431
910.13944
909.94518
909.68239
909.35896
909.00177
908.64084
908.32237
908.04977
907.82993
907.66268
910.43275
910.39889
910.31449
910.17736
909.98698
909.74199
909.44764
909.09764
908.70507
908.36013
908.05231
907.80878
907.62729
910.509
910.47101
910.37797
910.22638
910.02671
909.78608
909.49437
909.14962
908.79681
908.45024
908.1267
907.87277
907.69688
910.62558
910.58372
910.47817
910.29553
910.07753
909.83015
909.54013
909.21136
908.88359
908.56329
908.25633
908.00035
907.82636
910.77157
910.72738
910.61365
910.41892
910.18638
909.92842
909.63684
909.31278
908.9968
908.69438
908.40555
908.15205
907.97305
910.93345
910.88737
910.77016
910.57846
910.33923
910.07334
909.77038
909.44699
909.14079
908.84664
908.55866
908.31733
908.16035
911.0994
911.04919
910.92725
910.74549
910.51138
910.25244
909.95842
909.64741
909.35433
909.06811
908.77981
908.57404
908.45609
911.22088
911.17567
911.06649
910.90093
910.6969
910.46648
910.20853
909.94304
909.6825
909.42638
909.19161
909.02036
908.91388
911.30688
911.26839
911.17752
911.03666
910.86731
910.68249
910.48838
910.28267
910.06574
909.84904
909.64966
909.49342
909.39891
911.35372
911.32114
911.24204
911.11983
910.97878
910.82372
910.65417
910.47525
910.2836
910.08728
909.91558
909.78404
909.7097
)
;
        Tnbr            T;
        thicknessLayers List<scalar> 0();
        kappaLayers     List<scalar> 0();
        kappaMethod     solidThermo;
        kappa           none;
        alphaAni        none;
        alpha           none;
        field           T;
    }
}


// ************************************************************************* //
