/*--------------------------------*- C++ -*----------------------------------*\
| =========                 |                                                 |
| \\      /  F ield         | OpenFOAM: The Open Source CFD Toolbox           |
|  \\    /   O peration     | Version:  v2012                                 |
|   \\  /    A nd           | Website:  www.openfoam.com                      |
|    \\/     M anipulation  |                                                 |
\*---------------------------------------------------------------------------*/
FoamFile
{
    version     2.0;
    format      ascii;
    class       volScalarField;
    location    "680/bottomWater";
    object      p_rgh;
}
// * * * * * * * * * * * * * * * * * * * * * * * * * * * * * * * * * * * * * //

dimensions      [1 -1 -2 0 0 0 0];


internalField   nonuniform List<scalar> 
1460
(
0.30444726
0.3045089
0.29761511
0.30657842
0.31291673
0.3067309
0.31414151
0.31030691
0.31452521
0.31961004
0.31488304
0.30974742
0.31436877
0.30625976
0.31504194
0.32069307
0.32122663
0.32525857
0.31417008
0.31664549
0.31732615
0.31532503
0.32943187
0.31684994
0.31550259
0.31953994
0.31405984
0.31987118
0.31496477
0.30731851
-0.25019575
-0.2618921
-0.26820508
-0.22314138
-0.2078721
-0.24518784
-0.26838438
-0.26983346
-0.24167171
-0.20516306
-0.2364436
-0.26555897
-0.27375106
-0.27698336
-0.24904086
-0.21221977
-0.19383436
-0.2168132
-0.26785949
-0.28820099
-0.27768679
-0.25343564
-0.2326524
-0.25243544
-0.28598435
-0.26861385
-0.25146108
-0.21286686
-0.21192886
-0.23044265
0.13405644
0.12113792
0.076966634
0.048266259
0.063910801
0.08085772
0.10161044
0.10455482
0.059982247
0.077375365
0.066902638
0.10284462
0.10892015
0.092099752
0.082447303
0.070803662
0.054804677
0.04832342
0.059240529
0.080161888
0.10263196
0.055446748
0.06497003
0.069665142
0.088539548
0.097483702
0.07222642
0.073456487
0.081280007
0.093061083
-0.092214552
-0.063440329
-0.064243752
-0.081366707
-0.049415638
-0.042804186
-0.018208348
-0.034724438
-0.053606655
-0.049386777
-0.040706248
-0.044411635
-0.019588848
-0.043651042
-0.028996788
-0.036194156
-0.077659489
-0.06402776
-0.094073587
-0.044394198
-0.050645876
-0.063544701
-0.034554982
-0.068517329
-0.021027753
-0.046691281
-0.033371825
-0.032040892
-0.049515636
-0.064646743
0.058921795
0.01478171
-0.00037521853
0.00097213521
-0.021493264
-0.016334574
0.0017536274
-0.0068768221
-0.0044664729
-0.0097454636
-0.013667269
0.0017193234
0.0025377327
-0.0076446956
-0.011100446
-0.020472486
-0.015282509
0.0040498793
0.018041308
0.022379907
0.016677055
0.0099131802
0.0021131715
0.021228796
-0.0075896182
-0.0053324103
-0.014441814
-0.010939296
-0.019056402
-0.0028047927
0.30548751
0.30289454
0.29884339
0.30866317
0.31169329
0.31455613
0.31477069
0.31425874
0.31605941
0.32031149
0.31814607
0.31034363
0.31054949
0.30743426
0.31802858
0.31599018
0.31679396
0.31324116
0.31909893
0.32190829
0.32228499
0.31727299
0.32115868
0.32492123
0.32604789
0.31497858
0.31779839
0.31630522
0.32089486
0.30715421
-0.26894439
-0.27799181
-0.26439512
-0.20964328
-0.20283548
-0.23395255
-0.27825776
-0.27390589
-0.26130774
-0.24041262
-0.24080404
-0.26757573
-0.2767718
-0.25739747
-0.22004741
-0.21216084
-0.23838896
-0.276937
-0.29099972
-0.30163189
-0.29663234
-0.28483752
-0.28121686
-0.24515545
-0.23488335
-0.26486267
-0.27696439
-0.26903447
-0.23395016
-0.23688978
0.13269864
0.092432086
0.060177887
0.034950848
0.066503033
0.073722434
0.085012182
0.10192683
0.080730555
0.073228228
0.044939459
0.10155466
0.08053087
0.062000642
0.060621585
0.069326874
0.049127244
0.067030481
0.08738596
0.11146877
0.11045699
0.089367188
0.077055269
0.061829751
0.039332079
0.088501392
0.066038951
0.10148643
0.038388421
0.081198546
-0.039275366
-0.052126079
-0.083951695
-0.08327869
-0.051907931
-0.051087289
-0.054442207
-0.064573466
-0.080447982
-0.092520163
-0.090921565
-0.073671536
-0.039239718
-0.088968077
-0.053379207
-0.06308589
-0.094792822
-0.077703987
-0.064521639
-0.039821421
-0.038205399
-0.069278072
-0.080213356
-0.080893011
-0.073094844
-0.075912479
-0.022005977
-0.068038966
-0.087583487
-0.078202051
0.035308194
0.022784239
0.013646952
0.002142406
-0.015922141
-0.0131464
-0.0033279813
0.0049236943
0.034638671
0.023807946
-0.002223336
0.0062904786
-0.0016637837
-0.0099561257
-0.021303745
-0.0094641329
0.0055243573
0.010516803
0.017130147
0.032153027
0.032295065
0.020122564
0.034058808
0.028263287
0.0058461949
-0.0050149878
-0.0016996868
-0.003484753
7.0590177e-05
0.030965604
0.30369112
0.29913565
0.30598482
0.30433543
0.30849284
0.30448905
0.3072394
0.30239951
0.30646152
0.30946643
0.30499961
0.30683629
0.30522645
0.30184003
0.3155188
0.32123648
0.3158903
0.32651085
0.31645304
0.32427241
0.31473072
0.31612432
0.323275
0.32019646
0.31977368
0.32650992
0.30262592
0.31007027
0.30513716
0.30541327
-0.2686125
-0.27612295
-0.24650592
-0.20794705
-0.20449841
-0.21766264
-0.23246916
-0.26522483
-0.28161877
-0.28906421
-0.26476868
-0.25632219
-0.27057304
-0.25407342
-0.21540596
-0.23012554
-0.27077571
-0.28407878
-0.2642724
-0.25980901
-0.27653786
-0.2896616
-0.29221474
-0.3033922
-0.27817299
-0.2438783
-0.25324138
-0.2633787
-0.25328848
-0.27329301
0.12533863
0.082613829
0.062793438
0.059236048
0.069645315
0.081057593
0.053293815
0.080699342
0.093622623
0.11484353
0.087528167
0.10792943
0.088374792
0.064728476
0.050200121
0.070940229
0.086142363
0.093731809
0.11005677
0.065155122
0.11089107
0.086878706
0.13448388
0.079412553
0.078606069
0.060412773
0.077335997
0.096798312
0.096367091
0.1144275
-0.041673402
-0.072446519
-0.082856501
-0.065443192
-0.042298682
-0.064605398
-0.074254789
-0.074028767
-0.0371045
-0.049789732
-0.076781958
-0.10131103
-0.06111865
-0.090767476
-0.068821523
-0.060148818
-0.070002982
-0.058087682
-0.10566617
-0.090813219
-0.11180588
-0.048534725
-0.027651722
-0.039711841
-0.09193923
-0.054700548
-0.087882823
-0.03935326
-0.098756423
-0.047431706
0.030677489
0.018764565
0.012069803
-0.0037631102
-0.0090288705
-0.0077190588
0.0081161385
0.032416291
0.021852944
0.034621896
0.027383167
0.045679407
0.010157668
0.014495189
-0.0083130892
-0.0070126194
-0.0040847875
-0.00083227486
0.021717152
0.048656696
0.031710393
0.0036613489
0.038472486
0.01068879
0.019412549
-0.00248284
0.014701673
0.013039089
0.027758164
0.00644231
0.30182212
0.29399167
0.31459737
0.27891128
0.2901499
0.30630335
0.32096714
0.30653194
0.30630142
0.30807761
0.30388904
0.30102866
0.30399125
0.29688485
0.29943663
0.29625243
0.29495125
0.30099386
0.32095345
0.32869232
0.3253045
0.3146189
0.32022499
0.3200983
0.31675542
0.3210629
0.31259512
0.29643301
0.30144237
0.30423709
-0.26606999
-0.2610286
-0.21129271
-0.22310757
-0.23396586
-0.19851485
-0.20738145
-0.2727343
-0.2882401
-0.28221558
-0.26373404
-0.28337126
-0.28541953
-0.27571266
-0.26298222
-0.24459501
-0.27296141
-0.26527365
-0.23708877
-0.20410364
-0.25305553
-0.27978917
-0.28863684
-0.29252593
-0.27794902
-0.21790104
-0.22315931
-0.26137799
-0.27487988
-0.26912306
0.097612464
0.070058251
0.055009893
0.10858417
0.11372905
0.057666945
0.04057734
0.052252781
0.085671014
0.11832546
0.09165468
0.12027973
0.12357149
0.10057279
0.091595738
0.10988165
0.081334183
0.12861183
0.068509875
0.054416428
0.065715944
0.087863614
0.098095396
0.075326985
0.064106054
0.056479864
0.034623231
0.06600773
0.075996013
0.1208838
-0.040808174
-0.096015907
-0.077888509
-0.078012692
-0.044973708
-0.064777313
-0.064843613
-0.076818381
-0.049869727
-0.039545548
-0.083398816
-0.041335702
-0.04354384
-0.062335326
-0.073267346
-0.094814051
-0.060707732
-0.079292921
-0.067133066
-0.095781984
-0.081261385
-0.075768197
-0.037054457
-0.046494909
-0.069931612
-0.061594927
-0.074635571
-0.077988083
-0.045507649
-0.040354862
0.025846889
0.026445697
0.018219304
0.0027641495
-0.012592678
-0.0053707439
0.0091972887
0.015574259
0.01790888
0.027985313
0.045065428
0.023785864
0.015668406
0.011668099
-0.0090755649
0.03381502
-0.0069051451
-0.011619822
-0.0073196981
0.0065269374
-0.010699209
-0.0085852434
0.014795757
-0.0024142134
-0.011616739
-0.0064276322
0.013174667
0.015156513
0.0068578435
0.015770254
0.2995782
0.29519758
0.30527605
0.30476817
0.30955004
0.31428789
0.31155636
0.30774969
0.32095187
0.30507072
0.32859752
0.29582095
0.30661979
0.32070772
0.33312953
0.31394578
0.30762426
0.33559079
0.32419531
0.32771369
0.33088599
0.32468352
0.31852836
0.30346105
0.29715949
0.30476333
-0.26318887
-0.25212334
-0.21059142
-0.20106888
-0.20420228
-0.2148232
-0.26017975
-0.28374934
-0.28013319
-0.26530808
-0.23728037
-0.26071505
-0.26807938
-0.25296603
-0.24043817
-0.25478879
-0.25273194
-0.23334721
-0.29399315
-0.27305135
-0.23435895
-0.17330011
-0.1614823
-0.233069
-0.26290297
-0.26464205
0.096404504
0.069328969
0.051456202
0.077170893
0.071752226
0.042900831
0.04716923
0.078928207
0.10511956
0.090391638
0.044561687
0.088623217
0.10544249
0.11367787
0.087231888
0.1176275
0.11350091
0.077486012
0.084759446
0.081903756
0.059358988
0.037523379
0.036838415
0.031123938
0.064322558
0.097767638
-0.044789501
-0.09545835
-0.088208189
-0.055476164
-0.045440462
-0.078102002
-0.087293716
-0.045906139
-0.023563701
-0.075327767
-0.058222678
-0.08849188
-0.031516905
-0.057812234
-0.048837285
-0.060050159
-0.07184909
-0.076121327
-0.03783954
-0.074790275
-0.043775315
-0.07270494
-0.065930381
-0.067111259
-0.065210465
-0.035382059
0.016666458
0.013059403
-0.0080534639
-0.0077277495
-0.011442901
-0.0054107454
0.0066349699
0.01520101
0.023530045
0.031015981
0.041805142
0.023511468
0.01466875
-0.0057825223
-0.018680206
-0.011023015
0.010311795
-0.0092588315
0.0035135155
-0.015755636
-0.0066733035
0.010668292
0.011339105
0.0024378121
0.010071857
0.012561459
0.30004546
0.30101507
0.30742252
0.3054095
0.31243313
0.31619217
0.31094435
0.32200345
0.3064076
0.32092226
0.33177842
0.31140124
0.31483337
0.30425071
0.31725373
0.3023818
0.33579077
0.32563606
0.32721945
0.3285352
0.32487472
0.31539345
0.30849708
0.28568044
0.29302619
0.29699982
-0.25987187
-0.248016
-0.2184193
-0.2016918
-0.21072731
-0.2398211
-0.29364773
-0.27895704
-0.26713984
-0.24400628
-0.18462045
-0.26856965
-0.27568306
-0.25950401
-0.27931255
-0.25191974
-0.24146854
-0.25237416
-0.2973603
-0.26016329
-0.22552184
-0.20552588
-0.21867434
-0.25787078
-0.25790383
-0.26179138
0.10341426
0.083668788
0.075327167
0.068350566
0.056020156
0.043168854
0.05839895
0.10412568
0.095981084
0.062866107
0.058578408
0.079382259
0.10706777
0.12883039
0.12391201
0.091894361
0.046317092
0.11465944
0.061533786
0.074321924
0.070972923
0.069926238
0.051527933
0.086040146
0.092041889
0.11174339
-0.050404394
-0.086821406
-0.04508507
-0.060055095
-0.07294638
-0.10089158
-0.058530873
-0.024471667
-0.056411847
-0.048907327
-0.065408748
-0.073530058
-0.027967897
-0.079128008
-0.066633457
-0.11599556
-0.089114044
-0.13115824
-0.055807623
-0.10419114
-0.05791227
-0.050098146
-0.050596611
-0.04703595
-0.048508526
-0.03889063
0.0014963133
-0.010459189
-0.013714036
-0.014823961
-0.011066611
0.011172683
0.01064325
0.022830441
0.008591426
0.0013389025
0.021720253
-0.0033407542
-0.0012347678
0.010846872
-0.018369759
-0.00099936667
0.026941503
0.024465877
0.0032547857
-0.013458211
-0.019315041
-0.016455182
-0.015219927
-0.018133869
-0.0072473647
0.00021756551
0.2907391
0.30505364
0.28393737
0.30024845
0.31734822
0.30823132
0.30375385
0.30872363
0.30753806
0.30487936
0.29913695
0.29734284
0.30445413
0.30694419
0.29603269
0.33216867
0.32538447
0.32074079
0.32129615
0.32710475
0.32881597
0.33164545
0.33074049
0.32900144
0.32449032
0.2911894
0.29680734
0.29786577
0.30129839
0.3031272
-0.23990629
-0.22084537
-0.23567402
-0.20904369
-0.18958366
-0.25871532
-0.28953804
-0.28059246
-0.2681667
-0.25888855
-0.26738377
-0.26443885
-0.2624083
-0.25697271
-0.25944834
-0.21749321
-0.24324454
-0.28444978
-0.30125457
-0.2590342
-0.27828938
-0.30183384
-0.30246738
-0.25220752
-0.21866919
-0.25855177
-0.24641714
-0.26094648
-0.27678944
-0.27054603
0.10258203
0.085033105
0.096748581
0.038867912
0.041858814
0.050965452
0.075929213
0.1355701
0.13078235
0.1225672
0.10853214
0.11148769
0.096243021
0.11906863
0.085262233
0.037370317
0.059827339
0.089725156
0.12344536
0.087273597
0.10107865
0.099349513
0.095092485
0.059359176
0.047166877
0.091975739
0.10823372
0.096446395
0.11522819
0.1399228
-0.060308618
-0.05399639
-0.056172937
-0.087276522
-0.067071203
-0.095187543
-0.053355445
-0.046364009
-0.081770968
-0.091161849
-0.053684967
-0.080165021
-0.037759603
-0.036055199
-0.074367202
-0.080653392
-0.084460938
-0.078094442
-0.056745341
-0.10104637
-0.12213324
-0.037761196
-0.055251709
-0.090634555
-0.08457123
-0.066474622
-0.038827818
-0.05274421
-0.046406487
-0.036162807
0.011946783
-0.013842317
-0.017851279
0.00064592514
0.010919762
0.012289057
0.017139616
0.036260663
0.042781704
0.041800691
0.0051449154
-0.012920265
-0.011807891
-0.010145743
-0.019264528
0.010753795
0.009555999
0.0077651588
-0.0052273771
0.011140023
0.039428376
0.035622793
0.02329262
0.014552593
0.0015668999
-0.0089969482
0.0029730147
0.012978839
0.02087278
0.029700097
0.29446724
0.30950578
0.30024748
0.2959608
0.31574927
0.31401307
0.30795973
0.32027781
0.31553014
0.31748427
0.32169225
0.32481515
0.32248701
0.32222085
0.32170558
0.33914584
0.32993087
0.32651693
0.32195719
0.31163861
0.32203041
0.32660443
0.32979797
0.33061197
0.33880552
0.31505518
0.29126732
0.29046631
0.29593665
0.29942947
-0.22796342
-0.20697257
-0.23913732
-0.23290415
-0.20358972
-0.22427664
-0.27602206
-0.28713944
-0.28779716
-0.27539382
-0.22718411
-0.20250749
-0.20518075
-0.2286148
-0.229801
-0.2269892
-0.2953174
-0.29515407
-0.28860932
-0.27409816
-0.27225163
-0.29192731
-0.30315101
-0.29833281
-0.21582593
-0.21416448
-0.25060433
-0.25197853
-0.26905799
-0.26365988
0.093878223
0.065701672
0.090775272
0.063724165
0.045098701
0.047782055
0.070527583
0.11816499
0.11342534
0.072137804
0.060216499
0.031749744
0.074712624
0.067692311
0.061100237
0.044739651
0.079990933
0.12278129
0.12872156
0.11316421
0.09516673
0.12561754
0.10833449
0.062615316
0.051264615
0.054680252
0.087933035
0.088070435
0.098524303
0.12948539
-0.066192482
-0.053566541
-0.036018425
-0.071581133
-0.054563297
-0.077565432
-0.072466834
-0.036340747
-0.044750775
-0.072705184
-0.075498216
-0.088465082
-0.046794498
-0.060844233
-0.08978013
-0.094485506
-0.10389304
-0.05994748
-0.030446759
-0.086465914
-0.10613886
-0.034810965
-0.042501197
-0.11841355
-0.082370548
-0.09740511
-0.07095937
-0.056660751
-0.05636773
-0.04226544
0.018004709
-0.016398281
-0.0052630482
0.0015185729
-0.010088024
0.0086624979
0.020127454
0.033302372
0.029945501
0.011308941
0.013288562
-0.0044245741
-0.016139308
-0.019832938
-0.021274172
0.013565524
0.012546894
0.034564117
0.0090179803
0.020508112
0.034649184
0.039942724
0.040560376
0.034549131
0.02393156
-0.0038097525
-0.011060624
0.0067538277
0.016555963
0.021999459
0.28969602
0.30310365
0.29503641
0.29600173
0.29119535
0.30671887
0.29607006
0.30370074
0.29435501
0.30965665
0.31653908
0.31610436
0.32308936
0.3225188
0.32057961
0.32481232
0.32808602
0.32682205
0.31695438
0.31950493
0.33626329
0.32951957
0.3406272
0.33737999
0.34365506
0.32856315
0.3139065
0.30654331
0.29091227
0.30231473
-0.22814725
-0.22301286
-0.24474956
-0.26664293
-0.23824941
-0.22760933
-0.26320707
-0.27532752
-0.26701692
-0.22704794
-0.20235935
-0.20561623
-0.22080296
-0.25215132
-0.26985382
-0.2700008
-0.29639816
-0.28966549
-0.28463692
-0.26337034
-0.23932801
-0.28986798
-0.30065443
-0.31722688
-0.2614632
-0.22529705
-0.21733312
-0.2271634
-0.25953053
-0.26249614
0.074685115
0.040089765
0.095519718
0.057518139
0.063057865
0.043616309
0.085427901
0.071809303
0.053159046
0.02938847
0.04387369
0.061215162
0.077218728
0.098408005
0.10356832
0.088063117
0.11609556
0.12580446
0.086817304
0.083999522
0.053842989
0.076497921
0.11392453
0.085609825
0.034680567
0.070097139
0.059988631
0.035244153
0.058371779
0.088434557
-0.057668489
-0.044032049
-0.078190449
-0.022710522
-0.064589093
-0.040923902
-0.060460539
-0.052066161
-0.098569899
-0.089183304
-0.076154799
-0.078364175
-0.044488621
-0.076265283
-0.10660983
-0.11820474
-0.075899819
-0.048941717
-0.063441587
-0.058153531
-0.085861928
-0.087395495
-0.038465323
-0.050537178
-0.11412309
-0.064205995
-0.05792971
-0.061353368
-0.078240603
-0.043158852
0.0072764549
-0.0066476371
0.0071051477
-0.0029379104
0.011964566
-0.0011908704
0.012104287
0.010788505
0.017726088
0.0072330868
0.0015059535
-0.029516649
-0.014306162
-0.022356435
-0.0094114195
0.034274578
0.013710725
0.034721463
0.029689945
0.005560997
0.019869815
0.035591173
0.038769964
0.025735699
0.0095732623
-0.0076775082
-0.013891732
0.006794474
0.017281893
0.014980051
0.28625913
0.28503004
0.28960707
0.29359223
0.29022806
0.2971585
0.29875951
0.29690696
0.29428344
0.29260816
0.29286126
0.29769627
0.30761186
0.31439094
0.31093764
0.33250271
0.32814705
0.32685144
0.32907196
0.33201954
0.32897121
0.32745988
0.32943755
0.33501212
0.33534679
0.33453026
0.3147494
0.3097862
0.29144842
0.29962428
-0.25180485
-0.24598977
-0.26635141
-0.26260528
-0.26773101
-0.23591072
-0.24415863
-0.26380568
-0.25662245
-0.25701897
-0.25472461
-0.2531773
-0.26044724
-0.27107573
-0.27386564
-0.22934276
-0.24540148
-0.28414295
-0.22666102
-0.21091048
-0.21473843
-0.25731821
-0.28144854
-0.29269128
-0.28346673
-0.23069906
-0.20364164
-0.2046086
-0.24567886
-0.25722038
0.12034964
0.09110764
0.1215734
0.11732672
0.083150285
0.07126505
0.070317729
0.089698724
0.1076104
0.12274462
0.12233354
0.11570439
0.12624921
0.1377186
0.10717948
0.047355511
0.11923023
0.071480005
0.080500255
0.071076286
0.076667053
0.059741108
0.10199024
0.1068851
0.067744569
0.064199535
0.066968559
0.054036582
0.058610182
0.084757993
-0.038538731
-0.068630724
-0.032754233
-0.024952595
-0.054032587
-0.073643513
-0.067353133
-0.062472631
-0.066716014
-0.046660126
-0.055153641
-0.091586697
-0.061057323
-0.040604391
-0.072986855
-0.085336101
-0.10115467
-0.051151661
-0.052206879
-0.023360498
-0.050883592
-0.065435922
-0.046256391
-0.048008312
-0.11276902
-0.054211653
-0.041211342
-0.045476516
-0.0733185
-0.03799119
0.0095763109
0.019970604
-0.0031339295
0.013758786
0.00033004374
0.025240277
0.031056998
0.010632348
0.0098680236
-0.00085692138
0.012537793
0.021477987
-0.00030947219
-0.015435478
-0.013778087
0.014625154
0.022470791
0.008508695
0.006144037
0.00046512371
-0.0011787952
0.021707243
0.017122218
0.020525678
-0.0014038618
-0.012979049
-0.01034911
-0.0070566299
0.010602341
0.0079747393
)
;

boundaryField
{
    minX
    {
        type            fixedFluxPressure;
        gradient        uniform 0;
        value           nonuniform List<scalar> 
50
(
0.30444726
-0.25019575
0.13405644
-0.092214552
0.058921795
0.30548751
-0.26894439
0.13269864
-0.039275366
0.035308194
0.30369112
-0.2686125
0.12533863
-0.041673402
0.030677489
0.30182212
-0.26606999
0.097612464
-0.040808174
0.025846889
0.2995782
-0.26318887
0.096404504
-0.044789501
0.016666458
0.30004546
-0.25987187
0.10341426
-0.050404394
0.0014963133
0.2907391
-0.23990629
0.10258203
-0.060308618
0.011946783
0.29446724
-0.22796342
0.093878223
-0.066192482
0.018004709
0.28969602
-0.22814725
0.074685115
-0.057668489
0.0072764549
0.28625913
-0.25180485
0.12034964
-0.038538731
0.0095763109
)
;
    }
    maxX
    {
        type            fixedFluxPressure;
        gradient        uniform 0;
        value           nonuniform List<scalar> 
50
(
0.30731851
-0.23044265
0.093061083
-0.064646743
-0.0028047927
0.30715421
-0.23688978
0.081198546
-0.078202051
0.030965604
0.30541327
-0.27329301
0.1144275
-0.047431706
0.00644231
0.30423709
-0.26912306
0.1208838
-0.040354862
0.015770254
0.30476333
-0.26464205
0.097767638
-0.035382059
0.012561459
0.29699982
-0.26179138
0.11174339
-0.03889063
0.00021756551
0.3031272
-0.27054603
0.1399228
-0.036162807
0.029700097
0.29942947
-0.26365988
0.12948539
-0.04226544
0.021999459
0.30231473
-0.26249614
0.088434557
-0.043158852
0.014980051
0.29962428
-0.25722038
0.084757993
-0.03799119
0.0079747393
)
;
    }
    minY
    {
        type            fixedValue;
        value           uniform 0;
    }
    minZ
    {
        type            fixedFluxPressure;
        gradient        uniform 0;
        value           nonuniform List<scalar> 
150
(
0.30444726
-0.25019575
0.13405644
-0.092214552
0.058921795
0.3045089
-0.2618921
0.12113792
-0.063440329
0.01478171
0.29761511
-0.26820508
0.076966634
-0.064243752
-0.00037521853
0.30657842
-0.22314138
0.048266259
-0.081366707
0.00097213521
0.31291673
-0.2078721
0.063910801
-0.049415638
-0.021493264
0.3067309
-0.24518784
0.08085772
-0.042804186
-0.016334574
0.31414151
-0.26838438
0.10161044
-0.018208348
0.0017536274
0.31030691
-0.26983346
0.10455482
-0.034724438
-0.0068768221
0.31452521
-0.24167171
0.059982247
-0.053606655
-0.0044664729
0.31961004
-0.20516306
0.077375365
-0.049386777
-0.0097454636
0.31488304
-0.2364436
0.066902638
-0.040706248
-0.013667269
0.30974742
-0.26555897
0.10284462
-0.044411635
0.0017193234
0.31436877
-0.27375106
0.10892015
-0.019588848
0.0025377327
0.30625976
-0.27698336
0.092099752
-0.043651042
-0.0076446956
0.31504194
-0.24904086
0.082447303
-0.028996788
-0.011100446
0.32069307
-0.21221977
0.070803662
-0.036194156
-0.020472486
0.32122663
-0.19383436
0.054804677
-0.077659489
-0.015282509
0.32525857
-0.2168132
0.04832342
-0.06402776
0.0040498793
0.31417008
-0.26785949
0.059240529
-0.094073587
0.018041308
0.31664549
-0.28820099
0.080161888
-0.044394198
0.022379907
0.31732615
-0.27768679
0.10263196
-0.050645876
0.016677055
0.31532503
-0.25343564
0.055446748
-0.063544701
0.0099131802
0.32943187
-0.2326524
0.06497003
-0.034554982
0.0021131715
0.31684994
-0.25243544
0.069665142
-0.068517329
0.021228796
0.31550259
-0.28598435
0.088539548
-0.021027753
-0.0075896182
0.31953994
-0.26861385
0.097483702
-0.046691281
-0.0053324103
0.31405984
-0.25146108
0.07222642
-0.033371825
-0.014441814
0.31987118
-0.21286686
0.073456487
-0.032040892
-0.010939296
0.31496477
-0.21192886
0.081280007
-0.049515636
-0.019056402
0.30731851
-0.23044265
0.093061083
-0.064646743
-0.0028047927
)
;
    }
    maxZ
    {
        type            fixedFluxPressure;
        gradient        uniform 0;
        value           nonuniform List<scalar> 
150
(
0.28625913
-0.25180485
0.12034964
-0.038538731
0.0095763109
0.28503004
-0.24598977
0.09110764
-0.068630724
0.019970604
0.28960707
-0.26635141
0.1215734
-0.032754233
-0.0031339295
0.29359223
-0.26260528
0.11732672
-0.024952595
0.013758786
0.29022806
-0.26773101
0.083150285
-0.054032587
0.00033004374
0.2971585
-0.23591072
0.07126505
-0.073643513
0.025240277
0.29875951
-0.24415863
0.070317729
-0.067353133
0.031056998
0.29690696
-0.26380568
0.089698724
-0.062472631
0.010632348
0.29428344
-0.25662245
0.1076104
-0.066716014
0.0098680236
0.29260816
-0.25701897
0.12274462
-0.046660126
-0.00085692138
0.29286126
-0.25472461
0.12233354
-0.055153641
0.012537793
0.29769627
-0.2531773
0.11570439
-0.091586697
0.021477987
0.30761186
-0.26044724
0.12624921
-0.061057323
-0.00030947219
0.31439094
-0.27107573
0.1377186
-0.040604391
-0.015435478
0.31093764
-0.27386564
0.10717948
-0.072986855
-0.013778087
0.33250271
-0.22934276
0.047355511
-0.085336101
0.014625154
0.32814705
-0.24540148
0.11923023
-0.10115467
0.022470791
0.32685144
-0.28414295
0.071480005
-0.051151661
0.008508695
0.32907196
-0.22666102
0.080500255
-0.052206879
0.006144037
0.33201954
-0.21091048
0.071076286
-0.023360498
0.00046512371
0.32897121
-0.21473843
0.076667053
-0.050883592
-0.0011787952
0.32745988
-0.25731821
0.059741108
-0.065435922
0.021707243
0.32943755
-0.28144854
0.10199024
-0.046256391
0.017122218
0.33501212
-0.29269128
0.1068851
-0.048008312
0.020525678
0.33534679
-0.28346673
0.067744569
-0.11276902
-0.0014038618
0.33453026
-0.23069906
0.064199535
-0.054211653
-0.012979049
0.3147494
-0.20364164
0.066968559
-0.041211342
-0.01034911
0.3097862
-0.2046086
0.054036582
-0.045476516
-0.0070566299
0.29144842
-0.24567886
0.058610182
-0.0733185
0.010602341
0.29962428
-0.25722038
0.084757993
-0.03799119
0.0079747393
)
;
    }
    bottomWater_to_rightSolid
    {
        type            fixedFluxPressure;
        gradient        uniform 0;
        value           nonuniform List<scalar> 
130
(
0.0040498793
0.018041308
0.022379907
0.016677055
0.0099131802
0.0021131715
0.021228796
-0.0075896182
-0.0053324103
-0.014441814
-0.010939296
-0.019056402
-0.0028047927
0.010516803
0.017130147
0.032153027
0.032295065
0.020122564
0.034058808
0.028263287
0.0058461949
-0.0050149878
-0.0016996868
-0.003484753
7.0590177e-05
0.030965604
-0.00083227486
0.021717152
0.048656696
0.031710393
0.0036613489
0.038472486
0.01068879
0.019412549
-0.00248284
0.014701673
0.013039089
0.027758164
0.00644231
-0.011619822
-0.0073196981
0.0065269374
-0.010699209
-0.0085852434
0.014795757
-0.0024142134
-0.011616739
-0.0064276322
0.013174667
0.015156513
0.0068578435
0.015770254
-0.0057825223
-0.018680206
-0.011023015
0.010311795
-0.0092588315
0.0035135155
-0.015755636
-0.0066733035
0.010668292
0.011339105
0.0024378121
0.010071857
0.012561459
0.010846872
-0.018369759
-0.00099936667
0.026941503
0.024465877
0.0032547857
-0.013458211
-0.019315041
-0.016455182
-0.015219927
-0.018133869
-0.0072473647
0.00021756551
0.0077651588
-0.0052273771
0.011140023
0.039428376
0.035622793
0.02329262
0.014552593
0.0015668999
-0.0089969482
0.0029730147
0.012978839
0.02087278
0.029700097
0.034564117
0.0090179803
0.020508112
0.034649184
0.039942724
0.040560376
0.034549131
0.02393156
-0.0038097525
-0.011060624
0.0067538277
0.016555963
0.021999459
0.034721463
0.029689945
0.005560997
0.019869815
0.035591173
0.038769964
0.025735699
0.0095732623
-0.0076775082
-0.013891732
0.006794474
0.017281893
0.014980051
0.008508695
0.006144037
0.00046512371
-0.0011787952
0.021707243
0.017122218
0.020525678
-0.0014038618
-0.012979049
-0.01034911
-0.0070566299
0.010602341
0.0079747393
)
;
    }
    bottomWater_to_leftSolid
    {
        type            fixedFluxPressure;
        gradient        uniform 0;
        value           nonuniform List<scalar> 
130
(
0.058921795
0.01478171
-0.00037521853
0.00097213521
-0.021493264
-0.016334574
0.0017536274
-0.0068768221
-0.0044664729
-0.0097454636
-0.013667269
0.0017193234
0.0025377327
0.035308194
0.022784239
0.013646952
0.002142406
-0.015922141
-0.0131464
-0.0033279813
0.0049236943
0.034638671
0.023807946
-0.002223336
0.0062904786
-0.0016637837
0.030677489
0.018764565
0.012069803
-0.0037631102
-0.0090288705
-0.0077190588
0.0081161385
0.032416291
0.021852944
0.034621896
0.027383167
0.045679407
0.010157668
0.025846889
0.026445697
0.018219304
0.0027641495
-0.012592678
-0.0053707439
0.0091972887
0.015574259
0.01790888
0.027985313
0.045065428
0.023785864
0.015668406
0.016666458
0.013059403
-0.0080534639
-0.0077277495
-0.011442901
-0.0054107454
0.0066349699
0.01520101
0.023530045
0.031015981
0.041805142
0.023511468
0.01466875
0.0014963133
-0.010459189
-0.013714036
-0.014823961
-0.011066611
0.011172683
0.01064325
0.022830441
0.008591426
0.0013389025
0.021720253
-0.0033407542
-0.0012347678
0.011946783
-0.013842317
-0.017851279
0.00064592514
0.010919762
0.012289057
0.017139616
0.036260663
0.042781704
0.041800691
0.0051449154
-0.012920265
-0.011807891
0.018004709
-0.016398281
-0.0052630482
0.0015185729
-0.010088024
0.0086624979
0.020127454
0.033302372
0.029945501
0.011308941
0.013288562
-0.0044245741
-0.016139308
0.0072764549
-0.0066476371
0.0071051477
-0.0029379104
0.011964566
-0.0011908704
0.012104287
0.010788505
0.017726088
0.0072330868
0.0015059535
-0.029516649
-0.014306162
0.0095763109
0.019970604
-0.0031339295
0.013758786
0.00033004374
0.025240277
0.031056998
0.010632348
0.0098680236
-0.00085692138
0.012537793
0.021477987
-0.00030947219
)
;
    }
    bottomWater_to_heater
    {
        type            fixedFluxPressure;
        gradient        uniform 0;
        value           nonuniform List<scalar> 
92
(
-0.0076446956
-0.011100446
-0.020472486
-0.015282509
-0.0099561257
-0.021303745
-0.0094641329
0.0055243573
0.014495189
-0.0083130892
-0.0070126194
-0.0040847875
0.29688485
0.29943663
0.29625243
0.29495125
-0.27571266
-0.26298222
-0.24459501
-0.27296141
0.10057279
0.091595738
0.10988165
0.081334183
-0.062335326
-0.073267346
-0.094814051
-0.060707732
0.011668099
0.011668099
-0.0090755649
-0.0090755649
0.03381502
0.03381502
-0.0069051451
-0.0069051451
0.30661979
0.32070772
-0.26807938
-0.25296603
0.10544249
0.11367787
-0.031516905
-0.057812234
0.01466875
-0.0057825223
0.31483337
0.30694419
0.29603269
0.33216867
0.30425071
0.32538447
-0.27568306
-0.25697271
-0.25944834
-0.21749321
-0.25950401
-0.24324454
0.10706777
0.11906863
0.085262233
0.037370317
0.12883039
0.059827339
-0.027967897
-0.036055199
-0.074367202
-0.080653392
-0.079128008
-0.084460938
-0.0012347678
-0.010145743
-0.019264528
0.010753795
0.010846872
0.009555999
-0.010145743
-0.019264528
0.010753795
0.009555999
-0.019832938
-0.021274172
0.013565524
0.012546894
-0.022356435
-0.0094114195
0.034274578
0.013710725
-0.015435478
-0.013778087
0.014625154
0.022470791
)
;
    }
}


// ************************************************************************* //
