/*--------------------------------*- C++ -*----------------------------------*\
| =========                 |                                                 |
| \\      /  F ield         | OpenFOAM: The Open Source CFD Toolbox           |
|  \\    /   O peration     | Version:  v2012                                 |
|   \\  /    A nd           | Website:  www.openfoam.com                      |
|    \\/     M anipulation  |                                                 |
\*---------------------------------------------------------------------------*/
FoamFile
{
    version     2.0;
    format      ascii;
    class       surfaceScalarField;
    location    "680/bottomWater";
    object      phi;
}
// * * * * * * * * * * * * * * * * * * * * * * * * * * * * * * * * * * * * * //

dimensions      [1 0 -1 0 0 0 0];
oriented        oriented;


internalField   nonuniform List<scalar> 
3858
(
-0.00010579302
0.00010295538
4.2989626e-06
-0.0002234606
0.00012783178
-8.536142e-06
-0.00031008909
0.00013019689
-4.0285025e-05
-0.00020691361
-7.347052e-05
-2.8398643e-05
2.923527e-05
-0.00021959155
-1.6720761e-05
0.00010358013
-5.1204529e-05
-2.2191836e-05
-1.6978478e-05
8.9219736e-05
3.0725956e-05
-0.00014867062
7.6368915e-05
5.5577331e-05
-0.00011291336
-0.00012335589
8.7090581e-05
4.2550407e-05
-0.00027053665
0.00011353337
0.00010245162
-0.00018107541
0.00012057015
-8.2235762e-05
0.00010465107
8.0468672e-05
-0.00024062171
0.00014166297
1.6255551e-05
-0.00033300469
0.00013096236
-3.7108956e-05
-0.00026699228
-2.9473654e-05
-3.7000099e-05
-5.0786599e-05
-0.00020072225
-1.7256567e-05
0.00015876576
-0.00026636016
5.4916962e-05
0.00030618524
-0.00022446231
7.4483882e-05
0.00027077653
1.1297402e-07
3.4976743e-05
8.5550771e-05
0.00014841393
3.5906592e-05
-0.00011388771
0.00012945593
6.8815325e-05
-0.00010368584
-8.1595405e-05
7.0632452e-05
0.00012852169
-0.00031725871
8.1491335e-05
0.00017633051
-2.5150112e-05
-2.3759878e-05
4.9241956e-05
0.00014176929
-1.5469866e-05
-4.8203098e-05
8.5664408e-05
9.971237e-06
-4.2506421e-05
-5.4885125e-05
4.8555413e-05
9.3744386e-05
-0.00025901196
0.00012114707
0.0001840789
-0.00019731016
0.00010646245
8.6605923e-05
9.8442584e-05
-6.6767106e-05
8.9808487e-05
7.9914003e-05
-0.00038185835
0.00047522385
-3.2300823e-05
-0.00045999103
0.00029031961
-8.1990035e-05
-0.00023672222
-0.00025821819
-3.852115e-05
0.0001056265
-0.00051967731
-4.2262963e-05
0.00034443037
-0.00023961462
-5.0393776e-05
2.1466397e-05
0.00045707395
-4.489024e-05
-0.00030164312
0.00042867043
-2.9191998e-05
-0.00018140889
-0.00037951056
0.00013592044
-3.3372622e-05
-0.00058767831
0.0001691054
0.00019227815
-0.00049984887
9.312269e-05
9.7890189e-05
0.00011368895
8.5350081e-05
-0.00031084229
0.00056430506
-1.3909618e-05
-0.00048615921
0.00037543782
-6.9158535e-05
-0.00029155508
-0.00016595189
-5.8125894e-05
2.8047151e-05
-0.00048635669
-3.3967801e-05
0.00024312165
-0.00053297544
5.1540781e-05
0.0004474411
-0.00053273225
0.0001039505
0.00052226105
-0.00010688161
3.2174637e-05
9.6810725e-05
0.00058437328
-1.0509021e-05
-0.0001966725
0.00032156504
0.00010137413
-7.0646036e-05
-0.00033439238
0.00012677052
0.00018714765
-0.00071383425
0.00013878186
0.00031228799
-0.00015959497
9.3045121e-06
-0.0001128121
0.00059773208
-3.0862704e-05
-0.00028363778
0.00026818074
-1.1690657e-05
-0.00012048482
-0.00025867644
4.063835e-05
3.0306053e-05
-0.00058465804
0.0001748552
0.000183372
-0.00047495013
0.00012457401
0.00010616283
0.00016381509
0.00012948202
-4.2331311e-05
2.6577811e-06
0.00016190933
0.00038729606
5.5500473e-05
0.00020521211
0.00019009121
5.6925624e-05
-3.1624739e-05
-6.7016711e-05
4.5635365e-05
-0.00023558037
-0.00028175417
-3.39675e-05
-4.8636534e-05
-0.00044709731
2.0538846e-05
5.6665834e-05
0.00027393569
7.7835894e-05
0.00011998029
0.00032789982
3.7456154e-05
4.834348e-05
-0.00026720564
-4.0668106e-05
-0.00019784065
-0.00028973146
-5.1762715e-05
-0.00038818055
-0.00034494541
3.5436449e-05
-0.00022913613
-8.4879987e-05
3.9524511e-05
-0.00016848577
0.00045511385
4.8540852e-05
-3.1630038e-05
0.00011759955
0.00012098254
0.00021966168
-0.0004944693
7.7225702e-05
0.00022437048
-0.00045611812
-3.4947378e-05
4.5075449e-05
-0.00019763166
-0.00015604874
-0.00017456297
-0.00013793452
-0.0001751593
-1.0945851e-05
-8.3039221e-05
-0.0001874595
0.00012772303
0.00049804543
-5.2341018e-05
0.00019770434
0.00021276301
3.8820723e-05
0.00010917361
-0.00015763658
-8.822506e-05
-0.00010885361
-0.00035824425
-0.00013756279
-0.00010084521
-0.00010210446
-6.5498908e-05
-2.792229e-05
0.00046218975
6.2619412e-05
0.00012093148
1.0460518e-05
0.00010886644
0.00023003977
-0.00034971233
-1.8072413e-05
7.4064533e-05
-0.00041400271
-1.4680102e-05
-5.2946516e-05
-0.00039293736
4.4998266e-05
-3.4997378e-05
8.8213682e-05
-0.00018608969
0.00031444212
-0.00017068374
9.1865141e-05
9.723625e-05
1.2104972e-05
0.00020070636
-1.8532847e-05
9.9782833e-05
4.3140144e-05
7.6083424e-05
1.446608e-05
-3.0099932e-06
-0.00020998863
-2.5615405e-05
-2.2848958e-05
-0.00042942529
2.1669465e-06
0.00012108932
-7.511725e-05
0.00020511466
0.00020278108
4.0992569e-05
0.00020521549
5.7772474e-05
-0.00019277173
7.0574703e-05
-9.2691639e-05
-0.00022337147
8.4104127e-05
-0.0002016925
-0.00035931727
0.00012337273
-0.00025640369
-0.00018245071
0.00015228191
-1.9171372e-05
7.5816468e-05
0.00014206507
6.4449553e-05
-0.00019347341
0.00022745204
1.9439151e-05
-0.00044931653
-1.4237727e-07
1.4899262e-05
-0.00043545226
-1.6125963e-05
2.0768255e-05
-0.00017007081
-3.3429843e-05
-7.9034741e-05
3.9759318e-06
-4.2107446e-05
-0.00016626419
0.00013500985
-0.00013081961
0.00010892062
0.00021695183
5.9088125e-06
0.00012177016
0.00015937291
4.0540572e-05
3.0145417e-05
-6.8241331e-05
2.2294959e-06
-5.1846287e-05
-0.00026745099
-8.8015509e-06
-0.0001700333
4.1249937e-05
-2.5167391e-05
0.00015498415
-7.1849568e-05
0.00020902186
0.00023320577
-0.00012774003
5.9978913e-05
0.00021698812
-0.00033483215
1.3374459e-06
0.00018356471
-0.00039397469
1.339537e-05
0.00013430472
-0.00040021668
5.6539296e-05
3.4794137e-05
6.4513196e-05
0.00033528142
-2.0839299e-05
0.00045833696
-2.5819292e-05
0.00047173522
-3.1931109e-05
0.00055416262
-6.3439783e-06
0.00036506462
-2.0890639e-05
-1.6440535e-05
-4.792014e-05
-4.6368393e-05
-4.5189391e-05
7.3346362e-05
-7.8722184e-05
7.3564004e-05
-0.00019298937
6.8765526e-05
-0.00021857299
-3.2685025e-05
-0.00025786671
1.6799136e-05
-0.00023193486
0.00020481828
-0.00011220268
0.00014797222
-0.00013662736
-0.00018268973
-0.00011865457
-0.00046594162
-0.00015220037
-0.00049768243
-0.00013832999
-0.00039402322
-9.9683271e-05
-0.00017719971
-8.1813656e-05
0.00010553407
-6.5781946e-05
0.00029266263
-2.7755642e-05
0.00026973357
-4.5312263e-05
0.00017877281
-0.00017649023
0.00035293848
-0.00013291573
0.00039754098
-0.00011645208
0.00037078638
-0.00010098543
0.00020821332
-0.0001722591
-1.7705152e-06
-0.00018399087
-0.00015566789
-0.00024631932
-0.00012087376
-9.7895136e-05
0.00014219552
-3.8715803e-05
-0.00021748511
0.00016980131
-5.671626e-05
-0.00025831425
9.9991076e-05
-9.6426598e-05
-8.1635287e-05
-0.000186533
-1.7727423e-05
0.00012626141
-0.00023345683
8.9249062e-06
0.00022741907
-0.00011217156
-1.1677817e-05
0.00019008711
7.1927001e-05
-4.394526e-06
5.8348433e-05
0.00013535583
5.1516748e-05
-6.924674e-05
0.00010185493
0.00011195174
-4.317498e-05
-6.4782244e-05
0.00015046429
4.7561206e-05
-0.00015345224
0.00018205774
-9.9371107e-05
0.00012723626
0.00010052905
-0.00026276585
0.00014277901
3.7273993e-05
-0.00028606737
-1.7655291e-05
4.9551795e-06
-4.8781064e-05
-0.00026283934
-1.2568692e-05
0.00015632506
-0.00018684948
-3.6363644e-05
0.00020506514
-7.1286944e-05
7.6537735e-05
0.00011495803
0.00010122082
6.3198581e-05
5.266838e-05
0.00015849764
-6.2764412e-05
1.0667709e-05
0.0001426996
-6.7021873e-05
-7.3561437e-05
0.00016121301
-1.0465567e-05
-0.00014780794
0.00014994028
-6.1841291e-06
-0.00013118488
9.0322146e-05
-2.7382854e-05
-2.130883e-05
-8.6854758e-05
-4.9652574e-05
0.0001430644
-0.00021300398
3.0140541e-05
0.00013984007
9.4850171e-05
-8.2269194e-05
3.5850935e-05
0.00015731927
-6.0594564e-06
1.8087917e-05
1.5666609e-05
0.00012221746
0.00016031842
-0.00021082894
0.00017334527
0.00013272237
0.00012715318
-0.00029554256
0.00060654561
-8.8893535e-05
-0.00047824549
0.0004773831
-0.00015717968
-0.00035960429
7.2811415e-05
-0.00017345157
-1.8120694e-05
-0.00049493956
-7.1598184e-05
0.00025258077
-0.00051871098
-2.7710273e-05
0.00047773516
-0.00032518183
-6.2537897e-05
0.00026912505
0.00031544624
-7.9799377e-05
-4.0319322e-05
0.00039623911
1.9369091e-05
-0.00016640477
0.00011889697
0.00024496385
-0.00015287629
-0.00021120577
0.00030200045
0.00011060971
-0.00048840072
0.00016458517
-1.8936046e-05
0.00022584221
0.00011628988
-0.00042932795
0.00052578118
1.3480111e-05
-0.00035395779
-0.00014728172
-1.4902268e-05
-2.9267562e-05
-0.0006099594
-3.5696069e-05
0.00028186685
-0.0004463012
-8.5650501e-05
0.00048632008
-0.00025426022
3.0060827e-05
0.00045815329
0.00017732164
5.6016477e-05
0.00034041884
0.00047259457
-0.00016418783
1.4929034e-05
0.00063631921
-0.00017863882
-0.00027621407
0.00065183875
-9.8108493e-05
-0.00029806927
0.00028436178
1.4204224e-05
-0.00024611231
8.9569732e-05
8.7577318e-05
-0.00010846149
-0.00028686031
7.1659244e-05
0.00015118455
-0.00057694202
7.3429286e-05
0.00027577438
5.2276194e-05
-9.3706511e-05
-6.3447946e-05
0.0006684343
-0.00013125436
-0.00022085948
0.00022507585
0.00012285749
6.7765064e-05
-0.00056817806
0.00019329857
9.4127758e-05
0.00027017476
5.3230841e-05
0.00059276513
-3.6792575e-05
0.00023936337
0.00038611074
-3.9359703e-05
0.00037339919
-1.2658925e-05
8.3601483e-06
9.676115e-05
-8.9924392e-05
-8.2741768e-05
-5.1238258e-05
-0.00033329984
-7.1379238e-05
4.1128756e-05
-0.000445483
4.8473005e-05
0.00011591203
0.00014910896
0.0001693899
0.00011861179
0.0002169273
0.00021406821
0.00016280381
-4.6839091e-05
8.0875947e-05
-2.1864686e-05
-0.00011764699
3.9347001e-05
-0.00031974463
-9.8805043e-05
-5.6279283e-05
-0.00014903916
0.00011820045
-2.35392e-05
1.9235327e-05
0.00043684462
-3.0797071e-05
6.3894918e-05
-0.00014271273
7.1753959e-05
1.8942444e-05
-0.00046343904
-2.4342182e-05
-1.2297542e-05
-0.00030726855
-0.00014274004
-8.3905041e-05
-8.2454646e-05
-0.00025624681
2.6841911e-05
6.928793e-05
-0.00017787254
0.00011025465
0.00032337785
-0.0001216555
1.9722282e-05
0.00058979342
8.4717148e-05
3.7772701e-09
0.00059479872
0.00011557926
0.00013541889
0.00014720473
-8.6483118e-05
0.00026057935
2.3713588e-06
-0.00017552487
8.7571487e-05
-7.6127235e-05
-0.00010322412
-0.00025581735
-0.00013506355
-3.5870224e-05
-3.1727692e-05
-0.00014516543
8.22184e-05
9.9786499e-05
0.00049987154
1.897614e-05
0.00011852015
0.00012457596
6.7086128e-05
-0.00016162491
-0.00013933579
-0.00010369896
-4.3637393e-05
6.435392e-05
0.0001932272
0.0003066538
-7.7799613e-05
0.00041049585
0.00015269378
2.8253273e-05
0.0003059077
0.00013626911
5.5442949e-05
0.00017140156
7.8900391e-05
-1.9852569e-05
0.00016382433
-0.00031436753
-3.6970497e-05
0.00013321522
-0.0004325623
1.9855348e-05
0.00028600891
1.7019778e-05
0.00018441016
0.00030669611
0.00023981918
0.00016163642
-2.2606451e-05
0.00029849236
5.4545816e-05
-0.00039944947
0.00025974871
8.3551456e-05
-0.00047244147
-8.7293544e-06
0.00010628905
-0.00031556011
5.6993392e-05
5.6607609e-05
7.3532355e-05
0.00011423459
7.5582639e-05
6.3414353e-05
-4.1096643e-05
0.00013595395
2.1311339e-05
-0.00043655625
1.5077846e-05
-1.1651084e-05
-0.00024143932
-4.899277e-05
-0.00017475724
0.00019964562
-0.00015242395
-0.00016520136
0.00015620381
-0.0001385792
-7.787799e-05
0.00017881505
-7.358016e-05
3.4549515e-05
0.00037036345
0.00011291129
0.00021552578
0.00032542732
0.00012893571
0.00027451419
0.00015298787
-6.254204e-05
0.00020544681
0.00019815263
-0.00013551545
3.0385565e-05
0.00024383186
-0.00017006525
-0.0001270644
0.0001238578
0.00010755047
-6.3722352e-05
-0.0001118089
-3.6719678e-05
0.00032661049
-9.5834182e-05
0.00020671031
0.0004472296
-5.8793494e-05
7.6145688e-05
0.00031244174
2.1045001e-05
3.0946358e-05
0.00031893583
1.4381702e-05
0.00028540893
4.0556217e-07
0.00041608347
-3.8000444e-06
0.00052386824
-3.4467739e-06
0.00059150365
4.9210053e-06
0.00027652191
-2.0276426e-05
-0.00015999752
-4.3963015e-05
-0.00018097942
-7.1877105e-06
-4.2040559e-05
2.2158136e-05
5.8877977e-05
4.5844606e-06
0.00014842272
-4.8369024e-05
9.0823636e-05
-0.00020899698
0.00013981049
-0.00022392832
0.00028754973
-0.00014570733
0.00027384292
-0.00016401718
-0.00012581244
-0.00015555546
-0.00038103689
-0.00013841524
-0.00033076552
1.1044261e-05
-0.0002984243
2.4179336e-05
-0.00020861807
7.1951661e-06
3.1070973e-05
6.4892477e-05
0.0002002233
0.00012851936
0.00015822847
0.00014967045
0.00023538877
-5.5497895e-05
0.00037825649
-3.1951583e-05
0.00040637368
-2.0711481e-05
0.00021914482
-2.5565479e-05
3.4325789e-05
-8.3274269e-05
-0.00010928653
-9.9172056e-05
-0.00015604959
-0.00017851127
4.2012478e-05
-0.00012485516
0.00014532026
-5.7445432e-05
-0.00023769377
0.00014431071
-8.5278955e-05
-0.00017399087
-2.9244405e-05
-0.00012942292
-3.7191049e-05
-0.00015161577
-1.3186498e-06
0.0001267701
-0.00019014425
3.5823068e-05
0.00018805738
-0.00010234743
3.100223e-05
0.00025865776
-0.00011402921
4.0181273e-05
0.00021257143
4.3243168e-05
5.655286e-05
0.00011924696
0.00015182542
5.4799311e-05
7.1598233e-05
0.00012340969
7.5322954e-05
4.0671756e-05
0.00014601385
6.8519676e-05
-7.1950114e-05
0.00013495447
7.9288751e-05
-0.00021304646
0.0001496276
3.0237842e-05
-0.00024617756
-2.6143099e-05
6.6490472e-05
-5.1353415e-05
-0.00029616708
8.8225787e-05
9.925074e-05
-0.00023486236
4.5940457e-05
5.8759164e-05
6.1828054e-05
5.4294794e-05
8.3799866e-07
0.00013147016
-1.3600075e-05
1.7149911e-05
6.1688868e-05
-0.00014184605
0.00014378527
-8.9256955e-05
-0.00010704067
0.00013115952
8.3987898e-05
-8.2404031e-05
6.2563969e-05
0.00017059679
-0.00010903728
1.4671764e-05
0.00014231273
-0.00012427345
-8.2395347e-05
0.00016253278
-0.00011688425
-1.1225428e-05
2.0392326e-05
-6.3277856e-05
0.00024722099
-0.00026316004
-8.0456194e-05
0.00021795246
0.00011306335
-8.7671623e-05
0.00017088548
0.00014544987
2.4437027e-05
0.00013419105
9.4397308e-05
0.00011730379
0.00015144475
0.00011139024
-0.0003423713
0.00057515726
-0.00017635923
-0.00042330641
0.00029720178
-0.00022913564
-0.00025352295
-0.00015628045
-0.00021619899
4.3390729e-06
-0.00041332326
-6.7752718e-05
0.00021290834
-0.00044994993
2.3526133e-05
0.00029420352
-0.0002725945
2.6413997e-05
0.00041774431
-0.00037347894
5.6109557e-05
0.00039840733
-4.2890217e-05
0.00012483945
0.00012423438
0.00050206294
0.00016889929
-0.0001925063
0.00057371969
0.00016843113
-5.8025565e-05
0.00014904878
2.7069516e-05
-3.2483728e-05
0.000124121
0.00010158152
-0.00026333737
0.0003383188
5.5642549e-05
-0.0001863062
-0.00020710205
8.9025512e-05
4.7355809e-05
-0.00066666812
0.00010114296
0.00030066096
-0.00057276032
-1.0576972e-06
0.00028507915
0.00017268914
-6.5218449e-05
-1.412e-05
0.00062094681
-0.00013426102
-1.5099955e-06
0.00011530884
-0.0002304178
0.00021903713
-0.00030571854
-0.00018272436
0.00028756181
5.9849057e-05
-0.00014249432
0.00014380006
0.00050627153
-0.00017770875
-0.0001687773
0.00063710212
-9.4634719e-05
-0.00044973865
0.00059145446
-7.6301088e-05
-0.00026645004
-2.0148505e-05
-6.931849e-05
0.00013169152
-0.00066975627
-8.5251847e-05
0.00016416068
7.2408858e-05
-0.00012306904
4.9619058e-05
0.00043526907
-5.2420089e-05
0.00015714023
1.6089068e-05
0.00016408563
0.00040161672
0.00017714302
8.410061e-05
0.00055027485
-9.6010772e-05
0.00027499701
0.00017356997
-0.00010662431
0.00027878373
-8.3380534e-05
-6.8326487e-05
0.00012577308
-0.00022289054
-0.00012016383
0.00012120112
-0.00046468322
-5.207399e-05
0.00011554787
-0.00032306502
0.00010459677
-0.00013908082
-0.00011287523
0.00016341488
-8.1868833e-05
-8.7289256e-05
0.00020125526
1.556654e-05
0.00034002197
0.00014548154
-2.7583255e-05
0.00050258714
0.00015362935
-6.272115e-06
2.9364758e-05
4.2093602e-05
9.3641678e-05
-1.8230188e-06
2.4910281e-06
0.00025425286
0.00020522647
-5.8315924e-05
0.00023359945
-5.9141099e-05
-5.5553583e-05
-4.7625198e-05
-0.00022753897
-0.00018224668
-0.00013807212
-0.00038292307
-0.00024213037
-3.9255168e-05
-3.2706549e-05
-0.00014966807
0.00010043571
0.00045891746
-0.00015553405
0.00015692408
4.8293131e-06
-6.766433e-05
-4.6619797e-05
-9.1151499e-05
7.3693995e-05
-1.454669e-06
-2.3361082e-05
0.00015362428
6.9584691e-05
0.00038250168
-3.3752618e-05
1.7648237e-06
0.00058575429
-5.635717e-05
0.00010449275
0.00047949099
-9.3988573e-05
0.00023552026
-0.00012052442
-6.6521829e-05
-9.5884931e-05
-0.00030368619
4.7553502e-05
-0.00018405895
3.5421919e-06
0.00017601682
-0.00012108063
0.00027325739
0.00016611948
-0.00010577503
-7.3920662e-05
-2.8994839e-05
0.00025106448
0.00010913112
0.0002878535
0.00028129058
-9.6668852e-05
0.00039022571
0.0001011462
-1.695172e-06
0.0002404498
0.00013018888
-8.3505576e-06
0.00014781885
-0.00014739386
-2.7183036e-06
0.00012018221
-0.00047702641
3.0093245e-06
6.5537128e-05
-0.00028175077
3.3186176e-05
-5.145312e-05
0.00012394521
6.4579964e-05
-0.00018958261
0.00020853626
3.9403947e-06
-7.4700405e-06
0.0001660405
4.641473e-05
0.00021197984
0.00026175102
0.0001049377
0.00014037511
0.00016030694
4.6951614e-05
-6.1000977e-05
0.00032905743
-7.2896754e-05
0.00013014822
0.00014215622
-5.2496307e-05
4.1996883e-05
0.00022896338
-6.3999183e-05
-7.108154e-05
-8.6852785e-05
-1.2529916e-05
-0.00012136342
-0.00037080695
-1.0827009e-05
-1.0041813e-05
-0.00015445508
-0.00014199702
0.00035563723
4.7038268e-05
-9.2379037e-05
0.0001156816
0.00026834782
-9.7143026e-05
-0.00026067059
0.00036679823
3.1313762e-05
-0.00047032895
0.00026445417
5.0778835e-05
-0.00018199143
2.2701396e-06
2.9351982e-05
0.00011338804
0.00024644292
-9.1583547e-05
0.00028044973
0.00023510105
-9.2737002e-05
0.00017223584
0.00015083596
-5.5596038e-05
3.8367807e-05
-0.00023942535
3.2887503e-05
2.4946856e-06
4.783133e-05
0.00019829428
-1.1596438e-05
0.00022701377
0.00013648041
-0.00032132016
0.00033737775
-7.0628344e-05
-5.7932176e-05
2.0581914e-06
0.00030564886
-2.3952718e-05
0.00041968838
-1.6693359e-05
0.00054186098
4.5695013e-06
0.00038914122
1.0246907e-05
-0.00011405989
5.8982765e-06
-0.00043569272
-4.0809612e-06
-0.00034328243
2.4347214e-05
-0.00016784156
5.5253529e-05
-6.5407772e-05
6.8191169e-05
7.0299676e-05
7.7674548e-05
9.3374744e-05
-7.1765105e-05
0.00022871311
-3.0209257e-05
0.00029896107
-7.3799073e-05
0.00041785398
-5.3946714e-05
0.00023526812
-5.9822377e-05
-0.0001356874
-0.00013826667
-0.00031969697
4.059876e-05
-0.00026876226
2.0282899e-05
-0.00018772281
0.00019450355
-1.7669266e-05
0.00026163717
0.00011761221
0.00025769206
3.1902286e-05
0.00023765052
0.00014719949
7.5647825e-05
0.00025551461
9.4834343e-05
0.00027529732
0.00011034177
-3.8987259e-05
4.9293734e-05
-0.00014776106
7.3330847e-05
-8.6804905e-05
6.6885555e-05
6.4814806e-05
7.2467586e-06
4.8895103e-05
-0.00014159907
0.00015328446
-6.6954201e-05
-0.00021034846
8.8134843e-05
-0.00010067448
-1.9187243e-06
-0.0002407394
-9.7476545e-05
-9.6450562e-06
3.9128751e-05
-2.5908608e-05
-3.9595353e-05
5.8271296e-05
1.1955702e-05
0.00012306654
-0.00019523603
6.4803229e-05
0.0003166993
-0.00026209993
0.00010706583
0.00030991712
2.252161e-05
4.2223753e-05
0.00021973941
0.00017077713
-2.4317001e-05
0.00017315914
0.00016615995
-4.3232424e-05
0.00015404447
0.00014750045
-5.8008029e-05
0.00010429931
0.0001611751
-2.9728448e-05
4.6416898e-05
0.00016075092
-7.0941093e-05
-6.1492705e-05
0.00017757103
-9.8070096e-05
0.00012744542
-0.00019172085
0.00014299382
-0.00031382348
0.00018027545
-0.00028655828
9.2088094e-05
-0.00013029624
-7.8387694e-05
-0.00022962976
-0.00012196004
0.00012203017
-0.00033899162
2.8159311e-05
0.00023070001
-0.00017422493
-1.9537829e-05
0.00015025606
0.000102129
-0.00013105565
5.8422446e-06
0.00016536635
-0.00014686081
-9.8529889e-05
0.00014201765
-0.00015619805
-5.6992324e-05
4.3019763e-05
-0.00014887806
0.00014661301
-0.00021744373
-6.8450721e-05
0.00030354546
-0.00017793391
-6.6525424e-05
0.00023713489
0.00011556202
-2.1188527e-05
0.00011889597
0.00018156988
5.6438122e-05
0.00015663437
7.5345361e-05
-0.00041268118
0.00058431335
-0.00019470695
-0.0003363057
6.557931e-06
-0.00022393421
-5.5704455e-06
-0.00061175848
-0.00017591517
-5.4649555e-06
7.4833604e-07
-2.9477794e-05
2.4985021e-05
5.3969109e-06
4.5950539e-05
0.00017661072
-0.00046103075
0.00014058302
0.00039209524
-0.000648405
0.00022693011
0.00048117444
-0.00013208931
0.00019037118
0.00028342243
0.00049567176
4.1756672e-05
9.9756459e-05
0.00054887761
-3.0620558e-05
0.0002059648
0.00011174556
-4.3383934e-05
7.273487e-05
0.00041791866
-2.1932105e-05
-0.0002148821
0.0005293915
-2.5381061e-05
-0.0002966896
0.00034840403
-0.00011042312
4.2321901e-05
-3.1806173e-05
6.3319184e-05
-0.00027676749
0.00036001832
-0.00019531394
4.9658015e-05
-0.00017328449
1.6674294e-05
-0.00056600672
-0.00010602907
0.00010084151
-0.00068343217
7.7548985e-05
0.00024504277
-0.00048060441
1.9683908e-05
0.00022388831
8.6455583e-05
-0.00014088088
-0.0001984695
0.00062174482
-0.00012865538
-0.00048276714
0.00053808176
-0.00018806756
-0.00031411415
-3.715102e-05
-0.0001578007
-6.2331643e-07
-0.00052669291
-8.9493509e-05
0.00025938302
-0.00050723552
-5.3773768e-05
0.00035816928
6.2760955e-05
-9.8405284e-05
0.0002100446
0.00049864639
-4.8662121e-06
0.0004969644
4.6857582e-05
0.00014291839
0.00051885817
-0.00017347399
0.00030137097
-5.9420724e-05
-0.00019909823
-8.9890688e-05
-0.00010308918
-0.00018573413
-3.4042163e-05
-0.00019647371
2.1209688e-05
0.0003307734
-0.00051574586
0.00010425321
9.2864736e-05
-0.00020459448
8.6069161e-05
-0.00029432793
-0.00012106596
2.3268507e-05
-0.00016912829
-0.00011722467
6.1190978e-05
5.5040784e-05
0.00039779837
1.9185872e-05
8.8923116e-05
0.00049021782
0.00017840682
3.7180712e-05
-4.6650578e-06
0.00021024663
1.8906094e-05
0.00030199798
0.00013668633
1.8634524e-05
0.00049066581
-1.9318663e-05
6.1094483e-05
0.00025039049
7.3272737e-05
-0.00015210303
-6.5963939e-05
-3.9574505e-05
-4.2430064e-05
0.00018681638
0.00030608114
-0.0003843485
-7.0038726e-05
0.00014483508
-0.00034518272
-0.00012724226
-0.00020780308
-0.00013109461
-0.00012600539
-0.00034494669
-0.00025390028
6.4063774e-05
-0.0001073851
-0.00022101788
3.6159264e-05
-5.0000705e-05
0.00055502686
-4.7023608e-05
3.8001175e-05
0.00040238436
-4.6293061e-05
0.00028242066
-0.00036781367
1.9721333e-05
3.9524334e-05
-0.00026533644
2.9093354e-05
-0.00028060926
-9.7389649e-05
8.6304526e-05
-0.00015328441
-6.0158734e-06
0.00010757145
-9.6285159e-05
0.00038204616
3.0606128e-05
0.00042425554
8.5554814e-05
0.00033725067
0.00022184853
-0.00013690988
0.00024754437
0.00016524824
-0.00013665784
8.8690619e-05
0.00017369849
-0.00012628448
-4.0950259e-06
-0.00012819186
2.1785487e-05
-1.4677968e-05
-0.00054521358
4.3059979e-05
-6.1908133e-05
-0.00018911162
6.4933479e-05
-0.00018254224
0.00010875995
-4.4611843e-05
-0.00026911672
7.7760596e-05
-0.00010447039
6.8833646e-06
0.00014631924
2.1893773e-05
0.00019941757
0.00024713449
0.00015548683
-0.00010064014
0.00030856646
3.3777811e-05
-7.9335653e-05
0.00017027789
3.7518862e-05
0.00018856679
0.0002445183
-7.4251235e-05
0.00033049196
4.4466139e-05
0.00029972279
-0.00013386377
-8.7887825e-05
0.0003372091
-2.6068353e-05
-1.70001e-05
6.7380312e-05
-0.00050832792
-6.1848277e-05
-4.0069862e-05
-0.0002649193
-6.995625e-05
-0.00017849413
0.00010817084
-6.9527416e-05
-0.00025468095
-0.00020906415
8.2129536e-05
-0.00021980764
-0.00038224919
0.00015570998
2.931187e-07
0.00024195037
1.392181e-06
0.00015166221
9.41942e-05
6.4084062e-05
7.1165682e-05
-0.00033715513
-5.7580621e-06
-6.0933249e-05
-0.00015660095
5.6250926e-05
-0.00021014351
0.00020091857
4.919631e-05
-0.00032410019
0.00020113792
4.3283276e-05
-0.00018099923
0.00014652372
2.1793124e-05
0.00020924624
3.6068251e-05
0.0002185478
-2.0651991e-05
0.00036743258
-3.2989893e-07
0.00048640874
5.9291828e-05
0.00029654274
7.1921038e-05
-0.00024705516
4.2826041e-06
-0.0004360965
-4.1512525e-06
-0.00032129402
1.8304688e-05
-0.00023848168
5.0201788e-05
-0.00013616191
0.00011219063
2.8557474e-05
0.00016008967
0.0001815083
8.3850535e-05
0.00019446401
0.00012711293
0.00028180258
8.3380662e-05
0.000272322
7.8635849e-05
0.00027757828
0.00030117694
-9.6322268e-06
-0.00017723584
-0.00019380077
0.0001137528
6.7160008e-05
0.00010884724
8.4096957e-05
3.1690962e-05
-7.4779261e-05
1.4277552e-05
0.00011994972
0.00012286921
0.00017523154
0.00013374672
-0.0001622276
0.00011064577
-0.00034739471
7.7859881e-05
-0.00021303332
0.00013988801
-0.00014930826
0.0002042984
-0.00015333512
0.00015779732
0.00010480622
-0.00014995381
0.00014940429
-6.3739998e-05
-0.00023546391
8.5485014e-05
-9.6885291e-05
-0.00012461121
-0.00017677064
-2.9947098e-05
-3.9142177e-06
-0.00018188036
3.67664e-05
0.00013458375
-0.00016032879
3.423371e-05
0.00026308523
-0.00014428644
8.0297047e-05
0.0002440293
2.9930671e-05
9.6524975e-05
0.00011342089
0.0001486315
2.5212988e-05
-4.4501897e-05
0.00012649864
5.0865199e-06
-9.4229382e-05
6.8905282e-05
-6.1030302e-05
0.00020035004
-0.00036720298
1.1309362e-05
0.00014504476
7.1166167e-05
-4.2094935e-05
0.00014348872
-6.8227875e-05
-8.5818501e-05
3.9288283e-05
-8.5692545e-05
0.00017091217
-0.00033687724
-4.6059575e-05
0.00012560135
6.9453894e-05
3.5640756e-06
1.0928996e-05
0.00010372083
-7.7889689e-06
7.4079644e-05
-0.00016265491
-3.6619147e-05
-0.00011291277
0.0001219395
-8.4334136e-05
-0.00023533769
2.2999925e-05
-6.0010632e-05
-0.00014820515
-0.00020580724
-3.3962594e-05
2.1685059e-05
-0.00029361894
5.2684267e-05
0.00024460402
-0.00033083056
4.0203818e-05
0.00030676555
-0.00014583525
6.4575922e-05
0.00016028281
0.00014219879
6.4114373e-05
0.00016321054
7.4006957e-05
-0.00041487695
0.00057594786
-0.00020637357
-0.00035847448
1.4671433e-05
-0.0002095231
-0.00011152189
-0.00046398265
-0.00013565575
4.4141673e-05
-0.00042504519
5.8023469e-05
0.00022733323
-0.00039606192
9.8492114e-05
0.00046792629
-0.00041232463
0.00016802814
0.00052164651
-5.2353917e-05
0.00025549447
0.00019601201
0.00050721127
0.00015742592
-0.00020975867
0.00062080714
-4.6781154e-05
-0.00019075692
8.1001238e-05
-6.1718261e-05
0.00020572625
-0.00080588142
-1.1886577e-06
0.00032073249
-1.0667489e-05
-5.5104683e-05
0.00052828036
-8.9440209e-05
-0.00014118905
-1.9305198e-05
2.6498054e-05
7.8346119e-05
-0.00070815877
4.5717298e-05
5.9995362e-05
5.9388786e-05
0.00010596486
0.00010402901
2.3862771e-05
5.5508319e-05
0.00014937572
-0.00044936738
0.00010048488
-0.0003844677
0.00054648319
-1.9355645e-05
-0.00051652071
4.3175539e-05
-7.6190165e-05
-0.0003272236
-0.00050396043
-4.8944618e-05
-0.00015298102
-0.00055758992
2.3488323e-07
9.4409995e-05
-0.0006021514
-2.9843952e-05
0.0002891623
-0.00043982483
8.319772e-07
0.00031488675
9.0219843e-05
2.1388276e-05
0.00048745049
3.7504383e-05
0.0001165894
0.00049888627
-0.00021300179
0.00027397342
-7.7061371e-05
-0.00026474945
3.7868765e-05
-0.00016856767
-0.00024504444
8.0652352e-06
-0.00045742718
8.3395204e-05
5.9611598e-05
-0.00050060514
0.00015725006
-0.00015152077
-0.00014938707
3.426397e-05
-0.00013512017
-9.1436849e-05
4.5950838e-05
-1.0806527e-05
0.00041592312
2.8165485e-05
0.00015116832
0.00049994374
-2.192557e-05
0.00023157914
4.5031731e-05
0.00013396551
-0.00027084146
-0.00012096232
2.7748145e-05
-0.00015329119
-3.4639277e-05
4.3107846e-05
0.00042220948
-6.6538967e-05
6.8999621e-05
-0.00017498758
1.6644042e-05
-0.00011019821
-0.00051462644
-0.00014157676
6.9425269e-05
-0.0002056456
-4.0594481e-05
0.00020931883
-0.0001259998
7.403279e-05
3.1254507e-06
-0.00018537686
-2.1637882e-05
4.4052121e-05
0.00044229251
1.62404e-05
0.00021170991
-0.00034708904
0.00017631372
0.00016435132
-0.00045506407
1.8183563e-05
-0.00013399835
-0.00010960858
-0.00012053833
-0.00039805505
-0.00010613407
-0.00014565611
-0.00046669452
-0.00011183695
-0.00015177698
-0.0002102873
-2.1314528e-05
-0.00011426674
0.00038817122
-2.5453238e-05
0.00028223657
0.00022623091
-0.0001464911
8.6045199e-05
0.0002105393
-0.00022806714
-4.5360582e-05
-4.2926513e-06
-0.00015915373
-5.6918108e-05
-0.00047583666
5.1752492e-05
-8.0026191e-05
-0.00053460993
0.00010017285
-0.000196929
-4.3110769e-05
7.5559981e-05
-0.00036286631
8.9585819e-05
-5.9697212e-05
-7.3123649e-05
8.3810142e-05
-6.2100069e-05
0.00027338756
8.8137853e-05
8.7188456e-05
0.00017161203
0.00017207677
0.00013021731
-0.00016233903
0.00020664031
4.012625e-05
-0.00035941746
0.00015029676
4.9661274e-05
-2.9475962e-05
1.8016756e-05
-0.00018429333
3.8792018e-06
-5.6421712e-05
-7.8865957e-05
-0.00057672708
-0.00011328297
-9.1645575e-05
-0.0002305062
-3.1887178e-05
-0.00024250574
-3.809554e-06
0.00011079946
-0.000282449
-8.8841983e-05
9.9118367e-05
4.4589346e-05
3.9549909e-05
7.7096431e-05
-6.6985886e-07
-0.00040606555
0.00016831977
-7.1098402e-05
-0.00040712813
1.6734529e-05
-0.0002044476
8.3943843e-05
-3.9523142e-06
-0.00037705992
0.00016154832
-4.5873777e-05
-0.00040373138
-7.927133e-06
-3.3955093e-05
-0.00034788175
-2.618362e-05
-2.9187435e-05
0.00010265359
-2.6295883e-05
0.00025394195
-4.8363029e-05
0.00044940794
1.4743403e-05
0.00044418912
6.0217995e-05
1.701766e-05
2.3255829e-05
-0.00046528283
-4.8026845e-05
-0.00046796389
-4.4580963e-05
-0.00033667014
-2.3403242e-05
-0.00019640268
-6.255537e-06
-7.6388254e-05
8.0314067e-05
4.4121154e-05
0.00021165704
0.00014552942
0.00018908258
0.00018069276
0.00024224635
0.00023459747
7.9837746e-05
-0.00025319437
-0.00026204257
-0.00012109396
-0.00026814599
-0.00011555553
-9.6412005e-05
-0.00014385257
1.4218583e-05
-0.00018519502
0.00017651564
1.2205869e-07
-5.243194e-05
-4.3371256e-05
-0.00030258593
-4.6328386e-05
-0.00023509239
9.4310172e-05
-0.00012828105
0.00019462498
-0.00013575415
0.00020384435
-0.00014622357
0.00014208309
6.1236236e-05
-0.00014961675
0.00013491505
-4.6500715e-05
-0.0001915528
5.2182852e-05
-0.00010466519
-0.00010698375
-0.00017449937
6.1057912e-05
3.1360329e-05
-0.00022345942
0.00012335422
0.00018264603
-0.00015944619
4.2308576e-05
0.00023138585
-4.3490305e-05
7.4288759e-05
0.00010520081
0.00013962662
8.3479429e-05
-7.4170338e-05
0.00014253913
5.9876449e-05
-0.00022722675
0.00013282415
2.6533566e-05
-6.6598981e-05
-0.00026448222
4.1096211e-05