/*--------------------------------*- C++ -*----------------------------------*\
| =========                 |                                                 |
| \\      /  F ield         | OpenFOAM: The Open Source CFD Toolbox           |
|  \\    /   O peration     | Version:  v2012                                 |
|   \\  /    A nd           | Website:  www.openfoam.com                      |
|    \\/     M anipulation  |                                                 |
\*---------------------------------------------------------------------------*/
FoamFile
{
    version     2.0;
    format      ascii;
    class       volScalarField;
    location    "680/bottomWater";
    object      T;
}
// * * * * * * * * * * * * * * * * * * * * * * * * * * * * * * * * * * * * * //

dimensions      [0 0 0 1 0 0 0];


internalField   nonuniform List<scalar> 
1460
(
971.18484
967.08698
965.75684
964.09253
962.82843
961.5912
960.92205
952.73427
948.23997
944.57314
938.58955
940.35849
929.88175
925.6215
922.47668
919.95171
918.32325
918.7722
920.50192
922.50163
924.7597
923.4412
921.99754
925.30694
928.47526
930.34904
926.50418
923.11761
924.8665
929.14766
968.38787
964.73829
963.90663
963.12118
961.99435
959.37936
958.95975
948.79224
946.21162
940.47525
933.29328
935.69849
927.69578
922.22596
920.37673
918.89004
917.93682
918.53636
919.03427
920.16457
923.14174
922.54129
922.21219
923.38
924.97683
924.32485
921.99339
921.68186
923.19863
925.3915
966.50855
965.04225
964.19672
963.94771
961.98439
959.49208
958.00932
949.39477
948.2964
939.89798
932.89595
930.60932
927.23872
922.64044
920.44712
918.55807
917.61364
918.50704
919.3975
920.54091
922.66236
922.45787
922.09727
924.41438
925.14661
924.20257
921.78824
921.56713
923.24125
924.72172
966.31137
965.02817
964.3549
964.34347
964.18351
960.56413
956.1412
951.27515
948.67461
942.10538
935.61698
931.67608
927.78002
925.8282
921.11466
917.27067
918.59192
919.48285
920.4588
921.05656
922.41726
921.62861
920.75688
924.30068
924.58787
921.81668
920.52853
921.19085
923.28016
923.60492
965.94122
965.43113
965.07248
964.63752
964.34209
961.81736
952.84593
952.23276
946.92844
942.34113
938.71853
936.66582
934.12626
930.72846
921.5299
916.51247
917.33669
918.42429
919.41849
920.25008
920.79959
920.07773
919.81163
919.98438
919.59283
919.17201
919.59293
921.44907
924.39901
923.41363
971.06208
968.72679
967.53434
965.90309
963.98831
963.1395
963.08362
960.68901
954.99875
948.09495
937.37876
939.71443
930.34938
926.80331
924.02933
918.77747
919.57051
921.55633
922.72521
924.94334
926.38357
925.48462
924.30127
924.22667
922.92234
925.40891
928.36809
927.66925
926.51478
930.62693
968.08121
966.81402
966.20813
965.7886
963.7759
961.1908
960.97283
959.02033
948.50062
937.77528
933.08109
936.82943
926.67227
924.57633
923.9819
916.8847
915.86597
917.3612
918.01086
919.71222
923.73311
923.79944
923.2645
923.24482
923.01592
923.86798
925.31925
924.26143
925.8288
927.8419
967.94667
966.63126
965.95709
965.86974
964.16851
959.44953
959.99365
956.73054
948.04422
939.55859
933.01738
932.93403
927.57452
925.61598
924.52646
916.80768
913.81174
915.94987
917.50368
919.76291
923.76087
922.9481
922.86768
923.29504
923.12213
922.64833
925.46214
924.89796
926.28473
926.21828
967.86421
966.8806
966.2792
966.22424
965.22882
960.06988
958.17778
955.4283
948.22193
933.45992
931.23324
930.0865
928.19149
926.96498
925.60268
917.07283
914.71987
916.45804
917.9484
920.2344
923.65273
923.14441
922.86123
923.14897
923.49753
921.54271
925.14529
925.1162
924.97748
924.84223
967.31542
966.7516
966.29266
965.9312
965.37132
958.89134
953.8646
953.62727
945.85944
939.13153
939.80269
937.25855
934.54629
932.46351
926.39596
916.51187
916.03172
917.42316
918.6201
919.93302
922.45718
921.82195
921.36947
921.56731
921.38016
920.6928
921.70395
924.58842
926.25031
924.3399
971.67806
969.90966
968.44571
967.52291
963.81424
962.97702
961.31729
961.74133
960.67965
957.0101
946.25805
943.27919
932.31893
928.10941
924.65507
916.80328
920.38851
919.99245
916.83076
918.76615
920.83638
922.07528
922.85661
926.44222
927.95222
923.27859
926.89564
929.54072
930.75382
934.26527
968.25978
967.27438
966.82864
967.1809
963.13086
961.09118
958.64111
957.73615
955.63668
944.95502
939.24498
938.97588
929.14807
926.93542
924.65025
915.8644
915.73445
915.29701
913.3651
917.3215
918.70593
919.94955
922.51465
924.16859
923.45994
923.04194
925.50356
926.89917
927.99123
930.03807
968.13014
967.29391
967.19983
967.25203
963.42816
959.76961
957.49297
954.85752
954.55304
944.85923
938.78329
938.27214
931.19464
928.84866
924.49453
915.05737
912.20941
913.93697
913.61936
918.18314
921.42382
920.34273
922.34675
924.05646
923.05459
923.12409
926.5642
927.47075
930.51057
930.0085
968.02985
967.75505
967.57025
967.38488
962.97475
957.77079
957.07195
954.28046
953.03516
943.79441
939.55394
937.75896
930.75637
928.29419
925.30553
917.87664
910.78937
913.33806
913.87945
919.76032
921.89793
921.21002
922.18555
923.52871
923.15101
922.22881
925.55432
927.23464
930.18372
930.37837
967.77231
967.58608
967.42985
967.21072
962.60562
954.07421
953.84598
952.63385
950.76688
944.94532
942.37229
939.4817
936.15515
931.58445
929.45885
920.17854
913.41669
914.28108
915.43079
919.17652
921.19835
920.20447
920.75592
921.46595
921.08953
921.23191
925.84378
927.22063
929.43141
928.52199
971.24423
969.56537
967.52704
970.32203
966.4723
963.10034
961.63115
963.29825
963.44303
961.0761
954.50074
951.34395
943.08893
933.53361
921.59391
915.55959
913.8017
912.02084
912.99201
915.97207
917.42702
918.3269
920.15985
924.39989
925.5949
923.40015
927.0257
930.1863
933.01972
937.78566
967.31044
966.28321
965.94844
967.12998
963.12024
961.07488
958.93582
959.06305
959.43853
955.95008
950.46881
946.80564
933.34993
923.37086
917.78458
911.45397
908.86844
908.1341
911.91994
916.72124
919.01858
918.38165
920.39629
923.02928
922.82638
922.53369
927.10586
928.28912
929.5225
932.51672
967.08635
966.20517
966.05053
967.00982
961.73384
960.73842
958.08303
957.31733
958.45975
954.17595
947.63522
945.52666
933.11512
922.42961
919.87658
911.7686
907.36199
907.88193
911.88945
917.02599
919.70313
919.27802
920.42979
922.64318
921.5145
922.42425
927.32984
928.62287
930.1035
932.43834
966.97249
966.73577
966.59891
967.03429
961.44262
959.15054
958.9515
958.68296
958.04538
952.70459
946.93509
941.39313
931.89188
925.13451
923.59661
917.59077
906.46337
909.30534
915.04233
918.90724
919.54657
919.37034
920.29192
922.21719
921.56353
924.02344
928.05796
930.00891
931.14031
932.89895
966.88889
966.86937
966.83286
966.82747
961.56426
956.8626
956.58546
955.71902
954.6872
951.12541
946.32536
942.90277
936.19438
930.39517
925.08159
915.76071
911.76033
909.28071
915.92539
918.23223
919.35082
918.82952
919.03407
918.94895
921.42155
925.9468
927.45029
928.84553
930.41284
931.62455
970.17192
968.32655
966.71313
967.40927
962.96179
963.0311
963.80324
964.35019
957.3107
948.9509
941.15486
942.03488
930.21721
903.72318
912.6258
914.99591
916.83866
916.46924
920.13497
923.03336
923.13653
924.64903
929.15101
931.17962
933.72046
937.67755
966.04715
964.9107
964.63627
965.60378
960.26675
960.73472
960.63033
961.04299
954.50312
947.79139
943.49919
940.45855
932.833
902.05896
913.2434
914.88889
916.33181
917.64205
920.71535
922.62312
923.02198
925.42766
929.07067
930.41253
931.43961
933.52938
965.89397
964.73469
964.51643
965.4074
958.88153
960.49855
960.84336
960.6885
954.30837
953.7725
944.08549
935.64244
929.67514
899.45569
913.49351
916.52286
917.64787
918.2521
920.34756
919.074
921.82995
924.80108
929.24925
930.80807
932.12424
933.46207
965.87244
965.0312
964.92601
965.23902
958.13746
959.62356
960.0676
959.91564
954.82914
954.47794
939.68792
928.02564
926.75361
908.21456
914.25098
916.9629
918.51689
919.20489
919.93646
918.45481
923.47489
927.34972
929.81691
931.09496
932.06966
933.17847
965.73689
965.47649
965.65323
965.7803
957.71911
957.37339
957.40719
956.66054
954.45362
952.7817
941.29547
936.60234
931.4049
906.12027
913.59188
916.09818
916.31888
916.48953
916.82438
917.77879
923.51783
926.42905
927.77445
927.92396
929.09936
930.53108
969.35331
967.04487
965.55677
965.24006
963.12208
963.88621
964.62862
957.95556
953.8266
951.51565
936.93069
939.28027
930.08813
914.53708
920.82696
919.70679
916.35343
917.41998
921.26935
923.0991
923.59957
926.32238
928.127
932.30126
935.84866
941.15875
965.14165
963.54211
963.34481
963.11724
961.08734
961.25943
961.66433
959.60648
954.68109
954.77887
938.1972
937.25097
931.69497
904.46603
918.57197
918.47282
917.47385
917.50979
920.58388
921.1809
922.12644
924.7548
926.23217
928.80373
931.69028
935.32125
965.21398
963.50826
963.31494
962.64133
960.31703
961.77143
961.71421
959.25377
956.52057
955.04973
938.76902
931.65843
928.98504
902.31301
916.5431
916.86442
917.57803
918.8478
920.76096
918.88622
920.39814
924.08605
926.14422
928.48175
931.14271
934.82573
965.26104
963.36721
963.80111
961.84091
959.97032
961.0764
960.97405
958.47779
956.05776
953.72796
935.76871
928.04046
927.14578
912.60175
917.0942
918.97815
919.02711
919.87204
920.5859
918.49145
919.26771
923.12823
925.53797
926.78549
928.59439
932.74224
965.03117
964.61393
964.30932
961.09754
960.87043
960.99149
960.73486
957.41184
955.70801
951.22743
937.81722
936.68213
930.99275
912.3582
916.55642
917.05558
917.85475
918.31713
918.29726
917.95848
917.84447
921.38345
926.09076
926.3372
926.98245
927.79327
968.41273
965.29469
966.37884
966.00206
962.23825
964.02311
965.33503
963.21233
955.16952
949.67277
943.7767
941.6852
935.44021
927.04509
923.99185
916.42357
915.26191
920.1304
920.51382
918.29177
917.25076
916.94264
919.49653
920.71251
921.78216
925.82892
928.62013
931.5268
934.84498
939.92758
964.82243
962.52823
962.02787
962.22183
961.41923
961.31398
961.8915
961.16914
952.74047
950.29781
939.42957
935.61196
930.54462
922.53207
919.07896
918.65172
917.25055
914.96665
918.09076
919.09521
918.7313
918.29913
920.58791
920.61636
921.30703
923.30867
925.96843
927.91604
930.12362
933.66039
965.17881
962.14318
961.00941
961.59916
961.27511
961.58621
961.7952
960.89182
953.63484
951.3329
942.31071
938.78879
931.49586
920.10464
918.52319
919.38811
917.0284
912.85502
918.08242
919.13333
919.13534
918.38703
920.39111
919.70039
920.99978
921.25817
922.62211
927.06395
929.95922
933.36984
964.54188
961.31955
960.10701
961.60794
960.39548
960.84345
961.8292
960.51104
958.34926
951.27321
941.65529
938.79423
932.36819
919.69095
918.87881
919.3209
919.09388
916.96041
918.71994
920.12704
919.75564
918.44171
920.05873
919.91153
920.06321
920.02225
921.99325
926.78225
930.32565
933.15193
964.5146
961.50712
959.7136
960.22985
960.50923
960.54223
960.38437
959.48997
957.60492
953.50346
948.56145
944.65051
935.13347
920.31893
920.48639
920.09424
920.05406
920.70642
918.06562
917.77629
918.54564
917.53616
918.50416
918.7895
918.85044
918.65502
921.01224
926.03066
928.97952
931.30988
968.74523
964.32013
967.516
965.85486
961.66696
961.72624
963.68015
959.63893
949.15921
947.47552
945.91649
944.36106
941.36132
939.05422
937.58415
934.15354
932.88862
927.23192
921.92547
919.79408
919.23324
918.64987
918.35114
920.21342
920.16842
922.08056
925.21994
928.43218
932.05227
937.13531
965.12157
962.74168
963.85993
962.84527
960.96205
958.84187
959.18877
956.87573
947.90715
946.29486
944.52525
943.07905
939.68537
935.35722
934.30262
934.13414
931.41916
928.37409
922.54858
921.68133
920.96132
920.26495
920.73343
921.22767
921.42325
921.92236
924.0953
925.84421
927.90805
930.98518
965.90399
962.4982
963.45205
962.80241
960.82487
957.91947
957.93871
956.8624
948.2224
947.45233
944.65344
942.2977
938.86385
932.53701
932.63103
934.80617
934.00646
927.42122
922.33604
921.87662
921.12462
920.21325
920.71161
920.82829
921.19033
921.81136
922.41703
926.38934
928.39933
931.06616
963.88034
960.46927
960.07075
961.72757
958.61396
957.48274
957.96389
956.86448
948.87589
948.40993
945.82622
943.26884
941.64593
933.23608
932.66909
933.25448
931.8327
927.69016
922.34416
922.18385
921.25253
920.12885
920.67046
920.89119
920.96544
920.75974
920.93817
926.26153
929.5819
931.19869
964.13684
960.12208
957.88256
957.61601
956.94766
957.11461
957.11537
956.60216
949.98303
950.39971
948.68961
947.42701
944.51058
931.74671
930.22428
930.17127
928.66243
926.45241
920.56663
918.4072
919.52009
919.06549
919.90709
919.79876
919.83953
919.51876
919.04723
924.0662
928.68552
929.97385
969.24573
964.9741
969.63893
966.71473
963.29816
959.50074
962.30998
954.28877
949.71363
947.58671
945.69601
944.76898
943.66882
942.31672
941.2679
937.80041
930.15671
917.70169
919.29542
919.53966
918.71504
918.11906
916.91195
918.3201
918.59693
920.68528
923.9474
926.68507
929.7057
933.09649
966.13163
963.54916
964.437
962.9442
959.50116
956.06165
955.64846
950.33624
948.33504
947.92587
944.88499
943.37528
943.85111
940.59265
939.32847
938.65391
936.45137
926.65724
921.20464
921.92351
920.68804
919.97652
919.8378
921.35964
921.79622
921.9804
923.76676
927.12948
927.78209
929.35529
967.74331
963.73616
964.52921
963.09354
962.18925
955.67558
953.40601
950.68674
949.53529
949.15816
944.96498
943.22868
944.70482
937.93747
936.72752
937.30205
937.00305
929.17462
924.71977
922.87548
920.99771
920.07851
920.05571
921.38351
921.59391
921.3253
923.71811
927.403
928.65036
929.42764
965.96641
960.74133
962.53405
963.23456
962.4975
954.87272
954.05865
952.13365
950.90301
949.63857
947.7468
948.04521
946.86249
939.01082
936.81722
935.35085
937.12926
928.97821
926.25004
921.8044
920.27959
920.15735
920.12326
921.3198
921.37198
920.82204
923.54862
927.43786
929.32363
929.50015
964.29427
958.89285
957.9974
957.62213
957.0207
954.86115
953.75203
953.91001
951.12516
950.68177
950.04641
949.40467
947.59116
933.82645
934.39011
934.26611
933.65719
927.62815
925.57369
919.54863
918.60696
919.12849
919.41642
920.10366
920.04913
919.49215
922.73505
926.22267
928.00717
928.40049
975.21989
971.82614
969.93241
966.24809
962.63897
959.15238
956.62103
956.23408
952.55415
949.99381
947.26071
944.62807
941.87346
938.55942
935.35012
931.01509
927.95845
918.2963
919.05806
918.59903
917.48432
917.68736
917.50851
917.88538
919.31979
920.51492
923.53538
925.93876
928.83583
932.11311
970.55136
969.99003
967.69635
961.94332
958.21394
954.9083
951.32691
953.28829
948.65014
946.47021
944.43154
943.06285
941.79803
937.56722
935.24568
932.55255
932.00893
924.82467
921.73437
919.64383
918.69429
919.46523
919.13427
921.08
921.78364
921.93503
923.26685
926.01439
926.14508
927.73874
970.09424
965.09166
967.53752
962.35911
959.40083
956.72355
950.73087
950.49625
948.71271
948.93318
944.35966
937.4727
938.07948
935.21355
934.28556
932.01833
927.97525
924.89735
923.14963
919.54596
918.84722
919.96159
919.95257
921.0454
921.46383
920.90872
923.22718
926.33548
927.36576
927.46962
967.58131
962.34325
963.17396
962.73115
961.35775
961.38168
951.53564
950.2466
950.32512
950.66265
945.69952
935.17495
932.45113
928.73474
928.38305
927.55193
926.2762
924.5477
922.84978
919.02477
918.29293
920.01427
920.32697
920.87705
921.17327
919.86633
922.7261
925.6345
927.21347
927.16461
961.21259
959.70015
957.00512
958.19396
957.86917
957.92195
951.18833
951.74726
951.38874
950.49847
938.90546
934.74889
935.87237
928.24987
926.397
926.32548
925.76957
924.24014
923.47562
918.71316
917.54828
917.88168
918.40076
919.16882
918.58927
918.03894
922.38665
924.9572
925.6128
925.54184
)
;

boundaryField
{
    minX
    {
        type            zeroGradient;
    }
    maxX
    {
        type            zeroGradient;
    }
    minY
    {
        type            fixedValue;
        value           uniform 1073;
    }
    minZ
    {
        type            zeroGradient;
    }
    maxZ
    {
        type            zeroGradient;
    }
    bottomWater_to_rightSolid
    {
        type            compressible::turbulentTemperatureCoupledBaffleMixed;
        refValue        nonuniform List<scalar> 
130
(
751.09519
759.17115
767.59251
775.93011
783.85949
791.16712
797.71199
803.4039
808.19604
812.06574
814.99465
816.96166
817.94115
745.33532
754.73037
764.31542
773.59264
782.22944
790.05007
796.9583
802.9038
807.87018
811.8598
814.865
816.87126
817.86707
733.72522
746.16343
758.24744
769.39924
779.37842
788.13738
795.68891
802.07279
807.33993
811.53334
814.65802
816.7367
817.77019
716.35459
734.57226
750.67791
764.48925
776.19999
786.07886
794.35915
801.23187
806.82041
811.19986
814.4385
816.58335
817.65465
695.83984
723.57745
744.45763
760.81364
773.95937
784.68106
793.47584
800.67133
806.45076
810.9439
814.24381
816.42073
817.50718
695.95745
723.66356
744.50673
760.83749
773.96286
784.66293
793.42777
800.5813
806.34042
810.82824
814.12254
816.29415
817.3766
716.66421
734.77717
750.78251
764.51802
776.17019
786.00132
794.22837
801.03195
806.55129
810.89273
814.12359
816.26903
817.34361
734.17125
746.45936
758.3869
769.42038
779.31477
788.00473
795.48895
801.8069
807.00683
811.13946
814.24882
816.32918
817.36911
745.84271
755.06525
764.46302
773.5902
782.12633
789.87073
796.71343
802.59874
807.51306
811.46889
814.45209
816.44622
817.44393
751.58788
759.49363
767.72959
775.91618
783.73999
790.96829
797.44742
803.0819
807.82785
811.67341
814.5788
816.5202
817.49153
)
;
        refGradient     uniform 0;
        valueFraction   uniform 0.99248593;
        value           nonuniform List<scalar> 
130
(
752.35253
760.37529
768.73963
777.01869
784.88305
792.13376
798.63074
804.27694
809.02991
812.87372
815.79456
817.76895
818.7337
746.62844
755.9619
765.48479
774.71123
783.27835
791.03681
797.89462
803.79403
808.71793
812.6852
815.68946
817.69314
818.66713
735.08194
747.43533
759.45669
770.53987
780.43659
789.13388
796.634
802.96707
808.19574
812.3923
815.50384
817.5835
818.60245
717.80427
735.93497
751.93694
765.65288
777.27171
787.07788
795.29528
802.13499
807.71553
812.07337
815.29815
817.43867
818.51106
697.41989
725.0052
745.74735
761.98213
775.03034
785.67398
794.40986
801.59439
807.35227
811.82177
815.098
817.26738
818.35643
697.58348
725.11297
745.80327
762.01732
775.04753
785.66707
794.3635
801.46243
807.20497
811.69431
814.9657
817.12582
818.2062
718.19735
736.15442
752.03731
765.67539
777.23242
786.99698
795.16435
801.91727
807.39366
811.72012
814.96437
817.11587
818.19992
735.61606
747.76767
759.58931
770.54824
780.36487
788.99586
796.42303
802.69381
807.85226
811.95029
815.07396
817.17341
818.21521
747.20864
756.34646
765.62836
774.67987
783.15578
790.84415
797.6406
803.48128
808.35448
812.30497
815.29193
817.28447
818.27765
752.8852
760.7258
768.86413
776.98041
784.74793
791.92582
798.36201
803.94982
808.65599
812.50526
815.40815
817.33989
818.3034
)
;
        Tnbr            T;
        thicknessLayers List<scalar> 0();
        kappaLayers     List<scalar> 0();
        kappaMethod     fluidThermo;
        kappa           none;
        alphaAni        none;
        alpha           none;
        field           T;
    }
    bottomWater_to_leftSolid
    {
        type            compressible::turbulentTemperatureCoupledBaffleMixed;
        refValue        nonuniform List<scalar> 
130
(
925.0601
925.00681
924.89552
924.72125
924.48031
924.16932
923.80853
923.45576
923.08956
922.74396
922.4467
922.23305
922.11407
925.12761
925.07295
924.9582
924.77755
924.52576
924.20273
923.85814
923.51256
923.14199
922.79284
922.5039
922.28575
922.16136
925.22496
925.17123
925.05507
924.86716
924.5969
924.27608
923.95868
923.63141
923.2914
922.94802
922.64684
922.41525
922.27779
925.31413
925.26276
925.15046
924.96818
924.70704
924.4141
924.11791
923.80741
923.48054
923.14057
922.81935
922.56838
922.41102
925.38498
925.335
925.22834
925.05594
924.80922
924.55167
924.2786
923.9806
923.65649
923.31583
922.96522
922.70118
922.54213
925.4405
925.38987
925.28681
925.12699
924.93262
924.71195
924.46038
924.16943
923.8572
923.52286
923.18372
922.93989
922.78627
925.47639
925.41502
925.31142
925.17851
925.01522
924.82252
924.5994
924.34515
924.069
923.78382
923.51339
923.29541
923.14551
925.50315
925.43494
925.32888
925.2
925.04426
924.86606
924.66477
924.4399
924.19039
923.96377
923.757
923.59306
923.48925
925.52055
925.44699
925.34308
925.21813
925.06757
924.88982
924.69565
924.49503
924.28397
924.08495
923.90265
923.76031
923.67513
925.51327
925.45018
925.34589
925.22833
925.08632
924.91716
924.71147
924.51926
924.3252
924.12271
923.89939
923.73679
923.66141
)
;
        refGradient     uniform 0;
        valueFraction   uniform 0.99248593;
        value           nonuniform List<scalar> 
130
(
925.36727
925.31055
925.19739
925.02117
924.77982
924.45211
924.02672
923.67199
923.26867
922.89129
922.56889
922.34148
922.20441
925.4446
925.38611
925.26877
925.08676
924.83265
924.46326
924.08362
923.73884
923.31257
922.91576
922.63382
922.3982
922.25444
925.54468
925.48994
925.37348
925.18533
924.88237
924.50001
924.18328
923.84934
923.49787
923.11337
922.79507
922.54353
922.38207
925.62655
925.57542
925.46369
925.28273
924.98393
924.65796
924.3619
924.04725
923.71509
923.35088
922.99593
922.72112
922.51455
925.68821
925.63665
925.53212
925.36197
925.0565
924.79828
924.52754
924.22621
923.88792
923.53725
923.10285
922.8056
922.60869
925.738
925.68463
925.58008
925.3973
925.20267
924.98459
924.733
924.41918
924.09649
923.73098
923.29362
923.04313
922.84791
925.76975
925.68625
925.56993
925.44188
925.28194
925.09094
924.8683
924.60918
924.32095
924.00709
923.70161
923.45587
923.2356
925.79347
925.69562
925.57352
925.44362
925.28399
925.10836
924.90859
924.68155
924.38422
924.16242
923.94436
923.77217
923.64725
925.81195
925.69833
925.58842
925.46163
925.30767
925.11502
924.91398
924.71603
924.48568
924.28482
924.09912
923.95303
923.85486
925.78157
925.7075
925.58375
925.47598
925.33263
925.16515
924.91041
924.72384
924.52857
924.32092
924.01221
923.81951
923.75321
)
;
        Tnbr            T;
        thicknessLayers List<scalar> 0();
        kappaLayers     List<scalar> 0();
        kappaMethod     fluidThermo;
        kappa           none;
        alphaAni        none;
        alpha           none;
        field           T;
    }
    bottomWater_to_heater
    {
        type            compressible::turbulentTemperatureCoupledBaffleMixed;
        refValue        nonuniform List<scalar> 
92
(
731.87399
733.93219
738.00846
743.87012
722.68775
725.10455
729.88217
736.80325
703.22825
706.36287
712.66642
722.02013
345.48765
342.7494
342.74072
345.37624
422.08605
418.7271
418.87108
422.31128
487.61423
484.8117
485.44507
489.04528
543.38444
541.7051
543.56063
547.9538
671.40743
589.55656
675.33995
589.77525
683.81422
594.33886
697.55882
601.82271
345.48765
345.37624
422.08605
422.31128
487.61423
489.04528
543.38444
547.9538
589.55656
601.82271
345.47692
345.47692
342.75586
342.76249
345.4393
345.4393
422.08319
422.08319
418.74182
418.91643
422.38758
422.38758
487.61254
487.61254
484.82713
485.49838
489.13452
489.13452
543.38056
543.38056
541.71665
543.61207
548.06029
548.06029
589.55282
589.55282
589.79565
594.40031
601.93327
601.93327
671.5947
675.57811
684.12358
697.89799
703.65981
706.83137
713.19725
722.55484
723.28937
725.75719
730.5772
737.4504
732.53287
734.63038
738.71271
744.50127
)
;
        refGradient     uniform 0;
        valueFraction   nonuniform List<scalar> 
92
(
0.99248593
0.99248593
0.99248593
0.99248593
0.99248593
0.99248593
0.99248593
0.99248593
0.99248593
0.99248593
0.99248593
0.99248593
0.99248593
0.99248593
0.99248593
0.99248593
0.99248593
0.99248593
0.99248593
0.99248593
0.99248593
0.99248593
0.99248593
0.99248593
0.99248593
0.99248593
0.99248593
0.99248593
0.99248593
0.99248593
0.99248593
0.99248593
0.99248593
0.99248593
0.99248593
0.99248593
0.99248593
0.99248593
0.99248593
0.99248593
0.99248593
0.99248593
0.99248593
0.99248593
0.99248593
0.99248593
0.99248593
0.99248593
0.99248593
0.99248593
0.99248593
0.99248593
0.99248593
0.99248593
0.99248593
0.99248593
0.99248593
0.99248593
0.99248593
0.99248593
0.99248593
0.99248593
0.99248593
0.99248593
0.99248593
0.99248593
0.99248593
0.99248593
0.99248593
0.99248593
0.99248593
0.99248593
0.99248593
0.99248593
0.99248593
0.99248593
0.99248593
0.99248593
0.99248593
0.99248593
0.99248593
0.99248593
0.99248593
0.99248593
0.99248593
0.99248593
0.99248593
0.99248593
0.99248593
0.99248593
0.99248593
0.99248593
)
;
        value           nonuniform List<scalar> 
92
(
733.36812
735.34171
739.34976
745.17357
724.26404
726.61699
731.28454
738.15003
704.94413
708.03922
714.22565
723.45833
349.90641
347.09896
347.04496
349.64744
425.85279
422.4771
422.57242
425.96731
490.88148
488.08081
488.64851
492.18856
546.25293
544.57464
546.37108
550.6477
673.35343
592.1176
677.21647
592.2947
685.55703
596.75398
699.16831
604.15157
349.88131
349.57172
425.9238
425.91614
490.93588
492.1291
546.26509
550.6608
592.12521
604.10921
349.86976
349.8468
347.12327
347.07311
349.71557
349.72109
425.91247
425.84363
422.50123
422.67152
426.01
426.10609
490.92907
490.86234
488.08597
488.75868
492.23914
492.34978
546.26421
546.20824
544.55072
546.43528
550.7995
550.84833
592.1184
592.03828
592.28052
596.84762
604.2658
604.32366
673.46368
677.41841
685.89671
699.5673
705.37375
708.50998
714.82762
724.10356
724.87134
727.32491
732.10778
738.92476
734.00356
736.07139
740.12249
745.86339
)
;
        Tnbr            T;
        thicknessLayers List<scalar> 0();
        kappaLayers     List<scalar> 0();
        kappaMethod     fluidThermo;
        kappa           none;
        alphaAni        none;
        alpha           none;
        field           T;
    }
}


// ************************************************************************* //
