/*--------------------------------*- C++ -*----------------------------------*\
| =========                 |                                                 |
| \\      /  F ield         | OpenFOAM: The Open Source CFD Toolbox           |
|  \\    /   O peration     | Version:  v2012                                 |
|   \\  /    A nd           | Website:  www.openfoam.com                      |
|    \\/     M anipulation  |                                                 |
\*---------------------------------------------------------------------------*/
FoamFile
{
    version     2.0;
    format      ascii;
    class       volScalarField;
    location    "590/heater";
    object      T;
}
// * * * * * * * * * * * * * * * * * * * * * * * * * * * * * * * * * * * * * //

dimensions      [0 0 0 1 0 0 0];


internalField   nonuniform List<scalar> 
80
(
733.88978
735.92984
740.01743
745.88501
724.44364
726.84025
731.65133
738.60781
704.63288
707.7759
714.15097
723.59076
672.46656
676.48572
685.07416
698.92883
345.59292
342.90155
342.92672
345.58312
422.36582
419.08392
419.29099
422.77306
488.03607
485.31489
486.02216
489.67134
543.97745
542.33129
544.24141
548.65962
590.26172
590.51672
595.14569
602.67959
625.52435
629.1754
638.68516
657.8511
345.5119
342.82596
342.85941
345.52936
422.22766
418.98262
419.21412
422.73043
487.94172
485.22965
485.9633
489.67089
543.90623
542.27263
544.20778
548.69378
590.22764
590.49614
595.15088
602.74346
625.55801
629.21788
638.74924
657.951
672.6026
676.62617
685.26616
699.1985
704.77059
708.00213
714.48187
724.0057
724.5586
727.09797
732.0351
739.05697
733.99248
736.16519
740.35691
746.27648
)
;

boundaryField
{
    minY
    {
        type            fixedValue;
        value           uniform 300;
    }
    minZ
    {
        type            zeroGradient;
    }
    maxZ
    {
        type            zeroGradient;
    }
    heater_to_topAir
    {
        type            compressible::turbulentTemperatureCoupledBaffleMixed;
        refValue        nonuniform List<scalar> 
40
(
517.50133
514.5874
509.24774
502.2664
480.79173
469.00292
456.53651
445.63331
491.08271
480.37027
469.14494
458.67326
505.74538
502.57235
501.86098
502.90821
503.5916
501.8549
503.19512
505.36806
503.85244
500.95709
501.28468
503.56713
506.592
502.53641
500.69922
500.82334
492.02466
481.09997
469.2275
458.05651
481.31631
469.76462
457.31536
446.19984
517.50667
514.67571
509.38357
502.37816
)
;
        refGradient     uniform 0;
        valueFraction   nonuniform List<scalar> 
40
(
0.00032132529
0.00032132529
0.00032132529
0.00032132529
0.00032132529
0.00032132529
0.00032132529
0.00032132529
0.00032132529
0.00032132529
0.00032132529
0.00032132529
0.00032132529
0.00032132529
0.00032132529
0.00032132529
0.00032132529
0.00032132529
0.00032132529
0.00032132529
0.00032132529
0.00032132529
0.00032132529
0.00032132529
0.00032132529
0.00032132529
0.00032132529
0.00032132529
0.00032132529
0.00032132529
0.00032132529
0.00032132529
0.00032132529
0.00032132529
0.00032132529
0.00032132529
0.00032132529
0.00032132529
0.00032132529
0.00032132529
)
;
        value           nonuniform List<scalar> 
40
(
733.82089
735.85926
739.9437
745.80708
724.3659
726.75789
731.56322
738.51388
704.56479
707.70308
714.07227
723.5056
672.41288
676.42972
685.01514
698.86568
625.48517
629.13448
638.64159
657.80201
625.51906
629.17683
638.70522
657.9015
672.54961
676.57058
685.20719
699.13504
704.70268
707.92966
714.40349
723.92063
724.48093
727.01579
731.94735
738.96334
733.92349
736.0946
740.28327
746.19865
)
;
        Tnbr            T;
        thicknessLayers List<scalar> 0();
        kappaLayers     List<scalar> 0();
        kappaMethod     solidThermo;
        kappa           none;
        alphaAni        none;
        alpha           none;
        field           T;
    }
    heater_to_rightSolid
    {
        type            compressible::turbulentTemperatureCoupledBaffleMixed;
        refValue        nonuniform List<scalar> 10(753.11044 747.16937 735.36561 717.82571 697.11044 697.2572 718.15225 735.80238 747.62088 753.50082);
        refGradient     uniform 0;
        valueFraction   nonuniform List<scalar> 10(0.49999997 0.49999997 0.49999997 0.49999997 0.49999997 0.49999997 0.49999997 0.49999997 0.49999997 0.49999997);
        value           nonuniform List<scalar> 10(749.4979 742.8887 729.47817 708.37719 677.48072 677.60415 708.67551 729.90423 743.33916 749.88892);
        Tnbr            T;
        thicknessLayers List<scalar> 0();
        kappaLayers     List<scalar> 0();
        kappaMethod     solidThermo;
        kappa           none;
        alphaAni        none;
        alpha           none;
        field           T;
    }
    heater_to_leftSolid
    {
        type            compressible::turbulentTemperatureCoupledBaffleMixed;
        refValue        nonuniform List<scalar> 10(917.33614 917.22691 917.10839 916.94374 916.77376 916.55412 916.33051 916.23193 916.19276 916.19937);
        refGradient     uniform 0;
        valueFraction   nonuniform List<scalar> 10(2.0832898e-05 2.0832898e-05 2.0832898e-05 2.0832898e-05 2.0832898e-05 2.0832898e-05 2.0832898e-05 2.0832898e-05 2.0832898e-05 2.0832898e-05);
        value           nonuniform List<scalar> 10(733.89424 724.4482 704.63783 672.47155 625.53042 625.56423 672.60803 704.77544 724.56308 733.99684);
        Tnbr            T;
        thicknessLayers List<scalar> 1(0.001);
        kappaLayers     List<scalar> 1(0.0005);
        kappaMethod     solidThermo;
        kappa           none;
        alphaAni        none;
        alpha           none;
        field           T;
    }
    heater_to_bottomWater
    {
        type            compressible::turbulentTemperatureCoupledBaffleMixed;
        refValue        nonuniform List<scalar> 
92
(
939.90184
928.37484
929.47868
930.992
937.88378
924.19184
922.70748
923.80327
930.27521
924.73249
923.54724
922.33278
940.34599
940.01323
937.795
933.42664
937.09156
935.89859
932.22842
929.04786
936.06394
934.93893
931.69398
928.45964
933.27783
933.97273
931.57291
929.86732
924.27976
924.27976
930.02353
930.02353
927.69274
927.69274
925.73925
925.73925
928.24507
906.30834
928.20585
903.33416
922.99623
900.04418
932.04252
902.14802
937.25063
907.30007
926.50166
914.14818
915.17804
915.49751
907.0659
916.47559
921.01139
917.2176
919.12134
918.40289
907.38754
919.96003
928.02002
919.90934
920.84938
919.33741
909.85095
921.2323
932.66579
921.61032
922.54929
918.46938
912.46437
921.60218
932.63838
921.59932
919.3585
917.99834
914.29196
922.60138
921.59932
919.3585
917.99834
922.60138
924.09085
922.95192
923.68568
927.42092
924.6198
927.96862
929.62268
930.38092
927.77698
929.76364
930.59537
931.31586
)
;
        refGradient     uniform 0;
        valueFraction   nonuniform List<scalar> 
92
(
0.0075140686
0.0075140686
0.0075140686
0.0075140686
0.0075140686
0.0075140686
0.0075140686
0.0075140686
0.0075140686
0.0075140686
0.0075140686
0.0075140686
0.0075140686
0.0075140686
0.0075140686
0.0075140686
0.0075140686
0.0075140686
0.0075140686
0.0075140686
0.0075140686
0.0075140686
0.0075140686
0.0075140686
0.0075140686
0.0075140686
0.0075140686
0.0075140686
0.0075140686
0.0075140686
0.0075140686
0.0075140686
0.0075140686
0.0075140686
0.0075140686
0.0075140686
0.0075140679
0.0075140679
0.0075140679
0.0075140679
0.0075140679
0.0075140679
0.0075140679
0.0075140679
0.0075140679
0.0075140679
0.0075140679
0.0075140686
0.0075140686
0.0075140686
0.0075140679
0.0075140686
0.0075140679
0.0075140686
0.0075140686
0.0075140686
0.0075140679
0.0075140686
0.0075140679
0.0075140686
0.0075140686
0.0075140686
0.0075140679
0.0075140686
0.0075140679
0.0075140686
0.0075140686
0.0075140686
0.0075140679
0.0075140686
0.0075140679
0.0075140686
0.0075140686
0.0075140686
0.0075140679
0.0075140686
0.0075140686
0.0075140686
0.0075140686
0.0075140686
0.0075140686
0.0075140686
0.0075140686
0.0075140686
0.0075140686
0.0075140686
0.0075140686
0.0075140686
0.0075140686
0.0075140686
0.0075140686
0.0075140686
)
;
        value           nonuniform List<scalar> 
92
(
735.4384
737.37642
741.44148
747.27627
726.04799
728.32365
733.08722
739.99959
706.3289
709.40638
715.72441
725.08409
350.06198
347.38836
347.3967
350.00044
426.2336
422.9674
423.14538
426.57753
491.40252
488.69343
489.37109
492.96872
546.90237
545.27402
547.15185
551.52401
674.3586
592.77135
678.39071
593.06769
686.89707
597.64438
700.63293
605.10688
349.97105
349.79667
426.16683
426.38432
491.30433
492.7552
546.89308
551.31573
592.86881
604.96833
349.87787
349.78504
347.12677
347.16233
349.74889
349.8196
425.9757
425.94719
422.74082
422.96518
426.3723
426.46677
491.24812
491.18718
488.50291
489.21977
492.8282
492.91372
546.82696
546.74389
545.12999
547.02004
551.42716
551.49582
592.80047
592.71753
592.96727
597.57684
605.08445
605.14689
674.47393
678.45043
687.01526
700.87744
706.41902
709.61772
716.05427
725.53456
726.06236
728.60783
733.52031
740.49506
735.44915
737.62048
741.78695
747.66741
)
;
        Tnbr            T;
        thicknessLayers List<scalar> 0();
        kappaLayers     List<scalar> 0();
        kappaMethod     solidThermo;
        kappa           none;
        alphaAni        none;
        alpha           none;
        field           T;
    }
}


// ************************************************************************* //
