/*--------------------------------*- C++ -*----------------------------------*\
| =========                 |                                                 |
| \\      /  F ield         | OpenFOAM: The Open Source CFD Toolbox           |
|  \\    /   O peration     | Version:  v2012                                 |
|   \\  /    A nd           | Website:  www.openfoam.com                      |
|    \\/     M anipulation  |                                                 |
\*---------------------------------------------------------------------------*/
FoamFile
{
    version     2.0;
    format      ascii;
    class       volScalarField;
    location    "780/rightSolid";
    object      T;
}
// * * * * * * * * * * * * * * * * * * * * * * * * * * * * * * * * * * * * * //

dimensions      [0 0 0 1 0 0 0];


internalField   nonuniform List<scalar> 
130
(
748.13164
755.87962
763.97106
772.01722
779.74576
786.90358
793.3239
798.90658
803.59174
807.35062
810.16899
812.04475
812.98022
742.27713
751.37364
760.64331
769.63436
778.08111
785.76148
792.54804
798.38155
803.23597
807.10581
809.99451
811.9119
812.86741
730.51323
742.6722
754.46188
765.37387
775.19166
783.82711
791.26297
797.53197
802.67352
806.72974
809.73619
811.7232
812.71357
713.03758
730.96732
746.81761
760.4169
771.98224
781.7586
789.93225
796.67869
802.12645
806.37844
809.50843
811.5689
812.59403
692.50338
719.92433
740.57038
756.76526
769.79202
780.40804
789.09221
796.15397
801.79941
806.17363
809.37954
811.48515
812.53129
692.61785
720.0377
740.68762
756.88592
769.9012
780.49906
789.16563
796.2076
801.83278
806.18699
809.38076
811.48138
812.52553
713.27361
731.17585
747.03017
760.64621
772.19726
781.93597
790.07851
796.78473
802.1911
806.40471
809.51243
811.56264
812.58268
730.83102
742.93348
754.73165
765.65548
775.45143
784.04675
791.43924
797.65794
802.74661
806.76169
809.74621
811.72014
812.70442
742.62041
751.68752
760.9754
769.99003
778.39483
786.0202
792.75075
798.52602
803.31804
807.14628
810.01315
811.91908
812.87185
748.50863
756.27324
764.39602
772.46089
780.14102
787.20202
793.53857
799.0537
803.67579
807.39455
810.19152
812.05841
812.99352
)
;

boundaryField
{
    maxX
    {
        type            zeroGradient;
    }
    minZ
    {
        type            zeroGradient;
    }
    maxZ
    {
        type            zeroGradient;
    }
    rightSolid_to_bottomWater
    {
        type            compressible::turbulentTemperatureCoupledBaffleMixed;
        refValue        nonuniform List<scalar> 
130
(
925.84695
921.64402
914.7422
906.87881
907.43486
907.95175
908.2152
908.78166
908.68425
908.92846
908.9702
908.79443
908.25376
922.08641
921.50611
915.15519
906.53495
907.63735
908.66358
908.82684
909.09641
909.27936
909.46825
909.28417
908.9247
908.33006
916.70115
913.32752
906.99026
904.89523
906.48053
908.58448
908.94446
909.45448
909.5255
909.61176
909.28598
908.70161
908.75422
906.88058
906.09175
906.54966
902.67612
902.25732
906.20092
907.04012
908.31282
908.38743
908.61699
908.55319
908.20254
908.38628
891.87537
898.04273
899.79997
902.38679
904.62204
905.01133
905.80064
906.7674
907.36052
907.64217
907.8556
907.94241
908.31896
896.57602
902.1998
904.86364
908.65842
909.42386
908.65712
909.00838
909.15161
908.91161
907.48656
907.04488
907.25191
907.65845
905.85269
904.80309
907.19175
908.29608
907.60467
908.13701
910.28852
910.1661
909.30149
907.32876
906.87515
906.86735
906.84958
919.70972
907.34922
907.78627
909.07302
909.68251
910.45249
910.731
910.32199
908.59119
907.29479
907.55168
906.70257
906.45475
924.84171
916.79961
915.49375
914.99919
910.27342
910.75487
911.05968
910.92289
907.80844
907.24569
907.39233
906.84424
906.63163
926.68741
924.35484
922.33088
920.61884
918.88902
910.61924
908.85039
909.4109
906.88412
906.81567
906.79965
906.69058
906.74795
)
;
        refGradient     uniform 0;
        valueFraction   nonuniform List<scalar> 
130
(
0.0075140686
0.0075140686
0.0075140686
0.0075140686
0.0075140686
0.0075140686
0.0075140686
0.0075140686
0.0075140686
0.0075140686
0.0075140686
0.0075140686
0.0075140686
0.0075140686
0.0075140686
0.0075140686
0.0075140686
0.0075140686
0.0075140686
0.0075140686
0.0075140686
0.0075140686
0.0075140686
0.0075140686
0.0075140686
0.0075140686
0.0075140686
0.0075140686
0.0075140686
0.0075140686
0.0075140686
0.0075140686
0.0075140686
0.0075140686
0.0075140686
0.0075140686
0.0075140686
0.0075140686
0.0075140686
0.0075140686
0.0075140686
0.0075140686
0.0075140686
0.0075140686
0.0075140686
0.0075140686
0.0075140686
0.0075140686
0.0075140686
0.0075140686
0.0075140686
0.0075140686
0.0075140686
0.0075140686
0.0075140686
0.0075140686
0.0075140686
0.0075140686
0.0075140686
0.0075140686
0.0075140686
0.0075140686
0.0075140686
0.0075140686
0.0075140686
0.0075140686
0.0075140686
0.0075140686
0.0075140686
0.0075140686
0.0075140686
0.0075140686
0.0075140686
0.0075140686
0.0075140686
0.0075140686
0.0075140686
0.0075140686
0.0075140686
0.0075140686
0.0075140686
0.0075140686
0.0075140686
0.0075140686
0.0075140686
0.0075140686
0.0075140686
0.0075140686
0.0075140686
0.0075140686
0.0075140686
0.0075140686
0.0075140686
0.0075140686
0.0075140686
0.0075140686
0.0075140686
0.0075140686
0.0075140686
0.0075140686
0.0075140686
0.0075140686
0.0075140686
0.0075140686
0.0075140686
0.0075140686
0.0075140686
0.0075140686
0.0075140686
0.0075140686
0.0075140686
0.0075140686
0.0075140686
0.0075140686
0.0075140686
0.0075140686
0.0075140686
0.0075140686
0.0075140686
0.0075140686
0.0075140686
0.0075140686
0.0075140686
0.0075140686
0.0075140686
0.0075140686
0.0075140686
0.0075140686
0.0075140686
0.0075140686
)
;
        value           nonuniform List<scalar> 
130
(
749.4672
757.1255
765.10448
773.03125
780.70599
787.81397
794.18806
799.73306
804.38232
808.11481
810.91232
812.77266
813.69704
743.62849
752.65241
761.80487
770.66373
779.05538
786.6858
793.42263
799.21436
804.0337
807.8759
810.74151
812.64179
813.58565
731.91254
743.9549
755.60852
766.4229
776.17892
784.76536
792.14808
798.37385
803.47732
807.50374
810.48515
812.45285
813.43617
714.49447
732.28361
748.01833
761.48641
772.9618
782.69443
790.81302
797.51838
802.9258
807.1476
810.2536
812.29596
813.31477
694.00176
721.26306
741.76725
757.85998
770.80575
781.34502
789.96993
796.98596
802.59349
806.93699
810.12043
812.21089
813.252
694.15074
721.40689
741.92172
758.02693
770.95025
781.46277
790.06692
797.0571
802.63826
806.94908
810.11557
812.20197
813.24133
714.721
732.4809
748.23411
761.75622
773.21536
782.88498
790.98256
797.63753
802.99681
807.16399
810.24499
812.27975
813.292
732.25054
744.1693
755.88217
766.73368
776.46069
784.9973
792.33639
798.50536
803.54283
807.51805
810.48211
812.43485
813.40988
743.98989
752.92852
762.13689
771.08016
779.38639
786.95817
793.64051
799.37142
804.10409
807.8994
810.74587
812.63338
813.57741
749.84773
757.53652
765.58312
773.57462
781.18415
788.13007
794.40579
799.88375
804.45221
808.14258
810.91845
812.77052
813.69904
)
;
        Tnbr            T;
        thicknessLayers List<scalar> 0();
        kappaLayers     List<scalar> 0();
        kappaMethod     solidThermo;
        kappa           none;
        alphaAni        none;
        alpha           none;
        field           T;
    }
    rightSolid_to_topAir
    {
        type            compressible::turbulentTemperatureCoupledBaffleMixed;
        refValue        nonuniform List<scalar> 
130
(
496.16937
488.5603
481.95439
476.61424
472.58274
469.79203
468.13655
467.51545
467.87336
469.24691
471.83443
476.15634
483.06362
439.12034
433.32226
429.71581
427.58123
426.42733
426.00602
426.2235
427.05258
428.53495
430.82188
434.28959
439.91233
449.5168
449.3346
440.1389
432.28601
425.72306
420.45326
416.57973
414.2212
413.41413
414.06823
416.05838
419.3873
424.86896
434.45003
504.41146
504.51597
503.3565
500.6074
496.43003
491.26503
485.55624
479.81071
474.9636
472.52118
474.42109
481.87523
492.65774
508.99121
512.71483
516.6055
520.28043
523.37453
525.57835
526.69997
526.74351
526.03212
525.32259
525.81459
529.03417
536.70082
510.4232
514.03677
517.82746
521.39757
524.3794
526.48638
527.56053
527.62384
526.98449
526.37032
526.9621
530.20719
537.76178
505.51122
505.89913
504.80905
501.93006
497.57284
492.36877
486.84815
481.44105
476.90487
474.7327
476.94977
484.09789
494.6609
449.56317
440.92557
433.3225
426.80006
421.52765
417.75538
415.65206
415.2033
416.22813
418.51908
422.06386
427.7964
437.93701
437.69588
432.21668
428.83236
426.82809
425.75403
425.42757
425.81419
426.91028
428.74456
431.42985
435.32498
441.46427
451.44049
495.55952
488.02461
481.49196
476.2133
472.23604
469.51095
467.95731
467.49056
468.05638
469.67956
472.54606
477.1804
484.40116
)
;
        refGradient     uniform 0;
        valueFraction   nonuniform List<scalar> 
130
(
0.00032132529
0.00032132529
0.00032132529
0.00032132529
0.00032132529
0.00032132529
0.00032132529
0.00032132529
0.00032132529
0.00032132529
0.00032132529
0.00032132529
0.00032132529
0.00032132529
0.00032132529
0.00032132529
0.00032132529
0.00032132529
0.00032132529
0.00032132529
0.00032132529
0.00032132529
0.00032132529
0.00032132529
0.00032132529
0.00032132529
0.00032132529
0.00032132529
0.00032132529
0.00032132529
0.00032132529
0.00032132529
0.00032132529
0.00032132529
0.00032132529
0.00032132529
0.00032132529
0.00032132529
0.00032132529
0.00032132529
0.00032132529
0.00032132529
0.00032132529
0.00032132529
0.00032132529
0.00032132529
0.00032132529
0.00032132529
0.00032132529
0.00032132529
0.00032132529
0.00032132529
0.00032132529
0.00032132529
0.00032132529
0.00032132529
0.00032132529
0.00032132529
0.00032132529
0.00032132529
0.00032132529
0.00032132529
0.00032132529
0.00032132529
0.00032132529
0.00032132529
0.00032132529
0.00032132529
0.00032132529
0.00032132529
0.00032132529
0.00032132529
0.00032132529
0.00032132529
0.00032132529
0.00032132529
0.00032132529
0.00032132529
0.00032132529
0.00032132529
0.00032132529
0.00032132529
0.00032132529
0.00032132529
0.00032132529
0.00032132529
0.00032132529
0.00032132529
0.00032132529
0.00032132529
0.00032132529
0.00032132529
0.00032132529
0.00032132529
0.00032132529
0.00032132529
0.00032132529
0.00032132529
0.00032132529
0.00032132529
0.00032132529
0.00032132529
0.00032132529
0.00032132529
0.00032132529
0.00032132529
0.00032132529
0.00032132529
0.00032132529
0.00032132529
0.00032132529
0.00032132529
0.00032132529
0.00032132529
0.00032132529
0.00032132529
0.00032132529
0.00032132529
0.00032132529
0.00032132529
0.00032132529
0.00032132529
0.00032132529
0.00032132529
0.00032132529
0.00032132529
0.00032132529
0.00032132529
0.00032132529
0.00032132529
)
;
        value           nonuniform List<scalar> 
130
(
748.05087
755.79404
763.88096
771.92297
779.64783
786.80251
793.22027
798.80098
803.48478
807.24291
810.06121
811.93776
812.87514
742.17998
751.27183
760.53753
769.52514
777.96889
785.64671
792.4312
798.26313
803.11649
806.98584
809.87473
811.7933
812.75159
730.42316
742.57538
754.35889
765.2654
775.07842
783.70992
791.14267
797.40943
802.54956
806.60515
809.6117
811.59985
812.59297
712.97088
730.89495
746.73987
760.33399
771.89436
781.66602
789.83527
796.57774
802.02223
806.2721
809.40171
811.46392
812.49219
692.4447
719.85809
740.49882
756.68979
769.71345
780.32686
789.00867
796.06824
801.71169
806.08431
809.28937
811.39536
812.44362
692.55964
719.97192
740.61649
756.81083
769.82298
780.41817
789.08236
796.12213
801.74535
806.098
809.29097
811.39197
812.43822
713.20719
731.10387
746.95281
760.56364
772.10966
781.84366
789.98186
796.68425
802.08746
806.29907
809.40654
811.45841
812.48153
730.74092
742.83683
754.62883
765.54715
775.33834
783.92978
791.31928
797.5359
802.62331
806.63789
809.62263
811.59779
812.58502
742.52269
751.58521
760.86911
769.88029
778.28214
785.90504
792.63363
798.40746
803.19858
807.02653
809.89376
811.80108
812.75676
748.4276
756.18735
764.30549
772.36616
780.04265
787.10063
793.43471
798.94799
803.56886
807.28701
810.08405
811.95185
812.88899
)
;
        Tnbr            T;
        thicknessLayers List<scalar> 0();
        kappaLayers     List<scalar> 0();
        kappaMethod     solidThermo;
        kappa           none;
        alphaAni        none;
        alpha           none;
        field           T;
    }
    rightSolid_to_heater
    {
        type            compressible::turbulentTemperatureCoupledBaffleMixed;
        refValue        nonuniform List<scalar> 10(741.21431 734.02714 719.03344 694.48617 653.86392 653.97134 694.7808 719.40514 734.37127 741.5773);
        refGradient     uniform 0;
        valueFraction   nonuniform List<scalar> 10(0.50000003 0.50000003 0.50000003 0.50000003 0.50000003 0.50000003 0.50000003 0.50000003 0.50000003 0.50000003);
        value           nonuniform List<scalar> 10(744.67307 738.15227 724.77347 703.76204 673.18379 673.29476 704.02737 725.11822 738.49597 745.04309);
        Tnbr            T;
        thicknessLayers List<scalar> 0();
        kappaLayers     List<scalar> 0();
        kappaMethod     solidThermo;
        kappa           none;
        alphaAni        none;
        alpha           none;
        field           T;
    }
}


// ************************************************************************* //
