/*--------------------------------*- C++ -*----------------------------------*\
| =========                 |                                                 |
| \\      /  F ield         | OpenFOAM: The Open Source CFD Toolbox           |
|  \\    /   O peration     | Version:  v2012                                 |
|   \\  /    A nd           | Website:  www.openfoam.com                      |
|    \\/     M anipulation  |                                                 |
\*---------------------------------------------------------------------------*/
FoamFile
{
    version     2.0;
    format      ascii;
    class       volScalarField;
    location    "340/bottomWater";
    object      p_rgh;
}
// * * * * * * * * * * * * * * * * * * * * * * * * * * * * * * * * * * * * * //

dimensions      [1 -1 -2 0 0 0 0];


internalField   nonuniform List<scalar> 
1460
(
0.28265974
0.28358156
0.28298065
0.28263103
0.2823882
0.2984614
0.30072866
0.3074742
0.30029566
0.28015779
0.28353635
0.28847676
0.28989393
0.29059664
0.29271878
0.29422757
0.29447977
0.29489279
0.29247951
0.29628046
0.28804735
0.2870554
0.29495276
0.29903313
0.2992689
0.3032277
0.30166159
0.29957027
0.29798343
0.29668447
-0.25097228
-0.25491204
-0.25393197
-0.24671897
-0.23309341
-0.20544698
-0.17500157
-0.17474274
-0.21197073
-0.24890245
-0.25289295
-0.25554785
-0.24964661
-0.21691958
-0.19366422
-0.20000343
-0.21014088
-0.23097209
-0.25977631
-0.26203922
-0.26174247
-0.25160612
-0.21270987
-0.18974045
-0.18454254
-0.17449196
-0.18398133
-0.19995626
-0.21650986
-0.22475036
0.13240979
0.11953276
0.11731557
0.097233107
0.12279312
0.055198818
0.052634034
0.047324434
0.034520126
0.060882468
0.074384959
0.08877662
0.072118551
0.042267623
0.055070091
0.056677433
0.061901434
0.057344335
0.076510094
0.098310096
0.074638483
0.05204115
0.051269888
0.072356095
0.078555616
0.071492957
0.068594499
0.063433562
0.058359492
0.068790576
-0.044503542
-0.041000258
-0.049305817
-0.04871877
-0.043673709
-0.048498854
-0.062864543
-0.058088112
-0.059946494
-0.059844803
-0.031825962
-0.030022711
-0.05178738
-0.0539465
-0.034827502
-0.027975156
-0.053713024
-0.069784227
-0.063592579
-0.046163872
-0.046236013
-0.0677412
-0.049179748
-0.030097024
-0.02902096
-0.020952174
-0.030349527
-0.051699206
-0.06594904
-0.083644249
0.021141265
0.023811733
0.008672516
-0.0022211414
-0.010052409
-0.015414618
-0.0083880462
-0.007797648
-0.002502227
-0.009029736
-0.0073337369
0.0031250152
-0.00036403312
-0.0022760287
-0.016614255
-0.011917064
-0.017110586
-0.0055291478
0.0042150559
0.01808224
0.010326862
0.011624505
-0.0060361952
-0.012211361
-0.0061665896
-0.0044494955
-0.012870334
-0.010271627
-0.011343804
0.009752085
0.2761179
0.27025505
0.27219574
0.27332629
0.28377438
0.28484945
0.30540286
0.29558883
0.29594006
0.29000347
0.2878814
0.2901117
0.28966177
0.29946774
0.29410213
0.29192515
0.29122247
0.29153207
0.29143403
0.29574424
0.29603231
0.29190179
0.29207238
0.30030233
0.30320067
0.30084842
0.2994375
0.29450434
0.29307292
0.296631
-0.24580208
-0.24295085
-0.24329169
-0.2466184
-0.24382649
-0.24994721
-0.23444751
-0.25716317
-0.27231424
-0.26800485
-0.25709954
-0.27068226
-0.2499687
-0.21412634
-0.22032962
-0.23860795
-0.26273889
-0.26807051
-0.25356694
-0.2661165
-0.26460383
-0.27062721
-0.26142567
-0.22150262
-0.19044643
-0.2014819
-0.22589587
-0.25181999
-0.26415569
-0.26432969
0.099776523
0.087497902
0.086984537
0.097756796
0.11702727
0.082411483
0.060885468
0.073359536
0.081967327
0.091010471
0.09493025
0.075663444
0.072495253
0.029136205
0.065321464
0.065366072
0.07587097
0.086000465
0.084631385
0.096437295
0.097521998
0.060660651
0.042786379
0.041960424
0.039905029
0.050358553
0.039668592
0.050454774
0.052081986
0.085091932
-0.090884277
-0.1099566
-0.10877566
-0.089419639
-0.072930945
-0.098296558
-0.091985221
-0.10897657
-0.050756679
-0.035565693
-0.051261562
-0.034082531
-0.07880521
-0.067341248
-0.059814888
-0.057580343
-0.03872076
-0.047737069
-0.081337161
-0.038980041
-0.044562733
-0.053742834
-0.072961885
-0.061026473
-0.072376026
-0.058314117
-0.066805466
-0.095389279
-0.086599153
-0.062982097
0.013340799
0.031932343
0.0089323809
-0.0089844925
-0.017196374
0.007963498
0.032028767
0.0018470703
-0.0035336856
0.01114239
0.0047368236
0.013095717
0.020544626
0.013470361
-0.0085335565
-0.00096581456
-0.0084976217
-0.0025465912
0.028129715
0.01878073
0.017637195
0.0090016292
0.0035844012
-0.015125778
-0.0074195372
-0.016654588
-0.013048877
0.007509067
0.0015617621
0.006587847
0.29172482
0.30422425
0.29876157
0.29885246
0.30549375
0.29092339
0.30329549
0.29633569
0.29670362
0.28210473
0.29621817
0.28027831
0.28913637
0.28738839
0.28827965
0.28652018
0.28696683
0.28285736
0.2962389
0.2897962
0.290794
0.30138692
0.2995409
0.2977683
0.30478653
0.2971497
0.29877447
0.30078352
0.30317937
0.30384455
-0.23703267
-0.20443752
-0.19081104
-0.20395594
-0.21581263
-0.24291109
-0.25036632
-0.26164731
-0.25905247
-0.25074252
-0.22684902
-0.24373241
-0.25349925
-0.25550361
-0.25748698
-0.26423548
-0.23948187
-0.23937822
-0.21529836
-0.25895086
-0.26712533
-0.27351172
-0.28240981
-0.25942035
-0.24247966
-0.24845568
-0.26399384
-0.2813771
-0.2762207
-0.26762047
0.08920417
0.04312225
0.047130215
0.062672589
0.064466012
0.080761195
0.074032304
0.087133656
0.079771665
0.066649316
0.030980716
0.060731074
0.082296923
0.088496745
0.095548564
0.071151774
0.071774726
0.076629835
0.032910367
0.055715654
0.069460494
0.11412258
0.082871224
0.074368697
0.072761515
0.071627442
0.073224551
0.095488582
0.1217047
0.12035318
-0.056520689
-0.077709478
-0.070994276
-0.052785726
-0.055261733
-0.082909053
-0.096349838
-0.050268158
-0.043002411
-0.077723767
-0.05730919
-0.065130234
-0.036478814
-0.034488969
-0.019143543
-0.034170598
-0.059683678
-0.047112052
-0.070573814
-0.065884371
-0.048222069
-0.034121596
-0.047369271
-0.091199375
-0.083927629
-0.087608722
-0.076778401
-0.044608814
-0.033823793
-0.025581586
-0.0073381427
0.010370099
-0.0032083766
-0.013625312
-0.011882771
0.0024722169
0.021300419
0.019035444
0.021577394
0.020544162
0.01755741
0.0090084914
-0.0026708251
-0.0040208143
-0.0012281186
0.0049202787
0.015257015
-0.0024407874
0.0081341095
0.018110585
0.017906807
0.034760849
0.024108626
0.023087801
0.045689277
0.032815841
0.0065021537
0.024541639
0.027637614
0.031451746
0.29389479
0.30214346
0.29852026
0.30992362
0.30713653
0.2994158
0.30193258
0.29457579
0.29966951
0.29718504
0.29976345
0.29599199
0.2917268
0.29303229
0.28804721
0.28358621
0.29415278
0.29833088
0.29924876
0.3060319
0.28891234
0.29439256
0.30201042
0.29447955
0.29286518
0.29150552
0.29629761
0.29598536
0.2910438
0.28101839
-0.2406327
-0.21453308
-0.19642204
-0.21161164
-0.24978784
-0.2665621
-0.26738214
-0.26038872
-0.22926254
-0.20981567
-0.19823638
-0.2347561
-0.26143248
-0.2568401
-0.24810683
-0.215487
-0.19791051
-0.19366786
-0.18331294
-0.19896135
-0.26618651
-0.27236392
-0.27368714
-0.27522333
-0.25741439
-0.25884693
-0.27427285
-0.26691094
-0.26877494
-0.25547154
0.082541186
0.045827919
0.060926726
0.059342303
0.045639453
0.078244665
0.087591102
0.062212369
0.039412012
0.056056477
0.060335997
0.034897828
0.072884805
0.077986734
0.076994816
0.040610331
0.063771348
0.054438553
0.061230612
0.033797144
0.051375248
0.075598795
0.12223282
0.076208296
0.074205902
0.088971881
0.087130185
0.12204231
0.099187872
0.092381093
-0.061061388
-0.069377184
-0.062627466
-0.046014948
-0.080184421
-0.050570107
-0.040780541
-0.052858496
-0.062799359
-0.034912956
-0.037850486
-0.061310772
-0.045042276
-0.042471711
-0.051047813
-0.060356157
-0.035410187
-0.0324309
-0.058442962
-0.062739704
-0.074843563
-0.048942068
-0.04012475
-0.053433257
-0.090567722
-0.082571974
-0.043794139
-0.041717789
-0.05028458
-0.074332467
-0.0088664743
-0.013097139
-0.016820691
-0.013686428
0.0075417243
0.011404969
0.025180033
0.0031304901
-0.0070012015
-0.0041773366
-0.0074181413
0.0057088886
0.014049419
0.015561978
0.0063691415
0.0087735134
-0.0042003272
-0.013492865
-0.013324905
0.0077017777
0.015546534
0.019288337
0.040055297
0.023362576
0.037201749
0.02860957
-0.0049349675
0.030100418
0.014298126
0.035262739
0.29543027
0.29513469
0.29518303
0.29511174
0.29959124
0.29907502
0.29631854
0.30078377
0.3048137
0.3023436
0.30648589
0.29625996
0.29889744
0.30812493
0.30502802
0.31134917
0.30134078
0.30657304
0.30632474
0.29898199
0.31820388
0.29728496
0.30048873
0.29512017
0.2904635
0.31318798
-0.2650002
-0.26767244
-0.26006952
-0.25685883
-0.27896594
-0.27651136
-0.26074814
-0.23246832
-0.20378149
-0.19835583
-0.21020302
-0.24553051
-0.26372746
-0.17690977
-0.21455052
-0.19456885
-0.24585454
-0.27127804
-0.27230881
-0.26225036
-0.20661571
-0.23495037
-0.26014534
-0.25728787
-0.26561216
-0.21312648
0.12152718
0.090298382
0.09668032
0.088709739
0.096652475
0.090826559
0.06572324
0.040566418
0.069110208
0.068413688
0.056710667
0.056867735
0.082540106
0.061482159
0.06507444
0.032757021
0.041263992
0.092351338
0.080578973
0.060138735
0.036426813
0.06511368
0.089158621
0.08052785
0.06339251
0.044077614
-0.055628774
-0.069706691
-0.080595996
-0.098616225
-0.039602616
-0.047298887
-0.091397059
-0.083346417
-0.049399865
-0.048245911
-0.069521054
-0.10501562
-0.040615488
-0.0098802071
-0.0452272
-0.054943745
-0.064337467
-0.037875746
-0.045837053
-0.097340074
-0.080843798
-0.085986464
-0.052658572
-0.065057069
-0.090323553
-0.075915406
0.01975489
0.010712923
0.034899484
0.030867606
0.023301815
0.026288817
0.021583019
0.0072535713
-0.0090942571
-0.006112645
-0.0045329489
0.014536089
0.016811992
-0.0011005181
-0.02553996
0.0038011767
0.012647257
0.01361976
0.025376923
0.01998621
0.016497065
-0.0036799039
-0.020311836
-0.012537911
-0.007126476
0.013863317
0.29181131
0.28955217
0.29915756
0.29652695
0.29875037
0.3028202
0.29864839
0.30811938
0.30251234
0.29884332
0.30429441
0.29877802
0.30472584
0.30369289
0.30117867
0.30064883
0.3055884
0.30198031
0.29640594
0.31245037
0.31978048
0.30543368
0.30076282
0.3133716
0.32138035
0.32658143
-0.25977335
-0.25557193
-0.22119931
-0.25091491
-0.27430334
-0.27855727
-0.26749498
-0.21758389
-0.20763678
-0.22336371
-0.21935801
-0.26749745
-0.26368134
-0.21922117
-0.25933499
-0.26237784
-0.25359947
-0.26620343
-0.26736478
-0.22359201
-0.18768152
-0.26428999
-0.24475226
-0.22903667
-0.20494512
-0.19556589
0.11086669
0.088856952
0.049096597
0.090768134
0.064821398
0.093944702
0.068011828
0.034804817
0.072944478
0.077786956
0.057170151
0.0662658
0.12049001
0.073216852
0.092354651
0.087140741
0.086476727
0.090225814
0.0689577
0.040102967
0.028668591
0.097843709
0.1064962
0.059912968
0.073657824
0.076155743
-0.037312112
-0.073582667
-0.069759315
-0.06638072
-0.03903299
-0.038317669
-0.082198872
-0.081160362
-0.058168247
-0.053790987
-0.075959148
-0.068361869
-0.037813726
-0.025521879
-0.060051818
-0.068366667
-0.079410103
-0.054610299
-0.074818965
-0.055073166
-0.076517049
-0.0398604
-0.02214295
-0.031274992
-0.060248768
-0.068087548
0.022243968
0.017682904
0.018210793
-0.0012119918
0.018646094
0.024535241
0.035731704
0.019797906
0.00052064746
-0.0017582027
0.015743354
0.018580769
0.037323
-0.019653933
-0.020010922
-0.0085275518
0.025641553
0.03016883
0.021248017
0.014575114
0.0037331277
-0.033787237
-0.019084054
-0.012965408
-0.018782808
0.0037056983
0.2941321
0.30338334
0.30454429
0.3100945
0.31135166
0.31145837
0.31164265
0.3115777
0.30863265
0.30559752
0.3038937
0.29364944
0.29180657
0.29848586
0.29889007
0.29367497
0.29103635
0.29004753
0.29372678
0.2902464
0.28383893
0.2924024
0.29513475
0.29009711
0.29176723
0.29663287
0.31231433
0.32237348
0.32799662
0.32970763
-0.22858356
-0.2213043
-0.20301272
-0.21736001
-0.25005865
-0.27861805
-0.26365399
-0.23083886
-0.20333014
-0.19666758
-0.20327963
-0.2503021
-0.27758241
-0.26666421
-0.27204151
-0.26686479
-0.25104712
-0.26297341
-0.27472099
-0.27111688
-0.25308314
-0.26724094
-0.28366478
-0.27862568
-0.25321054
-0.24331765
-0.22124426
-0.20624493
-0.23848466
-0.27901991
0.068877868
0.060215027
0.069761617
0.063802345
0.045771761
0.08120859
0.082952899
0.037439228
0.071710164
0.066501219
0.037583305
0.057958881
0.070062572
0.12436267
0.11468776
0.11782461
0.087496838
0.12457736
0.11699976
0.10649651
0.088393305
0.12082342
0.10804828
0.081162118
0.06916103
0.081160843
0.05029365
0.066694199
0.053907747
0.088805188
-0.077419049
-0.056659513
-0.054523327
-0.058224224
-0.10457739
-0.045573858
-0.07461879
-0.076672611
-0.052070625
-0.047956131
-0.078610441
-0.080097345
-0.055024038
-0.043407464
-0.040017164
-0.059805432
-0.07400663
-0.051808569
-0.02063247
-0.055165322
-0.083057054
-0.057400777
-0.053101951
-0.084175524
-0.092347965
-0.074689382
-0.05149382
-0.05037481
-0.083830085
-0.057283526
0.0044176738
-0.020037052
-0.017491972
-0.012097448
0.012460251
0.021770661
0.015811454
0.0022353587
-0.0055265076
-0.0069349762
0.0026390889
0.015845814
0.022431847
0.027191218
0.032914078
0.022184562
0.013972085
-0.00029964594
0.00022944154
-0.011917415
0.012353612
0.024010174
0.02667204
0.021832374
0.018756527
-0.0081999131
-0.024061447
-0.019928432
-0.019323339
-0.0048426426
0.28957726
0.2849642
0.28584052
0.309997
0.32186623
0.32064624
0.32096013
0.31889116
0.31797017
0.3125721
0.30356112
0.30626647
0.29513798
0.30519888
0.30342422
0.29399027
0.308525
0.30028955
0.30324124
0.29689459
0.31101491
0.29871474
0.30495221
0.30614597
0.29977933
0.31638075
0.31056503
0.32126565
0.32340269
0.32177755
-0.25438215
-0.24715388
-0.25343246
-0.19665031
-0.1995107
-0.26671686
-0.27866623
-0.25425517
-0.21743906
-0.19564868
-0.20155471
-0.2237236
-0.25490306
-0.26997738
-0.26414332
-0.26088571
-0.22742804
-0.27531722
-0.26161691
-0.22930337
-0.21911057
-0.26697866
-0.2808939
-0.275758
-0.25097184
-0.23527183
-0.2420497
-0.24789689
-0.28023459
-0.29058911
0.10831177
0.091777932
0.088126026
0.041725319
0.029571605
0.089148797
0.088344678
0.044978432
0.067706669
0.06938045
0.073015391
0.042618008
0.077511248
0.097412364
0.091269029
0.088924218
0.058238081
0.099383929
0.077569493
0.052426249
0.047467356
0.087293507
0.10539489
0.093543412
0.069865299
0.075349286
0.10131813
0.070882072
0.0879033
0.11838679
-0.038898816
-0.044766489
-0.053090332
-0.066138386
-0.067778873
-0.063977992
-0.03085574
-0.10473086
-0.041007296
-0.040014248
-0.060390023
-0.072530752
-0.081276459
-0.053309804
-0.075966558
-0.071703977
-0.055801626
-0.036024066
-0.058753203
-0.073151994
-0.066240305
-0.076465901
-0.048329476
-0.049089486
-0.11610337
-0.051557106
-0.086646903
-0.10236787
-0.11639628
-0.052036941
0.0067020098
0.0036588379
-0.0059943849
-0.0014469738
0.014487578
0.01356501
0.037300752
0.0075880535
-0.0047000894
-0.0066091277
-0.0090805322
0.015111001
0.024033528
0.014630028
0.0093542542
0.0011808711
-0.01268492
0.0076443574
-0.013019542
0.0068332572
0.026818807
0.03254115
0.035077753
0.02253978
0.0095981132
0.003053952
-0.014554522
-0.0084987831
0.015179863
0.026156092
0.29719111
0.29745812
0.29358252
0.28594532
0.31596362
0.31142574
0.31645563
0.31275708
0.30491113
0.31312755
0.29208118
0.299611
0.29527011
0.30191021
0.3060076
0.29490745
0.30894518
0.28038571
0.30581518
0.31000163
0.31416443
0.30831001
0.31286289
0.30733825
0.30182039
0.30419469
0.31272639
0.32284806
0.32239669
0.32317699
-0.26698625
-0.27033282
-0.25510201
-0.25871777
-0.22613649
-0.26622679
-0.29142874
-0.28087025
-0.27090452
-0.22082573
-0.24386969
-0.25831905
-0.26059799
-0.22557656
-0.20538115
-0.21187366
-0.19270419
-0.23458423
-0.19154165
-0.17807054
-0.23781912
-0.2782092
-0.28510025
-0.27863443
-0.26667807
-0.265214
-0.22562251
-0.2295288
-0.29403976
-0.29066022
0.1215459
0.10476251
0.081236347
0.078515738
0.035945809
0.061280693
0.074366397
0.072004103
0.060340102
0.03606746
0.06149877
0.077513789
0.075858568
0.032705308
0.022516011
0.063180802
0.068483267
0.087286573
0.035940292
0.04112025
0.045097095
0.082665259
0.1120062
0.10269385
0.083101106
0.11075442
0.041951705
0.061603402
0.07051825
0.12901046
-0.038544248
-0.039682062
-0.055340937
-0.061622142
-0.075403694
-0.095182426
-0.037190282
-0.025382559
-0.060579949
-0.061830545
-0.063905919
-0.056744729
-0.052454861
-0.069881634
-0.062293158
-0.056103158
-0.041671043
-0.072615639
-0.077083964
-0.068198697
-0.072877735
-0.071319745
-0.048465468
-0.066007612
-0.085374344
-0.062629267
-0.10717945
-0.082347701
-0.10371387
-0.036213493
0.019386093
0.014314588
0.0050314386
-0.0031274111
0.007725756
0.019341508
0.020616231
0.0071964248
-0.0056986824
0.0064959671
-0.00070912698
-0.0037015631
-0.0022091786
0.0054297849
-0.00045788521
-0.013136159
-0.013297872
-0.0080665848
0.0034378953
0.020735962
0.021488523
0.019245399
0.038895988
0.018426722
0.018364382
-0.0091832059
0.0018837811
0.019468022
0.032727493
0.045376758
0.29304325
0.29030611
0.2870065
0.30745092
0.3087219
0.31139007
0.31432919
0.306011
0.29989961
0.29549952
0.29179108
0.29552809
0.29140645
0.28800858
0.2854679
0.2848052
0.2882493
0.28371581
0.30664192
0.30819234
0.31441559
0.30651435
0.30106894
0.30616276
0.31335709
0.31204251
0.32003258
0.32619893
0.32146752
0.32334185
-0.2407751
-0.24931033
-0.23890842
-0.19939094
-0.20458415
-0.2209352
-0.25043077
-0.26380117
-0.27717133
-0.24673985
-0.25969907
-0.26616063
-0.26307965
-0.24631318
-0.24933338
-0.23887622
-0.23539103
-0.24590366
-0.21860029
-0.23517093
-0.27451992
-0.27050964
-0.26082201
-0.23605482
-0.20121102
-0.21383184
-0.17611118
-0.21155661
-0.28644589
-0.28123872
0.11608949
0.10071892
0.068202596
0.069484048
0.066436968
0.064272743
0.044417654
0.07986413
0.083780399
0.089977584
0.087120481
0.11174531
0.11722224
0.084838193
0.11591587
0.11154852
0.10459125
0.11403905
0.048495086
0.057193478
0.077429338
0.10582679
0.08770523
0.066726047
0.069037644
0.077404466
0.034764402
0.05070241
0.066572127
0.12260814
-0.088238762
-0.057643137
-0.077317669
-0.036587227
-0.041353415
-0.067078131
-0.071802452
-0.070434486
-0.050780632
-0.075782806
-0.074444265
-0.048120627
-0.052187088
-0.072015984
-0.039794608
-0.079028629
-0.052744175
-0.047593691
-0.050383849
-0.080417725
-0.048164116
-0.04499248
-0.070282159
-0.056684151
-0.041491287
-0.051042983
-0.089737512
-0.074172433
-0.097545802
-0.030225305
0.046660235
0.010366133
0.01247348
-0.012487361
-0.0053075206
-0.010805628
0.015980855
0.01844821
0.0063701017
0.032222888
0.02952908
0.020562512
0.01479502
0.013737346
-0.0055882665
0.03332396
-0.0011404342
-0.0036291816
-0.010644254
0.0061777004
0.01116778
0.021952786
0.025989161
0.01244002
-9.8411482e-05
-0.014749333
0.0052045295
0.020949309
0.033077851
0.04478384
)
;

boundaryField
{
    minX
    {
        type            fixedFluxPressure;
        gradient        uniform 0;
        value           nonuniform List<scalar> 
50
(
0.28265974
-0.25097228
0.13240979
-0.044503542
0.021141265
0.2761179
-0.24580208
0.099776523
-0.090884277
0.013340799
0.29172482
-0.23703267
0.08920417
-0.056520689
-0.0073381427
0.29389479
-0.2406327
0.082541186
-0.061061388
-0.0088664743
0.29543027
-0.2650002
0.12152718
-0.055628774
0.01975489
0.29181131
-0.25977335
0.11086669
-0.037312112
0.022243968
0.2941321
-0.22858356
0.068877868
-0.077419049
0.0044176738
0.28957726
-0.25438215
0.10831177
-0.038898816
0.0067020098
0.29719111
-0.26698625
0.1215459
-0.038544248
0.019386093
0.29304325
-0.2407751
0.11608949
-0.088238762
0.046660235
)
;
    }
    maxX
    {
        type            fixedFluxPressure;
        gradient        uniform 0;
        value           nonuniform List<scalar> 
50
(
0.29668447
-0.22475036
0.068790576
-0.083644249
0.009752085
0.296631
-0.26432969
0.085091932
-0.062982097
0.006587847
0.30384455
-0.26762047
0.12035318
-0.025581586
0.031451746
0.28101839
-0.25547154
0.092381093
-0.074332467
0.035262739
0.31318798
-0.21312648
0.044077614
-0.075915406
0.013863317
0.32658143
-0.19556589
0.076155743
-0.068087548
0.0037056983
0.32970763
-0.27901991
0.088805188
-0.057283526
-0.0048426426
0.32177755
-0.29058911
0.11838679
-0.052036941
0.026156092
0.32317699
-0.29066022
0.12901046
-0.036213493
0.045376758
0.32334185
-0.28123872
0.12260814
-0.030225305
0.04478384
)
;
    }
    minY
    {
        type            fixedValue;
        value           uniform 0;
    }
    minZ
    {
        type            fixedFluxPressure;
        gradient        uniform 0;
        value           nonuniform List<scalar> 
150
(
0.28265974
-0.25097228
0.13240979
-0.044503542
0.021141265
0.28358156
-0.25491204
0.11953276
-0.041000258
0.023811733
0.28298065
-0.25393197
0.11731557
-0.049305817
0.008672516
0.28263103
-0.24671897
0.097233107
-0.04871877
-0.0022211414
0.2823882
-0.23309341
0.12279312
-0.043673709
-0.010052409
0.2984614
-0.20544698
0.055198818
-0.048498854
-0.015414618
0.30072866
-0.17500157
0.052634034
-0.062864543
-0.0083880462
0.3074742
-0.17474274
0.047324434
-0.058088112
-0.007797648
0.30029566
-0.21197073
0.034520126
-0.059946494
-0.002502227
0.28015779
-0.24890245
0.060882468
-0.059844803
-0.009029736
0.28353635
-0.25289295
0.074384959
-0.031825962
-0.0073337369
0.28847676
-0.25554785
0.08877662
-0.030022711
0.0031250152
0.28989393
-0.24964661
0.072118551
-0.05178738
-0.00036403312
0.29059664
-0.21691958
0.042267623
-0.0539465
-0.0022760287
0.29271878
-0.19366422
0.055070091
-0.034827502
-0.016614255
0.29422757
-0.20000343
0.056677433
-0.027975156
-0.011917064
0.29447977
-0.21014088
0.061901434
-0.053713024
-0.017110586
0.29489279
-0.23097209
0.057344335
-0.069784227
-0.0055291478
0.29247951
-0.25977631
0.076510094
-0.063592579
0.0042150559
0.29628046
-0.26203922
0.098310096
-0.046163872
0.01808224
0.28804735
-0.26174247
0.074638483
-0.046236013
0.010326862
0.2870554
-0.25160612
0.05204115
-0.0677412
0.011624505
0.29495276
-0.21270987
0.051269888
-0.049179748
-0.0060361952
0.29903313
-0.18974045
0.072356095
-0.030097024
-0.012211361
0.2992689
-0.18454254
0.078555616
-0.02902096
-0.0061665896
0.3032277
-0.17449196
0.071492957
-0.020952174
-0.0044494955
0.30166159
-0.18398133
0.068594499
-0.030349527
-0.012870334
0.29957027
-0.19995626
0.063433562
-0.051699206
-0.010271627
0.29798343
-0.21650986
0.058359492
-0.06594904
-0.011343804
0.29668447
-0.22475036
0.068790576
-0.083644249
0.009752085
)
;
    }
    maxZ
    {
        type            fixedFluxPressure;
        gradient        uniform 0;
        value           nonuniform List<scalar> 
150
(
0.29304325
-0.2407751
0.11608949
-0.088238762
0.046660235
0.29030611
-0.24931033
0.10071892
-0.057643137
0.010366133
0.2870065
-0.23890842
0.068202596
-0.077317669
0.01247348
0.30745092
-0.19939094
0.069484048
-0.036587227
-0.012487361
0.3087219
-0.20458415
0.066436968
-0.041353415
-0.0053075206
0.31139007
-0.2209352
0.064272743
-0.067078131
-0.010805628
0.31432919
-0.25043077
0.044417654
-0.071802452
0.015980855
0.306011
-0.26380117
0.07986413
-0.070434486
0.01844821
0.29989961
-0.27717133
0.083780399
-0.050780632
0.0063701017
0.29549952
-0.24673985
0.089977584
-0.075782806
0.032222888
0.29179108
-0.25969907
0.087120481
-0.074444265
0.02952908
0.29552809
-0.26616063
0.11174531
-0.048120627
0.020562512
0.29140645
-0.26307965
0.11722224
-0.052187088
0.01479502
0.28800858
-0.24631318
0.084838193
-0.072015984
0.013737346
0.2854679
-0.24933338
0.11591587
-0.039794608
-0.0055882665
0.2848052
-0.23887622
0.11154852
-0.079028629
0.03332396
0.2882493
-0.23539103
0.10459125
-0.052744175
-0.0011404342
0.28371581
-0.24590366
0.11403905
-0.047593691
-0.0036291816
0.30664192
-0.21860029
0.048495086
-0.050383849
-0.010644254
0.30819234
-0.23517093
0.057193478
-0.080417725
0.0061777004
0.31441559
-0.27451992
0.077429338
-0.048164116
0.01116778
0.30651435
-0.27050964
0.10582679
-0.04499248
0.021952786
0.30106894
-0.26082201
0.08770523
-0.070282159
0.025989161
0.30616276
-0.23605482
0.066726047
-0.056684151
0.01244002
0.31335709
-0.20121102
0.069037644
-0.041491287
-9.8411482e-05
0.31204251
-0.21383184
0.077404466
-0.051042983
-0.014749333
0.32003258
-0.17611118
0.034764402
-0.089737512
0.0052045295
0.32619893
-0.21155661
0.05070241
-0.074172433
0.020949309
0.32146752
-0.28644589
0.066572127
-0.097545802
0.033077851
0.32334185
-0.28123872
0.12260814
-0.030225305
0.04478384
)
;
    }
    bottomWater_to_rightSolid
    {
        type            fixedFluxPressure;
        gradient        uniform 0;
        value           nonuniform List<scalar> 
130
(
-0.0055291478
0.0042150559
0.01808224
0.010326862
0.011624505
-0.0060361952
-0.012211361
-0.0061665896
-0.0044494955
-0.012870334
-0.010271627
-0.011343804
0.009752085
-0.0025465912
0.028129715
0.01878073
0.017637195
0.0090016292
0.0035844012
-0.015125778
-0.0074195372
-0.016654588
-0.013048877
0.007509067
0.0015617621
0.006587847
-0.0024407874
0.0081341095
0.018110585
0.017906807
0.034760849
0.024108626
0.023087801
0.045689277
0.032815841
0.0065021537
0.024541639
0.027637614
0.031451746
-0.013492865
-0.013324905
0.0077017777
0.015546534
0.019288337
0.040055297
0.023362576
0.037201749
0.02860957
-0.0049349675
0.030100418
0.014298126
0.035262739
-0.0011005181
-0.02553996
0.0038011767
0.012647257
0.01361976
0.025376923
0.01998621
0.016497065
-0.0036799039
-0.020311836
-0.012537911
-0.007126476
0.013863317
-0.019653933
-0.020010922
-0.0085275518
0.025641553
0.03016883
0.021248017
0.014575114
0.0037331277
-0.033787237
-0.019084054
-0.012965408
-0.018782808
0.0037056983
-0.00029964594
0.00022944154
-0.011917415
0.012353612
0.024010174
0.02667204
0.021832374
0.018756527
-0.0081999131
-0.024061447
-0.019928432
-0.019323339
-0.0048426426
0.0076443574
-0.013019542
0.0068332572
0.026818807
0.03254115
0.035077753
0.02253978
0.0095981132
0.003053952
-0.014554522
-0.0084987831
0.015179863
0.026156092
-0.0080665848
0.0034378953
0.020735962
0.021488523
0.019245399
0.038895988
0.018426722
0.018364382
-0.0091832059
0.0018837811
0.019468022
0.032727493
0.045376758
-0.0036291816
-0.010644254
0.0061777004
0.01116778
0.021952786
0.025989161
0.01244002
-9.8411482e-05
-0.014749333
0.0052045295
0.020949309
0.033077851
0.04478384
)
;
    }
    bottomWater_to_leftSolid
    {
        type            fixedFluxPressure;
        gradient        uniform 0;
        value           nonuniform List<scalar> 
130
(
0.021141265
0.023811733
0.008672516
-0.0022211414
-0.010052409
-0.015414618
-0.0083880462
-0.007797648
-0.002502227
-0.009029736
-0.0073337369
0.0031250152
-0.00036403312
0.013340799
0.031932343
0.0089323809
-0.0089844925
-0.017196374
0.007963498
0.032028767
0.0018470703
-0.0035336856
0.01114239
0.0047368236
0.013095717
0.020544626
-0.0073381427
0.010370099
-0.0032083766
-0.013625312
-0.011882771
0.0024722169
0.021300419
0.019035444
0.021577394
0.020544162
0.01755741
0.0090084914
-0.0026708251
-0.0088664743
-0.013097139
-0.016820691
-0.013686428
0.0075417243
0.011404969
0.025180033
0.0031304901
-0.0070012015
-0.0041773366
-0.0074181413
0.0057088886
0.014049419
0.01975489
0.010712923
0.034899484
0.030867606
0.023301815
0.026288817
0.021583019
0.0072535713
-0.0090942571
-0.006112645
-0.0045329489
0.014536089
0.016811992
0.022243968
0.017682904
0.018210793
-0.0012119918
0.018646094
0.024535241
0.035731704
0.019797906
0.00052064746
-0.0017582027
0.015743354
0.018580769
0.037323
0.0044176738
-0.020037052
-0.017491972
-0.012097448
0.012460251
0.021770661
0.015811454
0.0022353587
-0.0055265076
-0.0069349762
0.0026390889
0.015845814
0.022431847
0.0067020098
0.0036588379
-0.0059943849
-0.0014469738
0.014487578
0.01356501
0.037300752
0.0075880535
-0.0047000894
-0.0066091277
-0.0090805322
0.015111001
0.024033528
0.019386093
0.014314588
0.0050314386
-0.0031274111
0.007725756
0.019341508
0.020616231
0.0071964248
-0.0056986824
0.0064959671
-0.00070912698
-0.0037015631
-0.0022091786
0.046660235
0.010366133
0.01247348
-0.012487361
-0.0053075206
-0.010805628
0.015980855
0.01844821
0.0063701017
0.032222888
0.02952908
0.020562512
0.01479502
)
;
    }
    bottomWater_to_heater
    {
        type            fixedFluxPressure;
        gradient        uniform 0;
        value           nonuniform List<scalar> 
92
(
-0.0022760287
-0.016614255
-0.011917064
-0.017110586
0.013470361
-0.0085335565
-0.00096581456
-0.0084976217
-0.0040208143
-0.0012281186
0.0049202787
0.015257015
0.29303229
0.28804721
0.28358621
0.29415278
-0.2568401
-0.24810683
-0.215487
-0.19791051
0.077986734
0.076994816
0.040610331
0.063771348
-0.042471711
-0.051047813
-0.060356157
-0.035410187
0.015561978
0.015561978
0.0063691415
0.0063691415
0.0087735134
0.0087735134
-0.0042003272
-0.0042003272
0.29889744
0.30812493
-0.26372746
-0.17690977
0.082540106
0.061482159
-0.040615488
-0.0098802071
0.016811992
-0.0011005181
0.30472584
0.29848586
0.29889007
0.29367497
0.30369289
0.29103635
-0.26368134
-0.26666421
-0.27204151
-0.26686479
-0.21922117
-0.25104712
0.12049001
0.12436267
0.11468776
0.11782461
0.073216852
0.087496838
-0.037813726
-0.043407464
-0.040017164
-0.059805432
-0.025521879
-0.07400663
0.037323
0.027191218
0.032914078
0.022184562
-0.019653933
0.013972085
0.027191218
0.032914078
0.022184562
0.013972085
0.014630028
0.0093542542
0.0011808711
-0.01268492
0.0054297849
-0.00045788521
-0.013136159
-0.013297872
0.013737346
-0.0055882665
0.03332396
-0.0011404342
)
;
    }
}


// ************************************************************************* //
