/*--------------------------------*- C++ -*----------------------------------*\
| =========                 |                                                 |
| \\      /  F ield         | OpenFOAM: The Open Source CFD Toolbox           |
|  \\    /   O peration     | Version:  v2012                                 |
|   \\  /    A nd           | Website:  www.openfoam.com                      |
|    \\/     M anipulation  |                                                 |
\*---------------------------------------------------------------------------*/
FoamFile
{
    version     2.0;
    format      ascii;
    class       surfaceScalarField;
    location    "340/bottomWater";
    object      phi;
}
// * * * * * * * * * * * * * * * * * * * * * * * * * * * * * * * * * * * * * //

dimensions      [1 0 -1 0 0 0 0];
oriented        oriented;


internalField   nonuniform List<scalar> 
3858
(
-9.4051161e-05
0.00013479856
-3.7119082e-05
-0.0001656208
0.00013676112
-6.1634943e-05
-0.00021345751
0.00013707871
-8.5438472e-05
-0.00025317581
0.00013454649
-9.0875962e-05
-0.00024723859
5.8499321e-05
-6.048738e-05
-8.2662996e-05
-0.00021532383
5.1105254e-05
7.2378353e-05
-0.00021981828
6.4498785e-05
0.0002691481
-0.00029004321
9.1734954e-05
0.0004248969
-0.00018715995
3.1623711e-05
0.00036093501
9.969482e-05
-3.1057606e-05
0.00024189642
0.00017541744
-5.251892e-05
1.3248387e-05
0.00016921552
6.1921545e-05
-0.00014187238
0.00011565028
4.1503063e-05
-7.7729502e-05
-7.6016903e-05
1.3747762e-05
5.0364915e-05
-0.00019870961
7.2088385e-05
0.00015373381
-0.00020100981
9.8863792e-05
0.00020347912
-0.00015518372
0.00010669942
0.00020522889
-7.0534734e-05
6.9896379e-05
8.5984477e-05
9.9386479e-05
2.1394789e-05
-8.392079e-05
0.00015410934
1.642667e-05
-0.00026771103
0.00017454117
1.1875258e-05
-0.00032609515
7.295909e-06
5.4028452e-05
-0.00023897636
-0.00019139894
0.00010563467
-0.00013729643
-0.00019716718
9.5777938e-05
-3.9682191e-05
-0.00017351998
7.5942027e-05
0.00010072639
-0.00025654629
0.00011536437
0.00019871556
-0.00022611576
0.00012782007
0.00023989295
-0.00018085289
0.00013992169
0.00021835186
-0.00012119748
0.00014330669
9.5851639e-05
0.00012314033
-0.00011032414
0.00040367216
-0.00015854946
-0.00023060167
0.00049242448
-0.00023538582
-0.00031676555
0.00043550948
-0.0002122669
-0.00035084592
0.00033968523
-0.00017105836
-0.00018617096
-1.5836192e-05
-9.0339445e-05
2.5877717e-05
-0.00051804702
9.0674514e-05
0.00012794341
-0.00045676202
0.00013487806
0.00023739651
-0.00059696646
0.00019747016
0.00038625117
-0.00047254282
0.00013652822
0.00045650767
8.609907e-06
2.0828418e-05
0.00025976123
0.00042285588
-5.0692002e-05
-0.00017282768
0.0005671879
3.4616529e-05
-0.00032489921
0.00024056526
2.7156538e-05
-0.00011057749
-0.00028831176
-2.0268804e-06
0.00010275857
-0.00048007624
6.8030551e-05
0.00024664523
-0.00050761905
0.00016272256
0.00037366009
-0.00042416414
0.00014196556
0.00049077467
-0.00026400428
7.635496e-05
0.00035161997
0.00031293184
-7.4390653e-05
-5.1227316e-05
0.00060150275
-4.4546125e-05
-0.00035243433
0.00037364648
0.00010210172
-0.00035299875
-0.00016023476
0.00016809509
-0.00023597613
-0.00050726378
0.00019884222
-0.00011573519
-0.00043965993
0.00012225183
1.3120682e-06
-0.00037349297
8.2925736e-05
0.00013560469
-0.00049768376
0.00010684485
0.0002383978
-0.00046875021
0.00013984134
0.00026751913
-0.00042817663
0.00021820241
0.00026492542
-0.00035837055
0.00023976678
7.8820241e-05
0.00028195682
-3.2070795e-05
0.00036455084
7.1192121e-05
-0.00015048334
0.00044709139
0.00016374564
-0.00020863387
0.00036645928
0.00012720073
-6.8847655e-05
0.00016148335
3.8415663e-05
0.00031860787
-0.00040488091
1.5891905e-06
0.00027678355
-0.00036940713
-0.00010681556
0.00014195727
-0.00020135022
-0.00012058551
-0.00010426025
-0.00015099073
-0.0001997582
-0.00035854736
-0.00012306796
-9.5187736e-05
-6.7875967e-05
-0.00017521975
-0.00010684174
0.00015265974
0.00019819754
4.1226342e-06
0.00016172898
0.00049203374
6.6084899e-05
0.00026620292
0.0001391596
-3.0682886e-06
0.00015056258
-0.00012508008
-4.7591383e-05
0.00010427378
-0.00032647638
-0.00010731108
0.00012552676
-0.00048051078
-4.8361275e-05
0.00010372187
-0.00042183607
1.9476796e-05
7.7824145e-05
-0.00017611614
-6.1990431e-05
0.0001468268
0.00017909994
6.4829239e-05
0.00017731408
0.00053604451
3.4970965e-05
0.00022426675
0.00028091973
4.5774093e-05
0.00018069757
-9.3869106e-05
-2.2796455e-05
1.0903684e-05
-0.00027425466
-6.3215222e-05
2.0419271e-05
-0.00042204222
-2.7133287e-05
7.6834729e-05
-0.00043306989
3.1614782e-06
6.2129971e-05
-0.00045578244
-2.7196563e-05
7.3621659e-05
-0.00043045039
-4.9791508e-05
4.5122591e-05
-0.00029588
-0.00010379756
-3.7800056e-05
-0.00023143344
-4.4014473e-05
-1.3984614e-05
5.5004798e-05
-6.3654895e-05
0.00022261661
0.00020558913
-0.00011332254
0.00026181697
0.00023494207
-0.00019302499
0.00025095301
0.00019520872
-0.00017554734
2.7383549e-05
0.00011662216
-8.0601107e-05
-0.00042136173
-7.8465406e-05
-4.0288172e-05
-0.00033301257
-7.6707494e-05
-0.00010531991
-0.00012420467
-1.2113801e-05
-0.00019524327
-8.3590487e-05
2.2523126e-05
-0.00025821469
1.5405729e-05
-7.5502263e-05
-0.00023066382
-0.00015166695
-5.1103663e-05
3.5790631e-05
-0.0001431246
7.4867682e-05
0.00030832521
0.00011031173
0.00010918741
0.00027613427
7.8090334e-05
9.3260175e-05
0.00015954755
-2.1353728e-05
1.286034e-05
0.00018269051
-0.00029174703
-5.7872346e-05
0.00020240843
-0.00047363178
-2.6596942e-05
0.00019882573
-0.0003866776
-3.1575792e-05
7.1582588e-05
3.4732829e-05
-8.3605838e-05
8.1971579e-06
0.000181708
6.0777368e-05
0.00017373658
0.0003001694
7.0335695e-05
0.00027798467
0.00012546834
5.1203315e-05
0.00013904799
0.00010010954
-5.5041947e-05
8.5815386e-05
-0.00019090716
-3.0114881e-05
0.00010510515
-0.00041050958
-3.0822399e-05
3.7568385e-05
-0.00041630897
5.0775852e-05
2.0974695e-05
-0.00042108915
-1.8099588e-05
3.9063985e-05
-0.00040436503
-4.4174654e-05
5.9833933e-05
-0.00024262676
-7.402319e-05
7.5027919e-05
-0.00018636846
-6.0258967e-05
0.00011647961
-5.5436309e-05
-2.109521e-07
0.00022282756
9.9206137e-05
0.00016239988
0.00019315149
0.00015700766
7.0624482e-05
0.00014991056
-0.000208572
-0.00014216525
-0.00029240666
-0.00024917789
-0.00018024927
-0.00023636206
-8.5277287e-05
-0.00017856246
5.0212645e-05
-0.0001200842
6.4765671e-05
-0.00016621997
4.1132948e-05
-0.00011949188
0.00017799354
-2.6548877e-05
0.00031082678
-5.4742923e-05
0.000391831
-0.00010235798
0.00024537638
-0.00014529244
-4.9040697e-05
-0.00017921473
-0.00032535751
-0.0001103608
-0.00029109931
4.7461941e-07
-0.00011714713
7.7558167e-06
0.00012059289
6.2429393e-05
0.00023580336
1.0257872e-05
0.00038844861
-5.2535701e-05
0.0003618139
-0.00016427243
0.00018871327
-0.00023740894
6.821254e-05
-0.00029580823
-8.3602275e-05
-0.00026927433
-0.00025541027
-0.00023255703
-0.00024523972
-0.0002527973
-0.00023067059
-0.00020093759
-0.00011419098
-4.7640165e-05
0.00015582034
-0.00014013013
-0.00012009985
0.00013538967
-0.00011802946
-0.00012802339
9.8940206e-05
-0.00017026077
-0.00011919831
0.00011097312
-0.00020469253
-0.00012072161
0.00010662926
-0.00016200023
-0.00011338854
0.00012862481
-8.1557333e-05
6.6987368e-05
-9.5326592e-05
-2.194577e-05
0.00015033194
4.7136317e-05
-3.7924911e-05
0.00015461771
0.00012663996
-9.8421385e-05
8.454381e-05
0.00017256611
-0.0001313383
-1.4028744e-05
0.00016189275
-0.00011327404
-0.00011960209
0.00017863596
-9.1076267e-06
-0.00014538035
0.00010637647
-3.6907702e-05
2.0706642e-05
-0.00018145494
2.9068831e-05
0.00011372866
-9.7971034e-05
7.8180211e-05
0.00012379827
4.3751636e-05
4.6706734e-05
8.8130233e-05
0.00013686622
7.3512342e-06
4.2969773e-05
0.00016854916
-5.1744916e-05
1.0332812e-05
0.00013277355
-7.708387e-05
-5.0687367e-05
0.00015634198
-7.8176702e-05
-0.0001613104
0.00016958576
-4.6327588e-05
-0.0002647017
0.00018147745
-2.2179451e-05
-0.00027552983
6.257252e-05
5.5795936e-05
-0.0001585087
-0.0001655956
0.00014449458
2.7461291e-06
-0.00023157712
0.00014557437
0.00014403782
-0.00020057823
0.00017450292
0.00023262988
-0.00011632953
0.00015583886
0.0002358922
4.9161017e-05
8.8849704e-05
0.00015203718
0.00014836663
8.0475167e-05
0.0001717224
0.00010419254
-0.00012712068
0.00016502064
-4.0629088e-05
-0.00014450587
-3.1528305e-05
-5.1082646e-05
-8.1799978e-05
-4.6100875e-05
-0.00012993171
6.1602644e-06
1.1631717e-05
-0.0001596772
7.4221031e-06
0.00011339218
-9.8364204e-05
7.4402429e-05
5.9706288e-05
9.2612717e-05
0.00030071832
-0.0003278918
0.00014112738
0.00035512157
-6.5002549e-06
0.00019670348
0.0001637529
0.00043414149
2.0395363e-05
-1.5298976e-05
0.00049652141
-0.000124075
-0.000122412
0.00030056993
-8.2256162e-05
-0.00035198731
0.00053962194
-9.6794147e-05
-0.00024695059
7.0890463e-05
-4.2394182e-05
3.932869e-05
-0.00052257261
5.2811494e-05
0.00022647613
-0.00032696639
0.00010987846
0.00039343531
-2.6213019e-05
6.5728019e-05
0.00028943128
0.00042706553
-4.4229737e-05
0.00014242195
0.00045198248
-6.0069025e-05
0.0001942987
0.00010641224
-9.990609e-05
6.8471013e-06
0.00041778582
-0.00011853836
-0.00027754931
0.00054879947
7.2844311e-06
-0.00038890093
0.00034244495
0.00011847922
-0.00032834581
-4.9642808e-05
0.00025050243
-0.00014337933
-0.00046221484
0.0002339046
2.0108059e-05
-0.00052973453
0.00021759575
0.00018137457
-0.00047768264
0.00022268275
0.00033049242
-0.0003675935
0.00024198746
0.00037207268
-5.4389758e-05
0.00028017292
0.00029244109
0.00021524179
0.0002525232
0.00055309544
0.00019302488
-8.1415782e-06
0.0001005485
0.00014380585
-0.00021256075
-3.5623974e-05
0.00037226048
-0.00032410343
-6.5813584e-05
0.00025845613
-0.00018493462
-0.00023008855
0.00014096713
0.0002011798
-0.00031089727
3.9764218e-05
0.00032719934
-7.2551664e-05
-0.00010057714
6.1726445e-05
-9.7833549e-05
-8.5170865e-05
2.8078118e-05
-0.00011062917
-6.1980945e-05
7.2854144e-05
0.00028945857
4.7191609e-06
4.2638642e-05
0.00038939949
3.0495687e-05
3.1840121e-05
0.00020122086
0.00011427022
0.00013019019
0.00042410541
8.3251349e-05
0.00029827605
-2.8348641e-05
-7.1915062e-05
3.2799338e-06
-0.00010995143
-0.00016521647
-0.00014558551
-0.0002250401
-6.0371959e-05
4.7679167e-06
-0.00018353642
-4.1391322e-05
0.000143341
0.00014451939
0.00016344983
9.1586472e-05
0.00032042289
0.00012132368
6.8384103e-05
-1.4168069e-05
0.00020861191
6.3911219e-05
0.00027245844
0.00018477123
7.9253001e-05
0.00048112385
9.8107935e-05
0.00019102729
0.00021254585
-4.6716424e-06
0.00026389766
-0.00012792998
-5.7798402e-05
0.00017082086
-0.0002630413
-0.00013323002
-2.4649344e-05
-0.00019423512
-0.00013686772
-8.1679484e-05
-0.00031627747
-0.00013157159
-0.0001439065
-0.00024214111
-0.00011301689
-0.000126158
-7.9321971e-05
-9.6613841e-05
-3.758442e-05
9.4762318e-05
-1.2108582e-05
0.00047814636
9.2369457e-05
0.00012428192
2.5853022e-05
0.00015600268
-0.00011825208
0.00031461219
0.0001272399
-0.00022653186
0.00021778464
1.9890285e-05
-0.00016281216
-0.00022034079
4.3154689e-05
6.3843827e-05
-0.00044828757
-0.00016773109
5.1560482e-06
0.00013059166
-0.00022116304
-0.00032318138
0.00036460092
-0.00014621083
-0.00045155114
0.00011664693
-7.6383208e-05
-0.00017868708
-2.6600242e-05
-3.2307496e-05
-8.1213489e-06
0.0001593007
8.4293953e-06
6.154196e-05
0.00013257734
7.3847881e-05
0.00027527428
0.00018555013
0.00013401034
0.0001393595
0.00028020181
-7.9375533e-05
5.1615812e-05
0.00013245256
-0.00014179998
-7.4025777e-06
-0.00015332642
-7.0567677e-05
-0.00010321799
-9.3391925e-05
-2.0926059e-05
0.00015589583
-0.00018348336
3.7313118e-05
0.00028196145
7.521044e-05
3.5540979e-05
-1.909916e-05
0.00032111093
2.6558976e-05
-2.1203934e-05
0.00015860554
0.00018629338
0.00020211476
0.00019608017
0.00011292831
0.00033131692
5.8428415e-05
-3.012665e-05
0.00028793199
-4.0524179e-05
-7.4135742e-05
0.000256168
-0.00022516155
-3.6938145e-05
5.2191232e-05
-3.0662058e-05
9.1179568e-05
-3.1108957e-05
-0.00023259909
-1.8477773e-05
-6.4543256e-05
-0.00016369696
-8.9184498e-05
-0.00024848439
0.00017834961
-0.00014775365
-0.00023096645
0.00010885457
-9.1869157e-05
0.00016300223
2.874137e-05
-5.0984405e-05
0.00029966499
0.0001587898
0.00026723787
0.00028926337
0.00024431873
3.9982504e-05
0.00017885064
-0.00036149222
-0.00018897809
-0.00030071266
-0.00017936579
-4.3110873e-05
-0.00012936293
1.7397209e-05
-0.0001224236
-3.2415162e-05
-9.6872063e-05
1.3371776e-05
-5.2706205e-05
2.5802911e-05
6.5432285e-07
0.00011954054
6.5263616e-05
0.00029758944
4.7409963e-05
0.00035389866
-2.6214669e-05
0.0001767705
-0.00012149072
1.2785925e-05
-0.00010862211
-0.00019313379
-8.7924462e-05
-0.00023024764
0.0001127989
-4.3422211e-05
0.00014204132
6.0384192e-05
0.00011722853
0.0002151794
5.1542846e-05
0.00027808184
-5.7009719e-05
0.00027889294
-0.0002056077
0.00010558255
-0.00028926009
5.1660937e-05
-0.00027254867
-0.00014332113
-0.00030689135
-0.00032042114
-0.00021915399
-0.0001974021
-0.00019746673
-0.00014071351
-0.00014877161
-9.1902257e-05
-0.00019898386
7.0127074e-05
-9.5518584e-06
-0.00012816221
-0.00026829566
7.8676764e-05
-5.3530746e-05
-0.00024257412
-2.0357864e-06
7.4732558e-05
-0.00023973425
-9.2902486e-05
0.0001790171
-0.00020671355
-6.071306e-05
0.00014413838
6.5050474e-05
-0.00010971858
0.00011004472
0.00011287158
-0.00010153831
6.374263e-05
0.00016110431
-0.00015196388
1.4209379e-05
0.00013056151
-0.00017880078
-1.6731478e-05
8.2717343e-05
-0.00017926373
0.00012663973
-0.00018784719
-6.8019766e-05
0.00010261629
0.00011662781
-9.7432085e-05
5.8025198e-06
0.00016109124
-9.8916851e-05
-6.194001e-05
0.00014456803
-4.5193783e-05
-0.0001113057
0.00014869924
-1.8682535e-05
-0.00016706632
0.00017099572
-6.5551195e-05
-0.00014799983
0.00010307744
-0.0001119357
-1.8254207e-05
-1.6785957e-05
-0.00016104356
0.000183573
-0.00020884308
-6.9257341e-05
0.00017504308
2.4754121e-05
-9.2159256e-05
3.2537581e-05
0.00017336336
-7.5207221e-05
-6.4122465e-05
0.00014447032
-7.0512098e-05
-0.00012177929
0.00015872464
-4.5289142e-05
-0.0001344102
9.144083e-05
6.6155855e-05
1.3407458e-05
-2.9672063e-05
2.6160178e-05
9.4208822e-05
1.4982642e-05
7.9176835e-05
8.2949183e-05
0.00012236981
4.4927693e-05
6.1790108e-05
0.00016136577
-5.1650208e-05
2.7586716e-05
0.00014799883
-3.4227283e-05
0.00014583826
-1.5145136e-05
-0.00023245914
7.4802854e-05
0.00018715428
-0.00016175163
-0.00062725014
0.00023716432
-6.5766251e-05
-0.00054583059
7.7339383e-05
0.00011393
-0.00055649215
-2.2615561e-05
0.00025077729
-0.00050424511
6.2320069e-05
0.00031634197
-6.9205906e-06
9.9019103e-05
0.00033474809
0.00017581819
5.9774658e-05
6.425016e-05
0.00066781527
-3.9509539e-05
-0.0002154129
0.00062067821
-0.00019005828
-0.00018207491
9.7656984e-05
-0.00017235263
0.0001134857
-0.00057218912
6.5251692e-06
0.00023131926
-6.552825e-05
-3.2471658e-05
0.0001450023
0.00021175322
-6.7392166e-06
2.3439667e-05
0.00026098092
5.7961221e-05
-0.00015891769
0.00040975212
3.1182927e-05
-0.00035465903
0.00052252099
-9.0055922e-05
-0.00017870275
4.2219063e-05
-0.00015932765
6.5017588e-05
-0.00017618418
-0.00014439116
0.0003614868
-0.00057898116
-2.6237225e-05
0.00039759907
-8.7236887e-05
-4.2659623e-05
0.00023342646
0.00038858701
-4.3766603e-05
-0.0001369039
0.00062718902
6.090892e-06
-0.00038497661
0.00055473909
0.0001025607
-0.00027456315
5.5108277e-05
0.00015982371
-3.8314641e-06
-0.00015590397
7.309597e-05
0.00025177903
-0.00010925719
9.1312095e-05
0.00035073217
0.00015416798
0.00011123615
0.00025360947
0.00053230132
6.36006e-06
0.00011592873
0.00055523842
-1.7035641e-05
0.00053101833
-7.6226465e-05
0.00027671869
-0.00021907838
0.0001609684
-4.6712645e-05
-0.00011748571
0.00018592739
-0.00017628717
-0.00018503521
2.7235278e-05
-5.9266997e-05
-0.00048714711
-4.5398088e-05
-4.0092881e-05
-0.00040301223
-8.0642778e-05
7.694644e-05
-0.00017756009
-4.697695e-05
0.00014617517
4.0891398e-05
-1.9472793e-05
0.00012257967
0.00058038344
4.9046402e-05
0.00016730317
0.00058167924
-1.005364e-06
0.00019885661
4.7678095e-05
4.8921136e-05
-0.00023570728
-0.00011668466
9.3329646e-05
-0.00025871278
-8.764225e-05
0.00012837084
-7.4625591e-05
-3.2610781e-05
-1.1638266e-05
4.6697503e-07
6.0356569e-05
-3.9684709e-05
-1.4517436e-05
0.00028662564
7.7738905e-05
-2.5670542e-05
0.00040540192
8.6880825e-05
0.00013522697
-6.3702752e-05
0.00010847411
0.00021311473
-0.00026059246
0.00012784419
-8.5329144e-05
-0.00013816104
6.6235657e-05
-0.00015810875
-8.5146821e-05
0.00025546077
-5.7676896e-05
0.00027089559
0.00011536751
-5.5503386e-05
0.00059918349
2.1160384e-05
-1.5530085e-05
0.00045122982
5.7375757e-06
3.32311e-05
-7.573265e-05
-5.1150267e-05
-0.00010275059
-0.00014997302
-6.8169588e-06
-0.00012441875
-0.00012066616
-9.849445e-05
-1.6561391e-05
3.9022577e-05
-0.00010572885
4.0041467e-05
0.00046265721
-8.3572583e-05
5.9456995e-05
0.00051473923
8.9750798e-06
0.00045466377
0.00022818101
0.00012223809
-0.00029648155
0.00011116776
-3.0844534e-05
0.00016093485
1.9019718e-06
-2.4942471e-05
-5.947189e-05
-0.00011157509
9.1790475e-05
-0.00050486024
-5.5865118e-05
9.4918963e-05
-0.00041998926
-0.00015388253
-3.3361294e-05
-5.2978815e-05
-0.00021746405
-0.00018862656
0.00020315782
-0.00015321197
2.5423858e-05
0.0002645839
2.5365917e-05
0.00024282288
0.0003050392
2.6933542e-05
9.7369136e-05
0.00019873471
2.8265214e-06
-0.00010739396
0.00011037546
5.1550862e-05
-0.00020014201
-3.4311591e-07
0.00013945924
-0.00012217475
-0.0001514483
-3.8505305e-05
-3.5756373e-05
-0.00011665345
-5.1208369e-05
0.00010751616
-2.3770723e-05
9.6556109e-05
0.00021457558
0.0001799159
9.7500517e-05
0.00010776618
6.9869242e-05
1.05505e-05
5.2704932e-05
-0.00022123163
5.1241385e-05
-0.00014172944
6.2964117e-05
1.9868186e-05
-0.00028472322
9.6281005e-05
0.00014785934
-0.00013195654
8.884238e-05
0.00014221486
8.8910162e-05
0.00032054016
2.764999e-05
0.00036921308
0.00013032949
-3.3538303e-05
0.00020774524
7.7472787e-05
-2.8675726e-05
-0.00021355037
0.00035236952
1.0132639e-05
-0.00043059778
0.00020925148
-0.000131348
-0.00031737842
2.1135064e-05
-0.00018451634
-0.00011011029
0.00022118665
-0.00011355122
-3.904249e-05
0.00032273766
2.9064614e-05
0.00025104848
0.00019331417
-8.3379868e-05
8.6563308e-05
0.00021606497
0.00012872789
0.00033780231
6.3109496e-05
6.6777295e-05
-5.4984581e-05
-0.0002801708
-0.00026201925
-0.00030070407
-0.00021181132
-0.00013783397
-8.9075196e-05
2.6336922e-05
-2.2010592e-05
0.0001907362
4.3767855e-05
0.00023735331
9.9411395e-05
0.00027665703
7.1726059e-05
0.00032266154
1.8915974e-05
0.00022830765
-9.6844754e-06
0.00011690267
-3.1463159e-05
6.9590062e-06
-3.5317814e-05
7.1568453e-05
6.6843257e-06
-5.4219484e-06
5.8935163e-05
-0.00029893809
0.00018508341
-0.00030679593
0.00021286327
-0.00023761797
0.00014433158
-0.0001774141
8.0181367e-05
4.3783753e-05
4.2332597e-05
7.4020754e-05
-0.0001055152
-5.2271382e-05
-8.5495157e-05
3.4673335e-05
-7.1238605e-06
-9.0346225e-06
-5.3931914e-05
-0.00022949992
2.2446372e-05
-0.00017901263
-2.6767366e-05
-7.5250688e-05
7.0204099e-05
8.3895533e-05
-0.00020098637
9.952769e-05
9.3131943e-05
-0.00014186194
-0.00013607182
0.00015525169
-5.7638834e-06
-0.00022236653
8.445239e-05
0.00017802796
-0.00029073448
1.1824983e-05
0.00020069497
-2.9503313e-05
-5.5518559e-05
6.7685859e-05
0.00013026979
-0.00010682715
-8.9798688e-05
0.00015830025
-0.00010284106
-0.00019068759
0.00010973475
-0.00015951096
-0.00013338184
-8.6726439e-05
-0.00014918157
1.0528072e-05
-0.00021870002
-0.00010380032
0.00018649709
-0.00021503619
-2.8966282e-05
0.00022820408
-9.4713211e-05
-4.3483686e-05
8.8637604e-05
0.00013908861
-9.6547978e-05
-0.00012519571
0.00017006775
-0.00027009115
0.00012884409
-0.000273697
-5.8222753e-05
-0.00015425104
-0.0002299263
-1.144904e-05
-0.00023531206
-6.8127918e-05
0.00011956687
-0.00019944916
-8.13667e-07
0.00028914398
-0.00027120737
8.2925361e-06
0.00022722059
4.233671e-05
-5.3075481e-05
8.1653081e-05
0.00015722299
-8.0896487e-05
5.6902867e-06
0.00013931575
-0.00010926334
-2.209654e-05
0.00018315999
-8.8172643e-05
2.1282992e-05
0.00011250623
-0.00012836591
4.5354503e-05
0.00014215084
-8.5331321e-05
3.667507e-05
0.00017613767
-0.00012184208
2.8918702e-05
0.0001457824
-0.00018889582
3.4839544e-07
0.00016236716
-0.00016619154
0.00013632229
-0.00014710643
-0.00023687428
0.00025938472
0.00026417153
-8.2116048e-05
-0.00035705903
0.0003033933
9.3159561e-05
-0.00049109947
0.00017079672
0.00033793306
-0.0006572471
9.9123557e-05
0.00040157016
-0.00011955521
8.8734878e-05
0.00015701719
0.00046058033
1.3261531e-05
-0.00025889536
0.00069466201
-6.0674543e-05
-0.00039765757
0.00035575664
-0.00014676923
-0.00023300003
-0.00029067248
-0.00015076978
-2.9925768e-05
-0.00054197635
-5.2150553e-05
0.00019721201
-0.00050675763
7.1108831e-05
0.00029749037
-0.00035532052
0.00012785729
5.1546149e-05
0.00030186882
7.6424786e-05
-0.00032738662
0.00060696173
-0.00041472202
0.0002473624
-0.00030109954
-0.00026190116
-0.0001504941
-0.00053985939
1.6395937e-05
-0.00052091291
-2.5680343e-05
0.00014400086
-0.00043136286
7.8071548e-05
0.00040386178
-0.00062226558
4.8537659e-05
0.00048727458
-4.7353752e-05
-3.7488933e-05
0.00025371177
0.00044954879
-5.267209e-05
-0.00012203504
0.0006928545
-7.5231227e-05
-0.00029485706
0.00059420144
-7.8395722e-05
1.1563379e-06
-3.9283964e-05
-7.1127227e-05
0.00025227545
6.3694279e-05
-8.1350457e-05
0.00012875748
0.0005658551
-0.00015496331
-6.8331809e-05
0.00059341655
-0.0002441848
-0.00017424885
0.00047522388
-0.00022397532
-1.1990045e-05
-0.00010216298
0.00023795758
6.0756146e-05
0.00012163939
0.00013988223
-0.00013789941
6.4843109e-05
1.8755845e-05
-0.00030520958
-3.7528229e-05
-6.6393074e-05
-0.00042736837
-0.0001901279
-9.4744604e-05
-7.1937107e-05
-9.990935e-05
1.7653893e-05
0.00035301192
-5.1807028e-05
4.2807622e-06
0.00067731694
1.1245413e-05
6.9355516e-05
0.00025943801
8.0290288e-05
4.2287764e-05
-0.00022282649
-4.17836e-05
-2.7730523e-05
-0.00041714438
-5.8925497e-06
-0.00012720332
-0.00040011417
8.615897e-05
-0.00024482425
-0.00011375235
4.4235902e-06
-0.00015626727
0.00018119958
2.047397e-05
-9.9734357e-05
0.00051074409
9.0462054e-05
0.00013490487
2.3243725e-05
-0.00010780203
-3.5686317e-05
-0.00037245526
3.4756648e-05
-0.00048801998
2.4508275e-05
-6.0455791e-05
-0.00021966709
-5.0247687e-05
-0.00034674051
-0.00011107474
3.0554649e-05
-0.00019369398
-8.2820414e-05
-2.2123553e-06
9.949598e-06
0.00033256332
-6.5497712e-05
4.626139e-06
0.0007154024
-1.148686e-05
-5.4487482e-05
0.00050685322
9.5311589e-05
-0.00014733123
-0.00014946465
0.00019620749
-8.2289567e-05
-6.3018891e-05
-3.6822941e-05
2.0118397e-05
0.00046535663
-0.00010763834
2.0679945e-05
0.00056919881
-5.9916395e-05
5.5393024e-05
0.00042678447
2.2701413e-05
-3.0994614e-05
0.0003025786
0.0001919524
-8.5585718e-05
6.5557226e-05
0.00012414654
-0.00010941333
4.1221757e-05
3.4009751e-05
-0.00032623078
-4.1710191e-07
-3.4502278e-05
-0.00038373676
-3.0984701e-05
-0.00017790729
4.4767582e-05
-0.0001271822
-8.5791336e-05
0.00016351589
-0.00012008397
8.9327204e-05
0.00030730168
4.1684764e-05
0.00014225781
6.2830345e-05
0.00016904299
7.1894615e-05
-0.00012941235
3.8825986e-06
-1.0367282e-05
-0.00035568028
2.3624316e-05
-0.00011750909
-0.00040354366
0.00016212216
-0.00025169999
-8.063333e-06
0.00016796109
-0.00020838716
8.0763993e-05
1.8617428e-05
2.4471255e-05
0.00022667727
0.00013052746
0.00012540475
1.818337e-05
0.00010204255
-3.9591114e-05
-0.00030413029
-5.7724935e-05
-0.00046695805
4.8313265e-05
-0.00012032506
-0.00017577643
3.8577635e-05
-0.00021966404
5.6674346e-05
7.9449243e-05
-0.00029693209
5.107445e-05
8.5588048e-05
-8.6773948e-05
0.00014886887
1.1863217e-06
0.00014238886
0.0004302765
2.2424806e-05
0.00030751279
0.00023824498
7.48086e-05
-5.0208364e-05
0.00021178064
6.6085057e-06
-0.00034235549
0.00022020106
-0.00012242081
-6.3280336e-05
1.6170961e-05
-1.4405826e-05
0.0001167932
0.00024702795
2.8546098e-05
0.00022892902
0.00020734934
0.00013636392
0.00018897718
0.0002022714
0.0001014577
-0.00010048011
0.00019681456
-7.6042295e-05
8.2982124e-05
-0.00014928885
-0.00015800241
-0.0001977368
-0.00016746439
-0.00020778969
-1.1287896e-05
-0.00020447192
0.00027336711
-6.642852e-05
0.00036403806
-4.9851194e-05
0.00028495349
-6.5599167e-06
-1.0331418e-05
3.9016022e-05
-0.00032351715
-1.8631884e-05
-0.00026634896
-4.6315569e-05
-0.00010928911
-8.5980349e-05
8.5924982e-05
0.0001760119
0.00028473876
3.9543621e-05
-0.00036981066
0.00012747962
-0.00049430778
0.00016158396
-0.00039020653
9.6904684e-05
-0.00030499874
4.6048029e-05
-0.00014986954
3.6072273e-05
0.00011270125
6.2190526e-05
0.00017600066
8.9450419e-05
0.00021288391
0.00016777353
0.0001701333
0.00020901977
-3.755762e-05
0.00024630825
-3.8539483e-05
0.00022124245
-1.9402167e-05
0.00025841612
0.00025347055
-0.00010581238
0.0001395096
6.0313824e-05
-9.5626686e-05
0.00010049807
4.5579549e-05
-2.4340352e-05
2.7093025e-05
-1.3139238e-05
-2.9827148e-05
8.4321059e-05
-6.6228713e-05
-9.0680324e-05
0.00015623718
-0.00015089964
-0.00018720201
0.00015768105
-0.00016768013
-0.0002675419
0.00011414905
-0.00013565166
-0.00021534637
-8.9860154e-05
-0.00012179937
-6.5801267e-05
-0.00021681713
-8.2860053e-05
0.00010242238
-0.00020793899
-6.4643025e-05
0.00026394637
-0.00017585425
-1.6079481e-05
0.00020877185
3.8055424e-05
-2.5539846e-05
0.00014350665
-3.1108585e-05
0.00015625273
-0.00031438406
8.8249163e-05
0.00015343569
-0.00011269468
0.0001135354
0.00024483261
-0.00022750427
0.00014203744
0.00020108488
-5.1344704e-05
4.1721421e-05
1.972078e-05
0.00010638705
-7.5288544e-06
-0.00017670601
0.0001410542
-5.5370784e-05
-0.00018738719
2.1995065e-05
-9.9272158e-05
0.00010014496
-0.00036504263
-5.4686343e-05
0.00014464861
-5.7169038e-05
-7.2168649e-05
3.0677726e-05
0.00013817663
-0.00014616219
-0.00011363563
0.00014264858
-0.00018608545
-0.00020898584
0.0001198388
-0.00018839141
-0.00031966651
-3.9228823e-05
-0.00016016247
0.00050786316
5.5980439e-05
-0.00013009748
0.00030655767
6.7268719e-05
6.5149593e-05
-7.1842497e-05
7.4485163e-05
0.00022355029
-1.8478926e-05
4.3522844e-05
-0.00013753699
0.00066704966
-6.0990318e-05
-0.00048940982
0.00063296428
-0.00011014887
-0.00046802434
0.00011065615
-7.8567128e-05
-0.00031196691
-0.0003212477
-7.1439104e-05
-0.0001032692
-0.00050243961
-7.3845001e-05
0.00013282216
-0.00047912103
-1.7059877e-05
0.00040120416
-0.00043938614
6.6258721e-05
0.00047950432
-1.635973e-05
0.00010397228
0.00062363802
7.5797723e-05
0.00020444386
-0.00061239969
6.7891419e-05
0.00020477359
-0.00027013568
0.00023518282
0.00034635951
-0.00054210703
0.00022155449
0.00041599127
-0.00022317492
6.4709528e-05
2.7550334e-05
0.00046126469
-1.9108783e-05
-0.00042242962
0.00060636501
-9.0562077e-05
-0.00031504432
-2.0847602e-05
-0.00014293836
6.9355318e-05
-0.00076845304
-5.2116441e-05
0.00016649814
-0.00020315929
-3.2503032e-05
8.7225176e-05
0.00027330163
-0.00021081534
-0.00012136156
0.00025061134
-0.00014356082
-0.00016079723
3.940202e-05
-0.00010410288
-0.00070430145
0.00012167473
8.2015579e-05
0.0004585804
8.8906576e-05
0.00015771967
0.00020789864
8.7798057e-05
6.5780005e-05
-0.00010981606
9.2384998e-05
-7.8417789e-06
-0.00012114208
-1.3842953e-05
-5.3130439e-05
0.00062194718
-9.518207e-06
3.10551e-05
0.0006017925
-0.00010482077
0.00020186036
1.2708273e-05
-6.1611962e-05
6.6936997e-06
-0.00010191131
5.6120561e-05
-3.668388e-05
-0.00043791807
-6.2927565e-05
9.1609627e-06
-0.00050282576
-2.803267e-05
-0.00017418666
-0.0002584229
8.8543344e-05
-6.7387832e-05
-8.3099891e-05
-3.5635099e-05
0.00054855435
2.8169803e-05
3.6495249e-05
-0.00053512965
-8.9257033e-05
0.00014259141
-0.00038173609
-4.4743453e-05
-0.00016251778
-0.00011176015
-9.4683034e-05
-0.00015844057
-0.00011640338
-0.0001130611
2.8630922e-06
0.00031480658
-8.0343267e-05
0.00012558254
0.00052573066
-5.357195e-05
0.00025122643
-4.102544e-05
-1.0154448e-05
-0.00017880878
-0.00010360416
-3.8606176e-05
-0.00020513617
-8.8184668e-05
-0.00012547017
0.00013860688
-0.00015785475
-2.0224996e-05
0.00033354964
-8.1107484e-05
7.6859668e-05
0.00036530026
-8.1947312e-05
0.00011230012
-9.0297799e-05
5.3875211e-05
0.00021669011
0.00025197325
5.5474259e-05
0.00036489191
6.2482166e-05
3.8436436e-05
7.1282966e-05
0.00021052773
-2.7151944e-05
-0.00028802433
0.00018184908
2.5331443e-05
-3.2969291e-05
0.00020220113
3.7508812e-05
0.00024711101
0.00030107984
-9.9451608e-05
0.00013836254
0.00016812702
-4.9855112e-06
2.4222491e-05
6.3102296e-05
0.00011816943
2.8040341e-05
-0.0004145982
-2.3255121e-05
5.5434317e-05
-0.00050197225
-4.6231719e-06
-5.6237905e-05
-0.00011434904
0.0001297205
-0.00025501776
0.00024639716
3.7243879e-05
0.00027729875
3.4855247e-05
-2.8639854e-05
-0.00047865589
2.0479337e-05
2.3587395e-05
-0.000342212
-5.3173717e-05
-7.3733288e-05
7.4119322e-05
-9.1095568e-06
-0.00020065104
6.6900544e-05
2.9201883e-05
4.153207e-05
8.5026954e-05
-1.121715e-05
0.00033446895
0.0002303206
2.4898001e-05
0.00030893804
8.8466289e-05
-2.9152207e-05
0.00015768855
6.9030613e-05
-1.4776772e-05
7.9933904e-05
-4.9723781e-05
-8.3127044e-05
0.00022540728
-0.00039237232
7.4638362e-05
0.00029200943
-0.00024587999
0.00012671647
0.00018844315
-1.6494847e-06
0.00015963238
0.00016718007
0.00013323668
0.00012109131
3.0401836e-05
9.3572552e-05
1.3958628e-05
0.00010471764
5.0093797e-05
-2.4295771e-06
9.1259498e-05
1.561869e-05
-2.3636817e-05
0.00020628481
-9.4058192e-05
0.0003875473
-7.9563988e-05
0.00045955094
-5.8752532e-05
0.00010431785
-6.5925036e-05
-0.00032356201
-3.5076378e-05
-0.00041740564
-3.9137301e-05
-0.00021589469
-1.4293873e-06
-2.4576288e-05
-0.00034789526
-3.2810271e-06
-0.00053149606
2.9727591e-06
-0.00039309106
3.2619001e-05
-0.00025269375
-2.7448732e-05
-8.7512866e-05
-4.4081645e-05
0.00016914442
3.5853852e-05
0.00030901152
3.804961e-05
0.00045543933
9.0376345e-05
0.00044695046
0.00016778486
0.00013034274
0.00017054366
-0.00013445715
0.00024016235
-0.00017238034
0.00029468983
0.00024827028
-9.1407639e-05
0.00014398812
9.3425478e-06
-9.3543149e-05
9.1796163e-05
-4.1938596e-05
6.7155844e-05
-0.00017490295
1.0529861e-06
8.1724167e-05
3.4994245e-05
-0.00011520309
-2.081393e-05
0.00013995694
-0.00018804641
-0.00015540054
0.00014708433
-0.00018073503
-0.00022223221
7.5376829e-05
-0.00014377673
-7.3987369e-05
-0.00019881549
-7.2947464e-05
4.870169e-05
-0.00014163182
-6.4624677e-05
0.00013930487
-7.6226193e-05
-7.8912727e-05