/*--------------------------------*- C++ -*----------------------------------*\
| =========                 |                                                 |
| \\      /  F ield         | OpenFOAM: The Open Source CFD Toolbox           |
|  \\    /   O peration     | Version:  v2012                                 |
|   \\  /    A nd           | Website:  www.openfoam.com                      |
|    \\/     M anipulation  |                                                 |
\*---------------------------------------------------------------------------*/
FoamFile
{
    version     2.0;
    format      ascii;
    class       volScalarField;
    location    "340/bottomWater";
    object      T;
}
// * * * * * * * * * * * * * * * * * * * * * * * * * * * * * * * * * * * * * //

dimensions      [0 0 0 1 0 0 0];


internalField   nonuniform List<scalar> 
1460
(
993.43559
989.5952
986.57664
983.76849
980.55751
976.55126
976.37688
976.80163
977.7618
979.38516
980.9046
983.35377
978.78088
976.22939
971.67099
968.90323
965.76954
965.72349
967.99148
964.57037
960.68732
958.27914
956.06658
954.79919
955.05584
956.47681
960.38156
962.80278
965.10305
967.19828
988.9097
985.25767
982.47241
980.30184
977.75841
974.2244
974.82664
976.01697
976.87185
977.63548
978.48975
979.14629
975.98327
974.89408
970.00557
965.49588
960.20945
958.39071
959.59747
960.17561
957.61458
955.93538
954.84443
952.46598
952.60494
955.72486
960.43648
962.85554
965.45069
966.40659
988.57073
984.6187
981.84837
979.71798
973.65382
973.73123
974.53324
976.11674
977.04278
976.52971
978.82856
979.09711
977.29703
976.16675
970.10728
964.04651
957.01833
955.94806
958.53073
959.66636
958.27488
958.0999
956.00127
952.41118
952.50554
955.77619
961.51175
963.84957
966.73398
967.56708
987.57967
983.83566
980.46147
977.00285
973.10308
972.80654
974.38156
976.06424
976.61872
975.88731
976.79077
978.93469
978.45851
976.65258
969.73752
962.52331
955.04318
955.61547
957.25243
959.37635
958.58526
958.17026
954.63579
952.12775
952.52548
956.15508
961.80805
963.72675
966.07907
968.79734
985.57369
982.49566
980.21843
977.65637
972.73529
972.22413
973.13245
973.53275
974.06153
972.79459
972.66816
973.71147
973.45833
970.83311
967.3387
959.59497
950.91494
953.36237
955.36839
957.44547
955.55959
954.34582
952.59655
951.63372
952.72439
956.4646
961.60197
962.97166
963.94927
964.98363
989.62102
988.08601
985.70489
984.39689
983.2416
982.72352
980.79455
980.26937
977.01027
973.78478
975.52187
980.73892
975.43954
972.38404
971.05683
971.71105
969.7809
961.40929
958.53591
957.49336
959.9775
959.80273
958.61391
957.39807
957.571
959.05256
961.46528
963.64856
965.90261
968.20858
987.36243
984.94831
982.27556
981.60858
980.87123
980.88281
976.95451
977.51402
977.67278
973.9031
974.72071
974.64422
972.03095
970.03382
965.5088
965.96265
964.60656
961.10008
957.18717
955.77744
957.99803
957.14311
956.26763
956.25453
956.93992
958.96479
961.51547
962.63472
964.42688
966.27544
987.62608
981.94803
978.87447
977.15503
975.83231
975.45566
975.60569
976.43445
977.95621
974.77607
975.10948
975.18916
973.05656
969.8524
963.30806
960.94962
964.21393
961.10727
957.75989
955.89216
957.65469
957.29077
957.30088
956.77538
957.28333
959.51091
962.71995
964.39791
965.27871
966.65328
987.16145
983.50143
978.9753
976.95991
973.75362
973.08996
975.65191
976.49932
976.38107
975.03676
975.91814
976.00281
974.53355
968.22506
964.02664
959.44786
957.21368
959.18116
957.98408
956.43315
957.51267
957.17297
956.69449
955.13949
955.03603
958.09563
962.23707
964.89348
966.36277
966.99328
983.77803
982.42587
979.92251
978.4049
972.76686
972.11206
973.96534
974.07694
971.68699
972.76889
973.96105
974.31697
973.81193
969.71985
963.53849
955.67607
950.20645
953.09785
955.39124
954.44855
954.78004
953.56323
952.10139
952.31625
954.79243
957.41898
961.23926
963.10696
964.52623
965.52006
985.08991
982.79285
981.30937
980.55709
978.687
978.70584
977.15427
971.49248
966.30164
964.97876
970.22013
970.21771
967.90263
965.85232
963.1405
954.33453
949.2594
948.21124
953.17963
953.27733
953.78157
954.16961
959.60692
960.15369
959.77413
961.05423
963.34509
963.71247
965.49383
968.39529
983.32229
982.44438
979.6974
978.95138
976.31988
976.8104
976.99
975.48768
967.12143
966.86758
971.7283
970.26072
969.41645
968.31151
960.43482
951.2387
948.34998
951.78146
954.34817
953.72846
953.27537
955.01087
957.80606
957.89013
958.12241
959.63633
961.39213
962.48934
964.00363
966.04358
984.76214
983.0256
979.55436
978.5916
975.02798
972.89222
975.75108
975.82893
968.94695
969.18132
971.5693
971.00672
968.43415
964.75255
960.28351
952.03702
959.49278
955.70904
955.41554
954.81333
954.06873
955.13109
957.92055
958.05928
959.06577
959.70923
960.28124
961.84635
964.00986
966.09724
983.64971
983.10736
980.81316
979.08479
974.268
972.20161
974.40408
976.10437
969.63686
970.03385
972.10682
971.01127
964.57314
958.61994
960.21153
953.76173
955.25759
952.42857
953.87259
955.33082
954.89338
954.99922
957.2079
957.20642
957.85702
959.32266
960.03016
961.45858
964.3284
966.37833
982.29435
981.85946
980.25027
979.08322
972.5571
970.09985
972.40854
974.21059
969.62437
969.34443
969.42157
969.61318
968.66376
960.19982
952.93671
951.33013
951.25636
950.74007
952.17733
952.433
952.36578
953.32025
952.46773
953.87736
957.00839
957.35983
959.78697
961.33989
963.75722
965.22718
984.91254
983.60108
983.09672
979.82873
978.50669
974.92217
969.1489
961.87705
960.38072
959.59637
961.13333
961.84007
959.14863
946.48425
940.69127
941.09032
941.52427
942.36156
947.68048
949.75433
949.8487
949.12003
953.5225
959.36969
959.46637
960.45727
959.67173
958.36904
960.86838
963.89756
983.55504
983.09273
982.25736
979.08483
977.68496
976.92726
969.18791
961.86121
962.31881
962.64833
960.08343
960.68744
960.43088
946.6942
941.86406
942.1455
942.56415
946.46708
948.00632
951.01537
950.09636
949.25225
953.36765
958.19462
958.30713
958.31085
958.12219
957.12235
960.47125
962.70869
983.98581
983.61609
982.53684
978.40177
974.37436
974.83429
970.24287
963.34612
964.20168
964.63751
959.23014
960.4645
955.40708
945.79846
944.187
944.4432
942.50851
948.0686
949.05948
952.03909
950.30722
948.44646
953.1386
958.067
957.3599
957.32805
957.3662
956.80925
960.40671
964.94102
983.4508
983.3388
981.99256
978.37779
973.04111
971.7841
971.19225
965.12049
965.58899
965.25762
954.98204
958.19875
949.9543
945.0915
946.1552
945.36355
937.53145
947.10305
949.71758
952.24526
950.92536
949.46822
952.88428
956.85199
956.69478
956.22233
957.13421
956.71335
959.87626
963.02953
981.55384
981.1292
980.69778
977.54697
971.90558
968.29646
970.01974
967.99618
967.3679
966.196
950.69106
945.77678
943.21899
940.92337
937.24458
936.13717
935.95819
947.01487
948.93388
948.85889
948.54963
949.07601
951.36839
953.79034
954.3531
954.45554
954.10076
955.92464
959.91842
962.63175
985.97092
984.37843
983.25899
979.71311
972.34794
964.50579
962.09521
960.57358
958.22846
949.79461
952.92908
954.77213
946.58408
925.5116
931.10198
939.13061
941.48728
943.07099
955.35953
956.09755
955.19363
955.66519
955.73347
956.18342
958.05687
959.25122
984.03266
983.161
982.47966
980.11397
974.47357
963.24002
961.53572
961.30395
959.50598
947.42371
953.0161
955.13035
951.57918
932.05293
939.61557
943.15299
943.4668
943.66945
954.42807
955.01103
955.48658
954.01254
954.05284
955.08721
958.18898
960.12367
984.02966
983.35792
982.85413
978.55368
974.18217
964.01329
962.42025
963.12347
962.31756
947.81448
952.99855
951.10762
949.37682
935.21234
943.22224
943.50823
943.19822
943.43955
953.90094
955.36472
955.39226
953.39349
953.52637
954.59677
955.64823
960.00797
984.00517
983.67042
982.91432
976.24163
974.02153
964.92351
965.00095
964.62178
964.25951
948.87443
951.26519
951.57274
946.94578
938.898
944.47323
946.24691
946.12355
944.18272
953.42136
954.19043
954.30287
953.17606
952.80194
954.54231
956.61788
960.31892
983.08296
982.22692
981.66843
978.03606
973.66437
965.98496
965.37424
965.01818
964.56592
948.76591
944.61293
945.80966
940.96796
941.1662
945.09664
945.12447
945.3054
946.36859
951.69369
951.80269
952.21924
952.3841
952.52907
955.45217
959.70533
961.08312
984.04785
980.70662
979.38194
977.07815
973.57858
965.11571
962.47308
962.84666
961.54731
950.24517
948.92782
949.55884
939.19442
919.40963
927.11081
937.64716
943.20974
953.94266
954.81393
953.41216
952.86935
954.78024
953.75845
952.67585
953.54832
953.47986
979.30247
977.82257
979.13261
977.87242
975.88271
967.30715
964.02204
964.78607
963.26756
947.3528
948.12983
949.00627
944.90548
927.25168
932.58924
938.22369
940.80735
947.9047
953.13942
952.07982
953.00862
953.42116
952.76889
952.30471
954.44537
958.43072
979.70786
979.5318
979.03851
976.37449
975.8939
968.63182
966.31724
965.27751
963.9288
946.44785
948.61823
948.64288
943.19459
930.06356
933.54299
936.35914
938.03162
942.82546
948.07452
951.06351
952.84329
952.40253
951.18869
952.121
954.70049
958.15546
979.79774
978.80849
977.48429
976.19702
975.82746
969.71811
967.83383
966.42351
964.6423
947.73881
948.14514
945.61798
941.43344
932.40238
939.42622
939.13249
940.13048
943.42051
951.15798
952.25748
952.87537
950.06592
950.40402
952.33909
956.17881
958.25709
978.99001
978.21521
977.72425
975.97115
970.96706
968.46742
966.54337
965.65252
964.74421
947.05838
941.7598
940.42378
937.87922
934.54092
939.82906
941.04421
941.28983
943.66678
947.55633
948.35638
948.99538
949.42146
949.85473
952.71097
958.98764
959.3804
976.47024
973.92234
973.23889
973.35972
971.55359
966.56944
959.19833
957.63552
955.19679
946.4054
947.39526
949.48167
950.62042
948.22
943.36442
939.53292
934.76826
928.49659
939.11462
942.34087
941.87651
946.47367
953.89603
955.83295
954.59904
953.4728
951.72451
952.40264
952.23867
949.68896
975.00029
973.08211
972.51828
972.87691
972.56566
968.15782
958.49702
957.73237
953.84326
943.8175
946.44469
947.275
948.42516
947.50866
941.68519
935.89389
932.44454
931.56402
938.87342
940.82123
939.7128
941.9776
953.59972
953.76522
952.8351
951.98915
950.99997
953.05233
954.76037
956.25508
974.17514
973.04602
972.51917
972.87943
973.91448
968.163
962.80204
959.97536
956.04271
943.13409
946.92552
946.8634
947.39193
946.06186
940.67676
934.25779
928.31462
932.44637
938.72976
939.78017
939.00005
940.9378
952.89406
953.90693
953.40229
951.55004
950.83084
953.26702
955.97765
956.57404
973.55362
972.67904
972.63994
971.28222
973.27456
967.95862
963.47599
959.25126
957.20052
942.26383
945.70758
945.40385
945.13391
944.31057
939.52164
933.87772
929.68056
933.67843
938.34087
938.86781
938.5705
940.40902
952.0203
952.64634
952.79248
950.98151
950.41565
953.95631
956.74545
957.1308
973.43324
973.37693
973.06934
970.4778
969.1962
966.92458
963.14847
962.16101
959.86863
941.29833
941.14187
941.52258
940.50619
939.53752
935.75682
931.36557
927.28768
931.57188
938.07537
939.6857
940.65338
942.05258
949.58106
950.01244
950.13997
949.53212
950.17493
954.81084
956.81331
957.09927
977.78653
975.13188
973.1783
970.70244
968.47652
966.64854
959.8458
956.53155
956.11137
954.60563
952.68462
952.20212
953.72047
954.37668
947.42427
944.7161
938.58174
945.12937
944.89373
940.08949
939.79922
941.06921
947.19745
954.61757
953.91386
952.64795
952.85078
951.80377
950.22755
948.42999
975.18341
973.17661
971.93641
970.48804
970.14931
968.85865
960.34667
957.56197
956.58601
953.63031
951.04301
951.08051
951.53147
950.66224
943.36064
939.04452
933.82679
939.77543
942.6708
938.81398
939.76574
940.23795
946.55703
953.57951
953.06501
952.33617
953.44974
954.23833
954.49287
954.44148
975.17181
972.80967
970.50049
970.25966
970.36305
968.51496
960.48056
960.24786
957.77053
952.83306
950.68031
951.13377
949.91448
949.71469
943.54726
935.90933
932.4206
938.66861
939.75145
939.26451
939.9555
941.06748
947.44521
953.77689
953.26742
951.87486
953.62788
955.01024
955.8852
954.99893
974.21302
970.81361
968.10941
968.7624
968.1418
966.92769
960.40724
960.125
958.1654
951.15723
947.85263
951.01565
947.86444
948.57223
941.71488
935.29117
931.97908
935.44022
937.42506
937.9536
940.56798
943.43506
947.57826
953.16041
952.97122
950.992
953.72993
954.95659
956.24482
955.47557
971.02111
968.57467
966.61685
966.22156
966.14698
964.91828
959.87399
959.5431
959.11009
950.74667
945.12439
943.64561
944.04188
942.58588
938.25842
934.23468
931.07648
934.97611
938.77517
939.66322
940.85663
942.81852
947.13118
950.04051
950.03341
949.62729
953.84719
954.3936
954.88844
954.70269
977.31451
973.45325
971.01379
968.63022
965.92072
965.6892
963.48791
959.28682
958.69017
959.68388
958.6897
956.87004
949.76787
947.62401
945.62134
944.24293
942.9
945.94716
944.48687
943.22325
943.30811
944.22151
948.59395
954.79246
954.46358
954.24859
953.73728
952.96395
950.3796
947.0921
974.46756
971.27445
969.48382
967.98491
966.15345
964.98649
963.64075
959.27683
959.56171
960.55398
957.45906
955.81422
949.16169
948.54496
945.28331
942.17306
941.56972
943.20582
942.5232
943.10802
943.34315
943.0332
946.70558
953.88634
953.82791
954.04517
954.22984
955.15271
954.5898
953.4916
974.48399
971.42226
969.89135
968.95656
966.46477
963.39593
963.11012
959.55484
960.8669
960.29957
957.50629
956.28736
950.52386
950.24089
945.80915
941.673
940.85073
941.51155
941.361
943.1092
945.10196
942.98665
946.98322
954.09529
953.18857
953.13018
953.95094
955.38654
955.26702
953.90991
974.52749
971.8959
969.76904
967.43306
965.51129
963.31369
962.56946
959.86326
960.19483
958.02467
955.08074
954.16939
951.27542
949.83833
944.64187
940.71154
939.30414
938.68405
939.07993
943.62019
947.59104
946.18393
947.67069
953.03974
952.64447
952.96836
955.29717
955.3422
955.1361
954.26844
972.91288
971.42025
968.2022
963.73714
963.54719
962.61375
961.21393
959.80184
958.87666
957.82583
955.3606
952.04233
947.72334
944.07984
941.12416
939.98933
938.78502
940.39522
942.30963
944.02092
945.23724
945.76723
948.22643
951.0587
950.89037
952.64368
953.48201
953.87768
953.77567
953.69
976.46082
971.40856
969.29385
967.20359
964.61715
963.57555
963.83892
963.52584
963.03243
963.20499
963.29269
963.44195
958.71289
954.82671
954.12374
953.54995
952.65879
952.83355
951.35949
951.77378
951.8678
955.46516
954.86958
953.40034
953.03942
953.9091
954.1699
953.50763
952.15186
949.28507
974.42954
969.09189
968.17107
967.50127
963.18714
962.5737
962.77133
962.95199
962.57831
962.47027
961.63016
959.80421
953.66762
951.90945
950.69416
949.90443
949.93301
950.27834
950.01916
950.7882
950.18136
952.73671
953.12296
952.38085
952.60449
954.0174
955.09052
955.4895
955.11386
954.01253
972.69705
970.02032
969.85334
967.50877
962.67703
962.14524
962.83217
962.91117
962.7566
962.40032
961.0046
958.7301
952.67229
949.91526
948.31405
948.33862
948.2655
946.56138
949.79181
953.77048
951.72299
953.26626
953.30285
952.23944
952.15062
953.65512
954.96575
955.42178
955.17524
954.14935
971.95779
970.12543
969.68404
966.64595
961.84251
961.68207
962.54053
962.36906
962.96397
962.40336
958.22217
957.78526
952.35453
949.73997
945.6053
945.14379
945.65919
946.31721
950.56132
954.51555
953.55619
953.87543
953.53473
951.83386
951.96685
953.5458
955.5402
955.09636
954.74646
954.32776
971.05673
970.0312
969.37497
966.95148
961.58929
961.01856
960.84481
961.06558
960.64795
959.75214
957.26165
956.80581
951.87593
948.29109
944.47331
944.04329
942.60398
944.5552
947.14656
948.8792
950.574
952.4873
951.30721
950.83162
951.41553
952.80386
953.20826
953.32436
953.39794
953.58746
)
;

boundaryField
{
    minX
    {
        type            zeroGradient;
    }
    maxX
    {
        type            zeroGradient;
    }
    minY
    {
        type            fixedValue;
        value           uniform 1073;
    }
    minZ
    {
        type            zeroGradient;
    }
    maxZ
    {
        type            zeroGradient;
    }
    bottomWater_to_rightSolid
    {
        type            compressible::turbulentTemperatureCoupledBaffleMixed;
        refValue        nonuniform List<scalar> 
130
(
741.19199
748.91582
756.98434
764.97265
772.58924
779.62858
785.96549
791.52212
796.24135
800.07088
802.95633
804.88698
805.85664
735.54907
744.5629
753.75234
762.652
770.95608
778.4939
785.18276
790.97649
795.84063
799.75848
802.70501
804.67592
805.66552
724.18134
736.16254
747.77697
758.49857
768.11466
776.56315
783.86846
790.0618
795.16832
799.23373
802.27677
804.31228
805.33455
707.14518
724.75303
740.28353
753.59617
764.89853
774.44511
782.44627
789.06471
794.43283
798.65213
801.79729
803.90143
804.95839
687.01124
713.87226
734.05299
749.85455
762.563
772.93857
781.42039
788.32612
793.86767
798.19316
801.4054
803.54628
804.61462
686.77286
713.63149
733.82032
749.6294
762.34478
772.71665
781.19048
788.08314
793.61079
797.92456
801.12731
803.26318
804.32268
706.44427
724.07289
739.62762
752.96332
764.28469
773.84709
781.82091
788.39451
793.71487
797.89711
801.01287
803.07675
804.10307
723.13613
735.1602
746.80526
757.552
767.1878
775.65208
782.92538
789.04179
794.06602
798.05894
801.02889
802.99874
803.98027
734.35496
743.41127
752.63693
761.56195
769.88352
777.42458
784.0695
789.76425
794.51024
798.30232
801.14001
803.02772
803.97113
739.94821
747.72381
755.82682
763.85063
771.48542
778.50541
784.77775
790.22545
794.80353
798.47908
801.23954
803.08122
804.00352
)
;
        refGradient     uniform 0;
        valueFraction   uniform 0.99248593;
        value           nonuniform List<scalar> 
130
(
742.78622
750.4671
758.4906
766.4047
773.95494
780.92823
787.21031
792.7334
797.44527
801.28466
804.15871
806.08219
807.05231
737.18365
746.14702
755.26038
764.09565
772.3282
779.79839
786.43861
792.20742
797.05474
800.97188
803.9103
805.87708
806.86671
725.88369
737.78567
749.31476
759.95529
769.50629
777.88489
785.14593
791.31627
796.38706
800.44015
803.472
805.51038
806.53601
708.94751
726.43752
741.85076
755.06104
766.28243
775.77448
783.73375
790.3067
795.63525
799.82019
802.95542
805.07376
806.14318
688.92092
715.60968
735.63899
751.3232
763.94416
774.28176
782.70066
789.55763
795.05878
799.35286
802.56293
804.71969
805.79035
688.63463
715.33118
735.37749
751.06965
763.70735
774.03047
782.44662
789.29228
794.78159
799.0662
802.26634
804.43332
805.48782
708.13606
725.68091
741.13089
754.37368
765.6205
775.1676
783.08473
789.60988
794.8857
799.04134
802.16855
804.23194
805.2527
724.72787
736.69019
748.25441
758.92936
768.50747
776.94063
784.1811
790.2515
795.23491
799.22957
802.18131
804.14007
805.11283
735.9032
744.90587
754.07504
762.94213
771.20513
778.70812
785.32436
790.97502
795.69849
799.46837
802.28771
804.16048
805.09615
741.48566
749.22231
757.27744
765.25368
772.84549
779.80393
786.02554
791.43667
795.99078
799.64174
802.38235
804.21074
805.12752
)
;
        Tnbr            T;
        thicknessLayers List<scalar> 0();
        kappaLayers     List<scalar> 0();
        kappaMethod     fluidThermo;
        kappa           none;
        alphaAni        none;
        alpha           none;
        field           T;
    }
    bottomWater_to_leftSolid
    {
        type            compressible::turbulentTemperatureCoupledBaffleMixed;
        refValue        nonuniform List<scalar> 
130
(
860.83338
860.76169
860.63419
860.45984
860.25282
860.05285
859.8643
859.6817
859.50632
859.33978
859.20417
859.1096
859.0567
860.75041
860.68645
860.56074
860.38419
860.16073
859.93661
859.72398
859.51083
859.29757
859.11027
858.957
858.84442
858.78009
860.59369
860.53436
860.40962
860.2223
859.9698
859.70084
859.44374
859.18252
858.90585
858.65469
858.44057
858.28476
858.19614
860.36424
860.30301
860.17364
859.96575
859.68489
859.37193
859.06006
858.72805
858.38666
858.04122
857.70261
857.46572
857.33698
860.05528
859.98964
859.85297
859.63288
859.3385
858.99024
858.63581
858.26172
857.85697
857.40851
857.05205
856.81333
856.67137
859.63473
859.57047
859.43822
859.22993
858.94818
858.62146
858.26497
857.881
857.45756
856.98157
856.61203
856.36473
856.22853
859.19315
859.13248
859.00725
858.81567
858.57108
858.27584
857.93889
857.57835
857.17897
856.73407
856.40183
856.1786
856.05881
858.83936
858.7713
858.64699
858.47671
858.26353
858.00516
857.70412
857.39478
857.06723
856.71597
856.41493
856.20412
856.09459
858.6385
858.57152
858.4407
858.26154
858.05822
857.82798
857.57553
857.31295
857.04623
856.78239
856.54226
856.35397
856.2394
858.52805
858.46725
858.34881
858.17463
857.96062
857.74256
857.51896
857.29202
857.06104
856.83352
856.62422
856.46185
856.35365
)
;
        refGradient     uniform 0;
        valueFraction   uniform 0.99248593;
        value           nonuniform List<scalar> 
130
(
861.77066
861.6764
861.53275
861.34042
861.09802
860.89572
860.7154
860.5372
860.3672
860.19233
860.05677
859.97068
859.91629
861.67482
861.6012
861.45764
861.271
861.00691
860.7795
860.58237
860.37168
860.14214
859.96433
859.82116
859.71209
859.64445
861.50813
861.446
861.31012
861.11545
860.81592
860.53037
860.29253
860.04683
859.73782
859.48644
859.27449
859.12129
859.0262
861.27488
861.21092
861.07929
860.84942
860.52821
860.19042
859.89386
859.5491
859.20554
858.85387
858.40144
858.12938
857.98232
860.97973
860.90816
860.76829
860.52262
860.1976
859.79424
859.43787
859.06391
858.6588
858.09484
857.70996
857.48203
857.30475
860.53156
860.46196
860.32702
860.10714
859.78994
859.44683
859.07857
858.69079
858.26371
857.65828
857.25184
856.99635
856.84206
860.05157
859.99094
859.86428
859.65468
859.40232
859.09221
858.72944
858.36421
857.9506
857.36946
857.03854
856.81986
856.69335
859.68229
859.59634
859.45829
859.28634
859.07419
858.80855
858.47183
858.16235
857.83402
857.42261
857.08152
856.86112
856.75541
859.49716
859.41948
859.26542
859.05412
858.8509
858.61537
858.35427
858.08306
857.81139
857.54165
857.28481
857.07307
856.92692
859.3736
859.30556
859.18307
858.99198
858.73931
858.51859
858.29536
858.07181
857.83941
857.60686
857.38042
857.21585
857.07141
)
;
        Tnbr            T;
        thicknessLayers List<scalar> 0();
        kappaLayers     List<scalar> 0();
        kappaMethod     fluidThermo;
        kappa           none;
        alphaAni        none;
        alpha           none;
        field           T;
    }
    bottomWater_to_heater
    {
        type            compressible::turbulentTemperatureCoupledBaffleMixed;
        refValue        nonuniform List<scalar> 
92
(
722.99597
724.9595
728.79758
734.31362
713.87682
716.19277
720.76573
727.37176
694.65018
697.68056
703.81253
712.88047
345.231
342.43107
342.45537
345.21369
420.98243
417.51597
417.72471
421.39959
485.32704
482.39741
483.1058
486.98854
539.6433
537.81883
539.71301
544.34636
663.3808
584.17667
667.21568
584.26375
675.49626
588.79144
688.88094
596.39159
345.231
345.21369
420.98243
421.39959
485.32704
486.98854
539.6433
544.34636
584.17667
596.39159
345.18899
345.18899
342.4143
342.42938
345.15514
345.15514
420.91123
420.91123
417.47098
417.66402
421.30166
421.30166
485.24348
485.24348
482.33201
483.0208
486.86482
486.86482
539.55226
539.55226
537.73907
539.6152
544.21616
544.21616
584.07551
584.07551
584.17137
588.68305
596.24452
596.24452
662.72092
666.55771
674.82605
688.19403
693.4731
696.53062
702.69
711.78752
712.36227
714.74002
719.41615
726.11749
721.34788
723.3747
727.34141
732.98999
)
;
        refGradient     uniform 0;
        valueFraction   nonuniform List<scalar> 
92
(
0.99248593
0.99248593
0.99248593
0.99248593
0.99248593
0.99248593
0.99248593
0.99248593
0.99248593
0.99248593
0.99248593
0.99248593
0.99248593
0.99248593
0.99248593
0.99248593
0.99248593
0.99248593
0.99248593
0.99248593
0.99248593
0.99248593
0.99248593
0.99248593
0.99248593
0.99248593
0.99248593
0.99248593
0.99248593
0.99248593
0.99248593
0.99248593
0.99248593
0.99248593
0.99248593
0.99248593
0.99248593
0.99248593
0.99248593
0.99248593
0.99248593
0.99248593
0.99248593
0.99248593
0.99248593
0.99248593
0.99248593
0.99248593
0.99248593
0.99248593
0.99248593
0.99248593
0.99248593
0.99248593
0.99248593
0.99248593
0.99248593
0.99248593
0.99248593
0.99248593
0.99248593
0.99248593
0.99248593
0.99248593
0.99248593
0.99248593
0.99248593
0.99248593
0.99248593
0.99248593
0.99248593
0.99248593
0.99248593
0.99248593
0.99248593
0.99248593
0.99248593
0.99248593
0.99248593
0.99248593
0.99248593
0.99248593
0.99248593
0.99248593
0.99248593
0.99248593
0.99248593
0.99248593
0.99248593
0.99248593
0.99248593
0.99248593
)
;
        value           nonuniform List<scalar> 
92
(
724.85821
726.78071
730.53177
735.94113
715.79922
718.05129
722.53079
729.04611
696.64541
699.59863
705.67242
714.6717
349.74886
346.92646
346.95359
349.69442
424.93274
421.456
421.66525
425.3157
488.78711
485.86733
486.57231
490.41143
542.68991
540.88702
542.76104
547.30085
665.46633
586.85734
669.24464
586.91602
677.45471
591.4014
690.73752
598.94314
349.74966
349.57406
424.9694
425.23664
488.81396
490.35647
542.7038
547.311
586.8576
598.98219
349.65242
349.72019
346.92986
346.91604
349.47005
349.58556
424.84855
424.86811
421.40998
421.5581
425.1034
425.14251
488.68455
488.70608
485.77603
486.41147
490.19506
490.18193
542.57202
542.59361
540.75807
542.57765
547.13304
547.11247
586.73402
586.74645
586.81316
591.25791
598.78653
598.73193
664.80091
668.58044
676.75363
689.99053
695.34491
698.34694
704.42983
713.43532
714.10347
716.44117
721.07369
727.71559
723.05316
725.03609
728.96977
734.56509
)
;
        Tnbr            T;
        thicknessLayers List<scalar> 0();
        kappaLayers     List<scalar> 0();
        kappaMethod     fluidThermo;
        kappa           none;
        alphaAni        none;
        alpha           none;
        field           T;
    }
}


// ************************************************************************* //
