/*--------------------------------*- C++ -*----------------------------------*\
| =========                 |                                                 |
| \\      /  F ield         | OpenFOAM: The Open Source CFD Toolbox           |
|  \\    /   O peration     | Version:  v2012                                 |
|   \\  /    A nd           | Website:  www.openfoam.com                      |
|    \\/     M anipulation  |                                                 |
\*---------------------------------------------------------------------------*/
FoamFile
{
    version     2.0;
    format      ascii;
    class       volVectorField;
    location    "340/bottomWater";
    object      U;
}
// * * * * * * * * * * * * * * * * * * * * * * * * * * * * * * * * * * * * * //

dimensions      [0 1 -1 0 0 0 0];


internalField   nonuniform List<vector> 
1460
(
(-0.00046579719 -0.014824214 0.0014525842)
(-0.0018171365 -0.015442638 0.0012895422)
(-0.002394505 -0.015424739 0.00054179574)
(-0.0029262628 -0.015636039 0.00055854618)
(-0.0036958375 -0.01505363 0.0010204263)
(-0.0020778948 -0.011494668 0.0018357893)
(-0.00017534435 -0.012969555 0.0012597222)
(0.0021612723 -0.012927669 0.0017511846)
(0.004560909 -0.01183799 0.0012234948)
(0.0055020588 -0.013040508 0.00070779377)
(0.003913915 -0.01402061 0.0004108339)
(0.0022863409 -0.015525029 0.00085352191)
(-0.0019839485 -0.015467654 0.0011658411)
(-0.0016319164 -0.012209062 0.00047352846)
(-0.00025478512 -0.011578713 0.00092946366)
(0.0015347601 -0.011368366 0.0013478271)
(0.0022765677 -0.011320852 0.0014573507)
(0.0028876194 -0.013156491 0.0017774002)
(0.0020612627 -0.016044671 0.0020900025)
(0.00027782631 -0.016505109 0.001568857)
(-0.0025713241 -0.013310367 0.00098255016)
(-0.0041777068 -0.012665514 0.0016583111)
(-0.0036952904 -0.011140167 0.0020632379)
(-0.0022600181 -0.012491604 0.0015785948)
(-0.001321645 -0.013128269 0.0010477945)
(0.00042278864 -0.012871568 0.0015557283)
(0.0019921172 -0.012546415 0.002007266)
(0.0029313267 -0.012118219 0.0025159189)
(0.0030970484 -0.012166337 0.0028262005)
(0.0023038246 -0.01662886 0.0027117009)
(-0.00069011589 0.016267074 -0.0018980561)
(-0.0022059977 0.016930648 -0.0032905641)
(-0.0036071922 0.016927601 -0.0026904051)
(-0.0043447054 0.017116031 -0.0013995685)
(-0.0046376643 0.015120554 -5.9372612e-05)
(0.00019494615 0.0018885591 0.00026826974)
(0.00059514324 0.0032649724 0.001053138)
(0.0027360372 0.00066106514 0.00049625179)
(0.0027794628 0.0032949019 -0.00056922773)
(0.0063830512 0.013849535 0.00058213723)
(0.005546723 0.01637241 0.00048413323)
(0.00077986593 0.017702846 0.0014482859)
(-0.0053537984 0.016549065 0.0011807302)
(-0.0022676997 0.0080508518 0.0010575391)
(-0.00028254282 0.00263691 0.00065825276)
(0.0026088996 0.0023269222 0.00096503798)
(0.0037161226 0.0039910082 0.00093345179)
(0.0055733945 0.0092126226 0.00080471026)
(0.0061242113 0.01679022 0.00022884954)
(0.0030645008 0.01831659 0.00062383975)
(-0.0044347287 0.01559951 0.0018630223)
(-0.0047233706 0.011259982 0.0022519184)
(-0.0035447427 0.0024399169 0.002260963)
(-0.0022775264 0.0035901992 0.0019546716)
(-0.00085415991 0.0051153711 0.00096583793)
(0.00091500247 0.0017954487 0.0010689685)
(0.0022874402 0.0025780464 0.0018195294)
(0.0035270288 0.0038170676 0.0022853518)
(0.0029785071 0.0061449123 0.0025847461)
(0.0035747743 0.017357033 0.0044522174)
(0.00031719539 -0.00035225559 0.00022488846)
(-0.001250964 0.0019589429 -0.0013518333)
(-0.0022139611 8.2509828e-06 -0.0011041857)
(-0.003543087 -0.0035831602 -0.0014734233)
(0.0023031501 -0.014436351 -0.00081116812)
(0.0045992333 -0.013723041 -0.0019703052)
(0.0029434524 -0.013594045 -0.0020463501)
(0.00069402316 -0.014789235 -0.0032389875)
(-0.0036252973 -0.013973977 -0.0045085827)
(-0.0047238196 -0.012537275 -0.0035193367)
(0.0028895795 -6.276652e-05 -0.00076138195)
(0.0012451179 0.0035606691 0.0013420365)
(0.0025603977 -0.0065648441 0.00090336267)
(0.0035200178 -0.0138893 0.0012909417)
(0.00067034705 -0.013537864 -0.00087237427)
(0.0017559089 -0.013946374 -0.0011453435)
(0.0015662667 -0.013293256 -0.0023094436)
(0.0007485186 -0.014331346 -0.0033542443)
(0.0013901069 -0.0041854711 -0.00074599501)
(0.0026749521 0.0042144274 0.00039745634)
(0.001339191 -0.00091492762 0.00026000611)
(0.0039588133 -0.013835325 -0.00067295461)
(0.00060811992 -0.013976297 -0.00013680199)
(-0.00023615421 -0.013355781 0.00029891448)
(0.00072439396 -0.013139677 0.00031371955)
(0.0010247968 -0.01318175 -0.00050785233)
(0.00061794432 -0.013160832 -0.00029616707)
(0.0012019644 -0.013252324 -0.00059886578)
(-0.00020225424 -0.013692694 -0.00039594841)
(-0.00058770063 -0.013414736 -0.00019104234)
(-0.00032085635 0.008640384 0.0032490446)
(-0.0011236065 0.008634985 0.0026647213)
(-0.0019328712 0.0084203268 0.0026469419)
(-0.0027637891 0.0067859709 0.0019545214)
(-0.0014035524 -0.00034506175 -0.00092575685)
(-0.00058346725 0.0005740284 -0.001043388)
(-0.00058911941 0.005974392 0.00046845333)
(-0.0017948373 0.0089324774 0.0018221363)
(-0.0032767027 0.0090699703 -0.0023675594)
(-0.0035568303 0.0056801916 -0.002400298)
(-0.0016754243 0.0043596248 -0.00013124587)
(0.0025426446 0.0085629618 0.0015114595)
(0.0046229587 0.0092926399 0.0026242504)
(0.0024105015 0.0088939103 0.0022666094)
(0.0019186133 0.0018977896 -0.00011270662)
(0.0029186427 -0.0026578872 -0.0011785183)
(0.0017205176 -0.0016598698 -0.0020612703)
(0.0030172089 0.0074303517 -0.0029772828)
(-0.0010860286 0.0078225443 0.00076586541)
(0.0013676845 0.0089001429 0.00029211027)
(0.0030939449 0.0072806447 0.00034244921)
(0.0032374019 0.0098192781 -0.00081604275)
(0.00059415188 0.0039241499 -4.7052842e-05)
(0.0017391413 -0.0014929433 -0.0014037045)
(0.00064710195 -0.0021053965 -0.0020621128)
(0.0004379876 -0.0026627153 -0.0019130362)
(3.6250128e-05 -0.0019173503 -0.0017129646)
(0.00080958582 0.002430058 -0.00060632593)
(0.00080447013 0.0049491416 -0.00012792653)
(0.00088307729 0.012416089 -0.0014113514)
(-0.00066279774 -0.00068002849 0.0032737974)
(0.00067801979 0.00055685398 0.0018571081)
(0.001577989 0.00039634449 0.0021279093)
(0.0033161585 -0.0055631635 0.0018816675)
(-0.0015161277 -0.010807559 -0.0026885661)
(-0.003897631 -0.0094364386 -0.0051147469)
(-0.0030927295 -0.0088766875 -0.005090022)
(-0.0015938176 -0.010794293 -0.0032660595)
(-0.00035680153 -0.0083173726 -0.0018776117)
(0.0014535495 -0.0093322787 -0.0036020044)
(0.00020302839 -0.0079221047 -0.0030884385)
(0.00097771338 -0.0045568948 -0.0016557548)
(0.0032318242 -0.0062950617 -0.0020039282)
(0.0047878992 -0.0092035698 -0.0026788732)
(0.004532294 -0.0097461084 -0.0029665447)
(0.0019781701 -0.010477013 -0.0034882596)
(-0.0033784684 -0.0086660105 -0.0018957659)
(-0.0044028281 -0.005918792 -0.0010122017)
(-0.0030571788 -0.0012688526 -0.00081288106)
(0.00039137857 0.001488844 0.00041696909)
(0.002330654 -0.00267567 -0.00035732639)
(0.0039453216 -0.0059933178 -0.00069664557)
(0.0052805721 -0.0087367767 -0.0022712309)
(0.0037525089 -0.009715468 -0.0036753324)
(0.001210009 -0.0091979552 -0.0051692865)
(0.00058691467 -0.0088920171 -0.0045674926)
(-0.0028741959 -0.0091225936 -0.0043965213)
(-0.0032538545 -0.0086513945 -0.0046940437)
(-0.0032284404 -0.0095251992 -0.0035910946)
(-0.0020723613 -0.0079386849 -0.0021288799)
(-0.00032940062 -0.014326822 -0.0030042253)
(-0.00098511375 -0.013290915 -0.0038986479)
(-0.0018695517 -0.013438012 -0.0040536032)
(-0.0014939632 -0.013554051 -0.0042681795)
(-0.0012656895 -0.015449779 -0.0034510955)
(-0.0020308525 -0.017005996 -0.00011923963)
(-0.00044139121 -0.016373793 0.0012646856)
(0.0018622127 -0.017852204 0.0014604717)
(0.0021292425 -0.016855997 -0.00012017578)
(0.0015552745 -0.015406748 -0.0017323402)
(0.00052201334 -0.014279011 -0.0023886857)
(-0.00082344256 -0.015434637 0.0016051961)
(-0.0023540133 -0.015432425 0.00037515761)
(-0.00098826211 -0.011160818 0.00014325828)
(0.0014094212 -0.012757549 0.0018874609)
(0.0015090968 -0.01725068 0.0024067349)
(0.0015742631 -0.016027192 0.0024816736)
(0.00066934912 -0.015265056 0.00086340485)
(0.00033645089 -0.016393784 -0.0013463635)
(-3.1893288e-05 -0.016310346 -0.0009113929)
(-0.001224582 -0.01542138 -0.00045981976)
(-0.0029776016 -0.013473874 0.00038646813)
(-0.0037797831 -0.012653768 0.0017309987)
(-0.0028372269 -0.011547555 0.0021083564)
(-0.0011552112 -0.012477807 0.0019040131)
(0.0012041417 -0.012013707 0.0027241437)
(0.0025037824 -0.011946223 0.002693189)
(0.0031400442 -0.013987374 0.0025157776)
(0.0026894004 -0.014118693 0.002305427)
(0.0012746792 -0.015347362 0.0017702683)
(-0.0013735257 0.016257538 -0.0039916829)
(-0.0016797169 0.014824203 -0.0057757732)
(-0.001978901 0.014238549 -0.0056267968)
(-0.00018656285 0.014573322 -0.0053997692)
(0.00038778709 0.016351389 -0.0036518471)
(-0.00028035174 0.018350315 0.0026842849)
(0.002466445 0.011349943 0.003443338)
(0.0045326534 0.017579206 0.0060789595)
(0.0040698139 0.018099117 0.0050557858)
(0.00022131961 0.017621301 3.3603008e-05)
(-0.00049682698 0.016285556 -0.0025934057)
(-0.0029679737 0.017786949 -0.00036300464)
(-0.0054782947 0.016332516 -0.0001246048)
(-0.00014082477 0.0028202927 -0.0010866535)
(0.00095754238 0.0076666191 0.0017405)
(0.0045886142 0.016940009 0.0047235744)
(0.0048297165 0.017512746 0.0037517986)
(0.0023499151 0.017392632 0.0016341118)
(0.0015966851 0.017797005 -0.0032213896)
(0.0028410341 0.01815899 -0.0024139052)
(-0.0026086745 0.017556671 0.00190631)
(-0.0046700001 0.015901752 0.0037158913)
(-0.0053677712 0.012768059 0.004641976)
(-0.0023366173 0.0037951574 0.0023861494)
(-0.00093303201 0.0023101157 0.0024133897)
(0.0013206497 0.0029679916 0.0028179839)
(0.0030169099 0.0061113758 0.003065139)
(0.0049565975 0.013816941 0.0053264286)
(0.0044074374 0.015855926 0.0057760285)
(0.0031384449 0.01754474 0.0054675657)
(0.00091665725 -0.008911988 0.0021442277)
(-0.0011891957 -0.014629349 0.0072491816)
(-0.004139958 -0.014367489 0.0056520234)
(-0.0038523575 -0.013062373 0.003092574)
(-0.00025850674 -0.010940585 0.00091069833)
(0.0047373618 -0.015124239 -0.0016760881)
(0.0031299004 -0.018011786 -0.0023314863)
(-0.0013513826 -0.016614609 -0.0038430923)
(0.00202439 -0.0012460372 0.0013982507)
(-0.00013259791 0.00135738 -3.4231407e-05)
(0.0013339671 -0.0040615316 0.0010197915)
(-0.00071136833 0.0025686295 0.0010220715)
(0.0043783623 -0.0126724 -0.0010450926)
(0.002171082 -0.01481255 -0.0033840016)
(-0.0019740534 -0.014377589 -0.0032702824)
(-0.0020658879 -0.016677234 -0.00056844759)
(0.0022206564 -0.00099814399 0.0031666596)
(0.0015307738 5.3766165e-05 0.0013365998)
(0.00053537315 -0.012691274 0.0034997103)
(0.0013672975 -0.001840838 0.0010840949)
(0.00042805412 0.0032183856 0.0017339785)
(0.001230345 -0.0023078662 -0.00032096147)
(0.0036228762 -0.013005389 -0.0025219981)
(0.0032765269 -0.014125371 -0.0015612893)
(0.00078157235 -0.01454948 -0.00028684338)
(-0.0012555367 -0.013743454 -0.00071361693)
(-0.0010699645 -0.013945125 -0.001897331)
(-0.0022133495 -0.014127738 -0.0037034491)
(-0.0012866291 -0.0067602712 -0.0015504778)
(0.00058825792 0.003326314 0.0022783053)
(0.0021620159 0.010489637 0.0036893473)
(0.0006107692 0.012684453 0.0052026506)
(-0.0035040069 0.011225731 0.0038426845)
(-0.0018484282 0.0040513414 0.001853053)
(-0.0018552996 -0.0008245519 -0.0023821327)
(0.0031177883 0.011747412 -0.0022904097)
(-0.0029023743 0.013759033 -0.0010505148)
(-0.0060080367 0.011813033 -0.0012724776)
(-0.0042102324 0.0077828819 -0.00034169299)
(-0.00042979851 0.0078598984 0.00081528095)
(0.00011270508 0.0082396501 0.00270161)
(0.0017995864 0.0076988139 0.0027998622)
(0.004224426 0.011103801 0.00041901247)
(-0.00029800692 0.010336788 -0.0019215775)
(0.0016414584 0.0058339211 -0.0024089933)
(-0.0018871001 0.0095175699 -4.7925295e-05)
(-0.00036431187 0.0038813572 0.0010715855)
(0.0041551418 0.0073098487 0.00012791118)
(0.0020891882 0.011616642 0.0012542107)
(-0.0023258685 0.0078883215 0.0025994875)
(0.0016446103 0.0083984501 0.0016584608)
(0.0035713199 0.0068929821 -0.0011478933)
(0.0041703647 0.0077843556 -0.0013112213)
(0.0036107655 0.0044510955 9.9560355e-05)
(0.002268251 0.0071636488 0.0036655617)
(-0.0007191744 0.0022928683 0.0010943543)
(-0.00010389288 0.0049194468 -0.00019888252)
(-0.0018092282 0.0105791 -0.0026617719)
(-0.0040559979 0.0083392652 -0.0024955199)
(-0.0012824302 0.0081901734 -0.00064343742)
(-0.0021051439 -0.0092075575 0.0052132108)
(0.0011006857 -0.0013543841 0.0045924052)
(0.002463555 -0.0031968842 0.0039445496)
(0.0046210621 -0.0093142135 0.0035799655)
(-0.0037706222 -0.010883955 -0.0028750415)
(-0.0047828889 -0.0067190186 -0.0037299519)
(-0.0021536248 -0.00097467401 -0.0030916417)
(0.00078745491 -0.0072420742 -0.0033383017)
(-0.00031590554 -0.0081968983 -0.0029021816)
(-0.00031482994 -0.0021624965 -0.0022913748)
(0.00053841786 -0.0033459222 -0.0012164278)
(0.00020735412 -0.0011876351 0.00078502356)
(0.002973248 -0.0011745035 0.00024048646)
(0.0044033356 -0.0054595336 -0.00082645468)
(0.0038712233 -0.0095158699 -0.0023510982)
(0.00096964675 -0.011588794 -0.0029854682)
(-0.00074469739 -0.008509825 -0.0023649044)
(-0.0042899933 -0.0044163568 0.0010398263)
(-0.00087980825 -0.00026779636 0.0012187771)
(-0.00043163348 -0.0021486726 0.0019737928)
(0.002088303 -0.0014005399 0.00080131322)
(0.0030752716 -0.0045545666 -0.0014661183)
(0.0041762024 -0.0084834865 -0.0038739128)
(0.002318538 -0.010206299 -0.0056733479)
(0.0006433152 -0.0076592234 -0.0064997145)
(0.00045688246 -0.0082484626 -0.0061739272)
(-0.0041245433 -0.0089179871 -0.0046039259)
(-0.0033539604 -0.0040064288 -0.0045034854)
(-0.0019799342 -0.004162032 -0.0039950613)
(-0.0013165536 -0.0022393544 -0.0024334731)
(-0.0028127884 -0.015007662 -0.0019136971)
(-0.0017939842 -0.011433368 -4.9915943e-05)
(-0.0016695564 -0.011816796 -0.0018337187)
(0.00031476972 -0.011190571 -0.0029372052)
(0.0017694967 -0.011491758 -0.0022409351)
(0.0022713051 -0.015298059 -0.00274741)
(0.0017214034 -0.018449718 -0.0021425848)
(0.00077313532 -0.017465867 -0.0027623688)
(0.0010028734 -0.016101973 -0.0034937798)
(-0.00077240892 -0.01342412 -0.0035414889)
(0.00050956857 -0.010080347 -0.0017160888)
(0.0022498497 -0.013338969 -0.002037062)
(0.00060909702 -0.016165548 -0.0018071002)
(-0.00050671967 -0.017159365 0.00078074294)
(-0.00095577567 -0.015904572 0.0008949121)
(-0.001927587 -0.015314566 -0.00075551601)
(-0.0020909234 -0.015243828 -0.0022497578)
(-0.0018885318 -0.012282634 -0.0029919473)
(0.0015603487 -0.010783126 -0.001430546)
(0.0026969635 -0.01305852 -0.0022434147)
(0.0015827236 -0.013906079 -0.0014111415)
(-0.00063667122 -0.016681253 -0.0011124183)
(-0.0011020842 -0.016168146 0.00049951652)
(-0.0020932377 -0.017200732 0.0032179348)
(-0.0010017208 -0.018659992 0.0037237648)
(0.0012493528 -0.017370193 0.0038730811)
(0.0012374527 -0.015987665 0.0032500926)
(0.00086025223 -0.015554337 0.0010260466)
(0.00073554348 -0.016216004 0.00097475144)
(-7.118796e-05 -0.016165844 0.0024365701)
(-0.0044785025 0.015254078 0.0025879029)
(-0.00082642596 -0.00011193959 0.0041554087)
(-0.0030657663 0.0012530753 0.0012929782)
(0.0012176021 0.00068180052 -1.4908651e-05)
(0.0018328627 0.0021555245 0.00044211198)
(0.0039892778 0.015469409 0.0012052114)
(0.0043461748 0.019445539 0.0022227323)
(0.0036609236 0.019439583 0.0018328157)
(-0.0019466522 0.017447173 -0.0041252696)
(-0.0036332554 0.013900759 -0.0045178705)
(-0.00044294921 0.0014811055 -0.00023892878)
(0.0029287298 0.014477768 -0.0029090822)
(0.0027752111 0.018168693 -0.0014349149)
(0.0010056408 0.018807876 0.0027438522)
(-0.00037751388 0.017631966 0.0020103639)
(-0.0039652063 0.017532207 -0.0025375755)
(-0.0041822392 0.016107494 -0.0051442962)
(-0.0007752797 0.010172078 -0.0036205185)
(0.0027819472 0.0014244121 -0.00023715519)
(0.0053601857 0.0121448 -0.0023556097)
(0.0050889688 0.016155816 -0.0016549827)
(0.00086746455 0.018246452 0.00088045774)
(-0.0046017902 0.018043533 0.0047440655)
(-0.004500017 0.017788532 0.0060453528)
(-0.0020932452 0.016085463 0.0051172858)
(0.0019604079 0.016146624 0.0050246474)
(0.0041355301 0.017158407 0.0057074709)
(0.00424332 0.017474931 0.0048882406)
(0.0023900373 0.017839975 0.003940963)
(0.00067213075 0.017757419 0.0020279857)
(0.0034109593 -0.011440082 0.0034844367)
(0.002745141 -0.014685056 0.0060771563)
(-0.0037121953 -0.013900813 0.0034701391)
(-0.00039406105 -0.013501315 0.0017458313)
(-0.0012818274 -0.013493965 0.00030531519)
(0.00046979497 -0.01455754 -0.0023411914)
(0.0011706791 -0.011743291 -0.00093010937)
(0.0028424184 0.0052369974 0.0016935673)
(4.5505924e-05 0.0056138444 -0.0012581418)
(0.004371474 -0.0091875873 0.00095528684)
(-3.0060341e-05 -0.014756866 0.0025784128)
(-0.0052461568 -0.015013868 0.0022145155)
(-0.001023498 -0.0091786563 -0.001439213)
(-0.0010098552 -0.0080322212 -0.0020797397)
(0.0010537343 -0.0016561518 0.0013126897)
(-0.0015570093 0.0021928292 -0.00081062843)
(0.00099724011 -0.013775964 0.002653647)
(0.0028236258 -0.0131001 0.002943623)
(0.0017575399 -0.014918541 0.0035122412)
(-0.0035054771 -0.013087232 0.0053680218)
(-0.00081946741 -0.00095603453 0.0015856954)
(-0.00023955848 0.0052734049 0.00027074596)
(-0.0015080233 0.0029384047 0.00061154862)
(0.0011966553 -0.014752966 -0.0029024035)
(-0.00028973928 -0.018503056 -0.0042730817)
(-0.0023809059 -0.017516934 -0.0038566746)
(-0.00094551546 -0.010241272 -0.0018790304)
(0.0006120772 0.0027951361 0.00049022903)
(0.0005595574 0.0033050809 0.0013226108)
(0.00073132334 0.0025132167 0.0015908124)
(0.00061549375 0.0029878512 0.0028146623)
(0.0020680872 0.0098795032 0.00017782512)
(-0.0027291871 0.0067939678 -0.0028466722)
(0.002244544 -0.0035510918 9.4607332e-05)
(0.00013357095 -0.00089054622 -0.0033437059)
(0.0019555235 0.0074345078 -0.0055116848)
(-0.0029806373 0.012083514 -0.0047782364)
(-0.0010756555 0.009149086 -0.0010384367)
(0.0017214463 0.0089062388 -0.00073114412)
(0.0036159202 0.0097026297 -0.00067511697)
(-0.00073924288 0.010055947 -6.644844e-05)
(-0.002350641 0.011218878 0.0018004468)
(-0.0021123529 0.0075011782 -0.0029187632)
(-0.0012798888 0.0088777176 -0.00286157)
(0.00058095161 0.0082176739 0.00024481013)
(0.0018972838 0.0076148921 -0.0005087619)
(0.0029632931 0.010840628 4.8258454e-05)
(0.00017584219 0.0033320886 0.0010296205)
(0.00085501189 0.0094354306 -0.00012982383)
(-0.0041803022 0.0093745765 0.0038784426)
(-0.0026488286 0.0070544098 0.0027699782)
(-0.00039144936 0.0094816495 0.00018292295)
(0.0026772265 0.0078848133 -0.0011325987)
(0.0057427055 0.011271505 -0.0017255924)
(-1.2023646e-05 0.012335003 -1.4315441e-05)
(-0.0056613571 0.012399192 -0.0018935802)
(-0.0052980855 0.010576238 -0.0033196455)
(-0.0021136021 0.0082928872 -0.0021912061)
(-0.00084538761 0.0090945452 -0.0003983491)
(-6.3887193e-05 0.0083314876 0.0019879737)
(-0.0028694235 -0.010582751 0.005589659)
(0.0010935752 -0.003978274 0.0050595627)
(0.0039100322 -0.007970716 0.0050351105)
(0.0042870934 -0.010141667 0.0030528542)
(-0.002583005 -0.010336014 -0.0042235267)
(-0.004273728 -0.0083583943 -0.0033896072)
(-0.0028435865 -0.0045825999 -0.002191161)
(-0.00088649845 9.7853169e-05 -0.00091957238)
(0.0016164202 0.0015786363 -0.00030392324)
(0.0030686255 -0.0024635314 0.00047975523)
(0.0029775093 -0.0059477059 0.0012666301)
(0.0038894379 -0.01100093 0.0015163829)
(0.0038896143 -0.011223722 0.0012322493)
(0.0019855631 -0.01165965 -0.00036989314)
(0.00094407072 -0.0086376735 -0.0021432594)
(-0.00078682259 -0.001332326 -0.0012005501)
(0.002814821 -0.0080467748 -0.00058527395)
(-0.0030379004 -0.0089096509 0.0032695428)
(-0.0040019598 -0.0069129925 0.0037473431)
(-0.0034432952 -0.0056648886 0.0025537986)
(-0.0028707055 -0.0036563042 0.0010603147)
(-0.0011387684 0.0015933154 -0.00036657202)
(0.0020362861 -0.0030513428 -0.0035998582)
(-0.00033620059 -0.0080795534 -0.004478303)
(-0.00069752639 9.664482e-05 -0.0028830529)
(0.0014284433 -0.0047070571 -0.0044557188)
(-0.0017670291 -0.0095363198 -0.0031334623)
(-0.0034116162 -0.00046202567 -0.0027185514)
(-0.0013060356 0.0020291512 -0.0011718252)
(-0.00049201743 0.00044120125 -0.00069122045)
(-0.0025035502 -0.015912565 0.0015003388)
(-0.0022257721 -0.012463082 0.002768536)
(-0.0016135649 -0.011917528 0.0017223284)
(0.0015338405 -0.011405 -0.00040305257)
(0.002737516 -0.014156807 -0.00015823446)
(0.0020263469 -0.015870737 -0.0012817668)
(-0.00015610043 -0.016625041 -0.0015698938)
(-0.0023006477 -0.014345325 -0.0031141806)
(-0.0021849369 -0.012290566 -0.0031683501)
(-0.0013364684 -0.011049905 -0.0028195994)
(0.0016535177 -0.011753502 -0.00094154921)
(0.0028688416 -0.011869907 -0.0013135384)
(0.0026738272 -0.014316507 -0.0019592931)
(-0.00030818267 -0.015974901 -0.0023175479)
(-0.0029942995 -0.014467364 -0.0015457528)
(-0.0037595676 -0.012512533 -0.0015950152)
(-0.0028951198 -0.0111934 -0.0017507183)
(-0.00091666555 -0.011937098 -0.0027356773)
(0.00058155903 -0.01280025 -0.0012475611)
(0.0026949049 -0.012019625 -0.00095257845)
(0.0039884173 -0.01316716 -0.0015417912)
(0.0020086416 -0.014993101 -0.0017739713)
(0.00021342974 -0.017187956 -0.0022841843)
(-0.00012674603 -0.015836445 -0.00084446672)
(-0.00037344792 -0.0166371 -0.0029220126)
(0.00085266122 -0.01696636 -0.0010584123)
(0.00039032416 -0.016378353 -0.0016572839)
(0.00053469122 -0.016400058 -0.0030979991)
(0.0002015724 -0.014705586 -0.0024262276)
(-0.0002080172 -0.012456619 -0.0031840552)
(-0.0042671022 0.016684305 0.0045751918)
(-0.0012475028 0.0058576285 0.0046735743)
(-0.00059033418 0.0020653253 0.001654567)
(0.0027783255 -0.0010218812 -0.00090927614)
(0.0051282619 0.011588459 0.0015899816)
(0.0050529876 0.01719286 0.0022123157)
(-0.00097611717 0.018510701 -0.00016312008)
(-0.0057704002 0.015294549 -0.0034434733)
(-0.0036513904 0.0076548908 -0.0027409411)
(-0.0022818737 0.0013162511 -0.0015100745)
(0.0017027091 0.0021670011 0.00056220281)
(0.0027289796 0.0069038856 0.0017126058)
(0.0043537066 0.015846199 0.0011417288)
(-0.0028828435 0.018160644 -0.00034878852)
(-0.0056089943 0.015819375 -0.00064416822)
(-0.004395145 0.0090190211 -0.00037885786)
(-0.0028050753 0.0010881812 -0.00046454899)
(-0.0012243299 0.0016255184 -0.0014397532)
(0.0017458772 0.0038282743 -0.00056091524)
(0.0021326319 0.00038395342 0.0010830818)
(0.0069771146 0.012771271 -0.00010502771)
(0.0059387991 0.016877062 -0.00062897842)
(0.00054864458 0.018643056 -0.00062441128)
(-0.0038200754 0.018264513 -0.00015757758)
(-0.0030611466 0.017629433 -0.002587783)
(0.0030787766 0.018548894 -0.001635768)
(0.002786953 0.018643931 -0.0014815419)
(0.00072781244 0.018014987 -0.0045642151)
(-0.0026256895 0.016690941 -0.0044854128)
(-0.0014037719 0.013949088 -0.005041023)
(0.0015290243 -0.0060081645 0.0021710321)
(0.0037307498 -0.013438898 0.00087346818)
(0.00023246209 -0.013158131 -0.0023076642)
(0.0001967642 -0.014483785 -0.003487936)
(-0.0021597637 -0.013234093 -0.0035846098)
(0.00018796825 0.00052198877 0.00044386442)
(0.00032036965 0.0071016634 0.00032545936)
(-0.00027678241 -0.001261937 -6.3987261e-05)
(0.0017644657 -0.013511172 0.0011486109)
(-0.00047762476 -0.013774555 0.00078187354)
(-0.00011018748 -0.013714292 0.0014379922)
(-0.0035926273 -0.014406613 0.0021937727)
(-0.0017956772 -0.003653237 0.00089926286)
(-0.0024052223 0.0044188873 0.0003166709)
(0.0001665973 -0.0055780364 0.0012532078)
(0.0016338996 -0.014197088 0.0037033011)
(-0.00082334739 -0.013523186 0.0014523626)
(-0.00026892512 -0.013617489 0.0015372334)
(0.0013409423 -0.013401716 -0.00062968383)
(-0.0031881708 -0.015141861 0.0042561415)
(-0.0049662381 -0.012947067 0.0028085253)
(-0.00012241883 0.0004616492 0.00024943725)
(0.00053918278 0.0071189362 -0.00029019024)
(-0.00055886874 0.0039850567 0.00086407342)
(-0.00061853045 -0.017646993 0.0040477764)
(-0.0027285031 -0.015137085 0.000451772)
(0.00035136252 0.0026841713 -0.0022221816)
(0.00036663949 0.004382679 -0.003327079)
(-4.2197354e-05 0.0016239177 -0.001115177)
(0.0015336966 -0.013142544 0.006531388)
(0.0019410349 0.0068284606 0.001005661)
(0.0025373017 0.007951138 -0.00013434802)
(0.00068746475 0.0020082562 -0.0014182216)
(0.00038510776 -0.00058734711 -0.0019994009)
(-0.001558586 0.010011026 -0.003034392)
(-0.002309684 0.0077175386 -0.0022154949)
(0.00024538486 0.010000724 -0.00020014439)
(0.0017766229 0.0070888223 0.0018539421)
(0.0014331315 0.0051336578 0.0015452867)
(0.00070983493 -0.00089780457 0.0008790492)
(-0.0010188527 -0.00040669625 0.0023035233)
(-0.002320001 0.0097834753 0.0039409282)
(-0.0034270903 0.0074269699 0.0012318892)
(-0.0018854688 0.0081733756 0.00069997075)
(0.0024234013 0.0081666885 0.0028895255)
(0.00050524052 0.0097760397 0.0037541244)
(0.00010811031 0.00027750142 0.00048329272)
(-0.0010133525 -0.0032354328 0.00097562958)
(-0.00069218444 0.0051332479 0.0008967132)
(-0.0020333194 0.010656104 0.0019399994)
(-0.003930102 0.0093026985 0.0021338366)
(-0.0028966143 0.007220554 0.00065548687)
(0.00081713231 0.010743357 -0.00017806417)
(0.0028045452 0.008384053 0.00097167077)
(0.0042020887 0.011460156 0.00034201578)
(-0.0053273544 0.012125624 -0.0026880961)
(-0.0025275432 0.0086051247 -0.0030211409)
(0.0007533917 0.0094714615 -0.0022819856)
(0.0022620487 0.0084662874 0.0013144565)
(0.0030225324 0.011431324 0.0045019177)
(0.00044086694 -0.0086761412 -0.0024826194)
(0.0020170898 -0.010459756 -0.0006029787)
(0.0027400711 -0.010527998 -0.0029779389)
(-0.00081304716 -0.0097136762 -0.0053381586)
(-0.0027883422 -0.0080954742 -0.0053132836)
(-0.0017143265 -0.0018239528 -0.0043747927)
(0.0015441006 0.00057014063 -0.00094219911)
(0.0047529551 -0.0046163077 -7.3811446e-05)
(0.0043332046 -0.0081995051 0.0016557574)
(0.0031217149 -0.0086665239 0.0028917746)
(-0.0034552822 -0.010506858 0.0010924499)
(-0.004253278 -0.0098107859 -0.00087768912)
(-0.0023605794 -0.0043224777 -0.0014831616)
(-0.00028005667 -0.00024592162 -0.00060203631)
(0.0022141955 -0.0035433973 0.00088429132)
(0.0025149785 -0.0059429157 0.0014712677)
(0.0042657413 -0.0083337666 0.0024994006)
(-0.0033435829 -0.0096632968 0.0033290021)
(-0.0061598803 -0.0094745423 0.0040613948)
(-0.0056446052 -0.0083836604 0.0026559384)
(-0.0043522445 -0.0071510996 0.0019007158)
(-0.0036333015 -0.0017901861 0.0017276748)
(0.00031899693 0.0039361927 -0.00011369238)
(0.0020755718 1.9763463e-05 0.0010157663)
(0.0027860046 -0.0036408133 0.0025239997)
(0.002595706 -0.0040829104 0.0022580492)
(0.0010440437 -0.0078328996 0.0038541186)
(-0.0016506577 -0.00072222976 0.0018671116)
(0.00039953335 -0.0010769175 0.0035828116)
(-0.00071885337 -0.0044358864 0.0039230362)
(-0.0010140247 -0.015919342 0.0020736287)
(-0.0016730479 -0.015645841 0.0029232136)
(-0.00066707828 -0.017384378 0.0013039776)
(4.9709976e-06 -0.0187046 0.00073578829)
(-0.00066752865 -0.017050284 -0.0020644444)
(-0.0016708411 -0.016068539 -0.0028815225)
(-0.0031955738 -0.014320579 -0.0024458507)
(-0.0033099455 -0.012175674 -0.0027729965)
(-0.0019087693 -0.01183375 -0.0022686219)
(0.00012191971 -0.012164597 -0.0011488911)
(0.002661454 -0.012263586 -5.5305333e-05)
(0.0035382975 -0.015943308 -0.00045060649)
(0.001947155 -0.016472245 -0.0015627531)
(0.0020340603 -0.012532764 0.00029724755)
(0.0016659889 -0.014163809 0.0012325312)
(0.0024666008 -0.013230432 0.0012946479)
(0.003244646 -0.014223745 -0.00028407649)
(0.0020850146 -0.017511896 -0.0010009952)
(-0.001562515 -0.016580388 -0.0016140074)
(-0.0032248673 -0.014377743 -0.0024833166)
(-0.00092064026 -0.012384292 -0.0014676305)
(0.0030336363 -0.013464588 -0.0020082287)
(0.00091407627 -0.016400599 -0.002750724)
(-0.00022785085 -0.014720668 -0.0042184655)
(-0.0028738369 -0.013419147 -0.0040638451)
(-0.0018668641 -0.011629252 -0.0018280689)
(-0.0023359964 0.017410421 0.0048259209)
(-0.0018728924 0.016384427 0.0058796646)
(-0.0011732682 0.016477754 0.0039531877)
(0.0029794058 0.019158328 0.0041791725)
(0.0021155411 0.018868571 0.0015055755)
(-0.0053849523 0.017933575 -0.0016807944)
(-0.0069181253 0.015349828 -0.0018974579)
(-0.0045090727 0.0074047012 -0.0017320491)
(-0.002913122 0.0021510443 -0.0026587605)
(0.00021870099 0.0028267354 -0.00037637456)
(0.003225802 0.0041081473 0.0018456199)
(0.0062409624 0.015441041 0.0029543881)
(0.0057186268 0.01806829 0.00179999)
(0.0015809763 -0.00064225066 0.00061263517)
(0.0028687429 0.0084634291 0.0031945697)
(0.0030203859 0.0031902879 0.00086111043)
(0.0047957276 0.011034556 -0.0011001086)
(0.0056644445 0.018327818 -0.0014061402)
(-0.0048842728 0.018089912 -0.0023180298)
(-0.0062129177 0.013338715 -0.0027282311)
(-0.0007167926 -0.0026902884 0.00032066206)
(0.0020823521 0.010082537 -0.00099489114)
(0.0017582383 0.017882703 -0.004070828)
(0.00070400213 0.016320496 -0.0049009196)
(-0.0041776369 0.014562494 -0.0044315729)
(0.00079547345 -0.0018425261 0.0015645845)
(0.0002946217 0.0021012452 0.002900895)
(0.0013942328 -0.0039130132 0.0019210576)
(0.0029824099 -0.017021573 0.0012105425)
(-0.0015555436 -0.018518969 -0.0031441479)
(0.0014357904 0.0059234015 0.00043326123)
(-0.0026905548 0.0056752541 -0.0022145725)
(0.0033542182 -0.010091235 -3.0761441e-05)
(0.0011897469 -0.013997978 0.0029277143)
(-0.00090499305 -0.013491729 -0.0024070382)
(-0.0001344638 -0.013572324 -0.00094304333)
(0.00029299615 -0.013783182 0.0015316586)
(-0.0048669192 -0.01484527 -0.0019458758)
(0.0034674104 0.005125888 -0.00019150199)
(-0.00079813315 -0.013890102 -0.00050310705)
(0.0018945276 -0.013781584 -0.0014907846)
(0.0011687885 -0.015814373 -0.0032648455)
(-0.0052469249 -0.015147426 -0.0029425013)
(0.0019103928 -0.00050732945 -0.0023737125)
(-0.0019008023 0.0045853206 -0.00031583402)
(0.0049223776 -0.012831239 0.0025414078)
(0.00081622916 -0.015929435 0.0027750466)
(-0.0048268843 -0.013631946 -0.002124129)
(6.4249313e-05 -0.006637042 -0.0020540423)
(0.0031348519 -0.0059049102 0.00073002146)
(0.0049695077 -0.012243854 0.0017841197)
(0.0038294122 -0.014953913 0.0040190736)
(0.0015469493 0.0086912308 0.0014090573)
(0.0035972794 0.0081930443 0.0016278212)
(0.0057878591 0.012228937 0.0013659277)
(-0.0043846742 0.013288192 0.00050842101)
(-0.0018418842 0.0095681783 -0.0011891013)
(0.00086481443 0.0092478655 -0.0025721643)
(0.004615709 0.0098435468 0.0013573148)
(-0.00087571157 0.0097025618 0.0039949919)
(0.0016681181 -0.0020213192 -0.0013271459)
(-0.0010487064 -0.0040248687 -0.00018289891)