/*--------------------------------*- C++ -*----------------------------------*\
| =========                 |                                                 |
| \\      /  F ield         | OpenFOAM: The Open Source CFD Toolbox           |
|  \\    /   O peration     | Version:  v2012                                 |
|   \\  /    A nd           | Website:  www.openfoam.com                      |
|    \\/     M anipulation  |                                                 |
\*---------------------------------------------------------------------------*/
FoamFile
{
    version     2.0;
    format      ascii;
    class       surfaceScalarField;
    location    "380/topAir";
    object      phi;
}
// * * * * * * * * * * * * * * * * * * * * * * * * * * * * * * * * * * * * * //

dimensions      [1 0 -1 0 0 0 0];
oriented        oriented;


internalField   nonuniform List<scalar> 
3140
(
9.4918056e-06
-2.9446837e-07
7.165707e-08
9.6726925e-06
-2.6210367e-07
8.1249922e-08
9.847669e-06
-2.4503418e-07
7.0108493e-08
9.9907755e-06
-1.9504532e-07
5.2007037e-08
1.0095415e-05
-1.3327827e-07
2.8723859e-08
1.017024e-05
-7.5627272e-08
9.0270723e-10
1.0247557e-05
-2.7884395e-08
-4.9317159e-08
1.0350164e-05
1.2772989e-08
-1.152509e-07
1.0484228e-05
7.681365e-08
-2.1073855e-07
1.0672452e-05
1.5903963e-07
-3.4711918e-07
1.0910026e-05
3.0173925e-07
-5.3916782e-07
1.1168509e-05
5.4178075e-07
-8.0012131e-07
1.1392295e-05
9.1166268e-07
-1.1353058e-06
1.1584915e-05
1.3544296e-06
-1.5469114e-06
1.1727153e-05
1.8507741e-06
-1.9928459e-06
1.1821146e-05
2.3312864e-06
-2.4250751e-06
1.186534e-05
2.7532308e-06
-2.7972148e-06
1.185358e-05
3.0970413e-06
-3.0851348e-06
1.1790572e-05
3.3520763e-06
-3.2890626e-06
1.1699963e-05
3.5114318e-06
-3.4210334e-06
1.1614547e-05
3.5800042e-06
-3.4950802e-06
1.1560481e-05
3.5755265e-06
-3.5222866e-06
1.1550834e-05
3.5183462e-06
-3.5098881e-06
1.1584859e-05
3.4256462e-06
-3.4612383e-06
1.1646879e-05
3.3117896e-06
-3.3757728e-06
1.1697454e-05
3.1938328e-06
-3.246836e-06
1.1650175e-05
3.101803e-06
-3.0575623e-06
1.1327372e-05
3.0966309e-06
-2.7776894e-06
1.0364434e-05
3.3164351e-06
-2.3584716e-06
4.0956549e-06
-1.7373281e-06
9.1172347e-06
-2.215171e-07
7.8783336e-08
9.0858453e-06
-3.3257933e-07
1.0186662e-07
9.085446e-06
-3.5172972e-07
1.0709909e-07
9.1298689e-06
-3.4724431e-07
1.0778396e-07
9.2179123e-06
-3.2483711e-07
1.0352773e-07
9.3439389e-06
-2.9403983e-07
9.2403696e-08
9.5107096e-06
-2.6701573e-07
7.2385175e-08
9.7324834e-06
-2.4960811e-07
4.0657309e-08
1.0033371e-05
-2.1912287e-07
-4.8386638e-09
1.0443031e-05
-1.5917232e-07
-9.125929e-08
1.0982996e-05
-2.0275892e-08
-2.1764619e-07
1.1639073e-05
2.8921023e-07
-4.0303932e-07
1.2322522e-05
8.9341467e-07
-6.6447031e-07
1.2926019e-05
1.7402583e-06
-9.8830542e-07
1.339415e-05
2.7108785e-06
-1.327021e-06
1.3690983e-05
3.645863e-06
-1.6102188e-06
1.3802354e-05
4.4368107e-06
-1.794024e-06
1.3745035e-05
5.0520604e-06
-1.8971883e-06
1.3568896e-05
5.4946397e-06
-1.9663949e-06
1.3345972e-05
5.7732055e-06
-2.0393441e-06
1.3138496e-05
5.9018275e-06
-2.1154394e-06
1.297708e-05
5.9097293e-06
-2.1745823e-06
1.2869336e-05
5.8245832e-06
-2.2011089e-06
1.2807022e-05
5.6662233e-06
-2.1817884e-06
1.2770657e-05
5.445743e-06
-2.1021099e-06
1.2718734e-05
5.1814192e-06
-1.9413409e-06
1.2565558e-05
4.9154494e-06
-1.667554e-06
1.2149892e-05
4.7422378e-06
-1.2387352e-06
1.1212272e-05
4.856364e-06
-6.1310594e-07
5.4903204e-06
2.9417808e-07
9.1738896e-06
-2.0724004e-07
8.0793817e-08
9.0104797e-06
-2.7507105e-07
1.0590134e-07
8.8326912e-06
-2.8805933e-07
1.141178e-07
8.6531474e-06
-2.8742571e-07
1.197253e-07
8.4840446e-06
-2.7961114e-07
1.2387719e-07
8.3307e-06
-2.6689474e-07
1.2620048e-07
8.190581e-06
-2.5446082e-07
1.2756576e-07
8.0588287e-06
-2.4801677e-07
1.3016435e-07
7.9515885e-06
-2.4942419e-07
1.375475e-07
7.9078438e-06
-2.6503283e-07
1.4961521e-07
8.034363e-06
-3.0575305e-07
1.5897841e-07
8.4810813e-06
-3.016237e-07
1.4430795e-07
9.2889945e-06
-5.2837918e-11
8.6275116e-08
1.0389529e-05
6.504491e-07
-9.3017791e-09
1.1404343e-05
1.7682954e-06
-7.0154546e-08
1.220463e-05
2.8872313e-06
-3.9291628e-08
1.2727787e-05
3.7365052e-06
1.7954374e-07
1.2957507e-05
4.317357e-06
5.0703316e-07
1.2974328e-05
4.7015579e-06
7.7774034e-07
1.2880962e-05
4.9288983e-06
9.3847833e-07
1.2772149e-05
5.0197271e-06
9.9100243e-07
1.26768e-05
4.9823853e-06
1.0220457e-06
1.2592792e-05
4.8430063e-06
1.0641915e-06
1.2500504e-05
4.6306798e-06
1.125706e-06
1.2390149e-05
4.3733562e-06
1.1798958e-06
1.2241808e-05
4.0924988e-06
1.2336659e-06
1.2017336e-05
3.8172656e-06
1.3182026e-06
1.166719e-05
3.6253232e-06
1.4614991e-06
1.1083728e-05
3.7033944e-06
1.7292438e-06
4.4380976e-06
2.1949885e-06
8.9827937e-06
7.8918512e-08
8.6048975e-06
1.0282475e-07
8.20691e-06
1.0992793e-07
7.8055954e-06
1.1388861e-07
7.4097985e-06
1.1618553e-07
7.0260344e-06
1.1686912e-07
6.654299e-06
1.1727445e-07
6.2863589e-06
1.1992324e-07
5.9079131e-06
1.2902167e-07
5.4918645e-06
1.5101575e-07
4.9871243e-06
1.9898828e-07
4.3880213e-06
2.9749312e-07
3.9105555e-06
4.7752026e-07
3.8123678e-06
7.4968794e-07
4.4187242e-06
1.164287e-06
5.5121695e-06
1.7967023e-06
6.601245e-06
2.6504127e-06
7.4920603e-06
3.4290916e-06
8.1762692e-06
4.019201e-06
8.7191705e-06
4.3870745e-06
9.1677037e-06
4.5715262e-06
9.5514116e-06
4.5983245e-06
9.8557961e-06
4.5376408e-06
1.0065975e-05
4.4189484e-06
1.017174e-05
4.2655291e-06
1.0168926e-05
4.0927811e-06
1.0091667e-05
3.8915156e-06
1.0038357e-05
3.6750321e-06
1.0312229e-05
3.4249547e-06
2.9884417e-06
9.6040606e-06
-2.9406311e-07
3.0654321e-08
9.9013122e-06
-2.6304214e-07
4.7070794e-08
1.0181302e-05
-2.5816162e-07
4.8323208e-08
1.0416862e-05
-2.2530805e-07
4.1810455e-08
1.0601126e-05
-1.8515895e-07
2.9685229e-08
1.0746233e-05
-1.5416551e-07
1.0038477e-08
1.0852933e-05
-1.4042779e-07
-1.550222e-08
1.0931887e-05
-1.4633091e-07
-4.7782607e-08
1.0991301e-05
-1.7769323e-07
-9.2376811e-08
1.1037976e-05
-2.4000056e-07
-1.537257e-07
1.1078527e-05
-3.421319e-07
-2.3753968e-07
1.1119607e-05
-4.9151844e-07
-3.4965013e-07
1.1171183e-05
-6.9294131e-07
-4.9386713e-07
1.1302366e-05
-1.0010266e-06
-6.7683992e-07
1.153043e-05
-1.3393777e-06
-8.8097055e-07
1.1847351e-05
-1.6565099e-06
-1.084581e-06
1.218438e-05
-1.858961e-06
-1.2742569e-06
1.2455761e-05
-1.8977944e-06
-1.4578484e-06
1.2617778e-05
-1.807893e-06
-1.6426948e-06
1.2677947e-05
-1.6656237e-06
-1.8156025e-06
1.2680632e-05
-1.534168e-06
-1.964199e-06
1.2669662e-05
-1.4306938e-06
-2.0818084e-06
1.2673279e-05
-1.3537447e-06
-2.1614971e-06
1.2703767e-05
-1.2976368e-06
-2.1963121e-06
1.2766696e-05
-1.2595588e-06
-2.1818562e-06
1.286419e-05
-1.2315474e-06
-2.1161503e-06
1.2978996e-05
-1.1848216e-06
-1.9919414e-06
1.3049216e-05
-1.0519689e-06
-1.8018373e-06
1.2941125e-05
-6.9155942e-07
-1.566667e-06
3.897245e-07
-1.2869313e-06
9.2423057e-06
-2.2300127e-07
3.4385076e-08
9.3583459e-06
-3.3656857e-07
5.9354075e-08
9.499339e-06
-3.6086813e-07
6.8815603e-08
9.6788592e-06
-3.6656894e-07
6.9530562e-08
9.8934568e-06
-3.6051715e-07
6.4297729e-08
1.0131568e-05
-3.5202282e-07
5.2163156e-08
1.0384652e-05
-3.5227063e-07
3.1161789e-08
1.0649312e-05
-3.7067292e-07
3.6134767e-10
1.0932381e-05
-4.1612462e-07
-4.9451041e-08
1.1226081e-05
-5.0559827e-07
-1.1933562e-07
1.1540429e-05
-6.5538043e-07
-2.1871753e-07
1.1887149e-05
-8.8509297e-07
-3.5614404e-07
1.228615e-05
-1.218461e-06
-5.3786001e-07
1.2736627e-05
-1.6814989e-06
-7.5808998e-07
1.3265853e-05
-2.20335e-06
-9.9187894e-07
1.3815459e-05
-2.6137801e-06
-1.2020934e-06
1.4268781e-05
-2.717439e-06
-1.3885893e-06
1.4539705e-05
-2.4850295e-06
-1.5809199e-06
1.4615155e-05
-2.0664188e-06
-1.7837192e-06
1.4548622e-05
-1.6520348e-06
-1.9871387e-06
1.4430334e-05
-1.3573357e-06
-2.1750647e-06
1.429447e-05
-1.1363354e-06
-2.334519e-06
1.4149672e-05
-9.7315532e-07
-2.4387402e-06
1.3994945e-05
-8.70469e-07
-2.4565259e-06
1.385349e-05
-8.5321145e-07
-2.3698306e-06
1.3793002e-05
-9.3272649e-07
-2.1830201e-06
1.3919679e-05
-1.0885833e-06
-1.8941168e-06
1.4471206e-05
-1.325866e-06
-1.5199074e-06
1.6116571e-05
-1.696641e-06
-1.2566431e-06
-1.9414789e-06
-1.3812454e-06
9.3012979e-06
-2.0961496e-07
3.5070028e-08
9.2881827e-06
-2.787599e-07
6.1207517e-08
9.2622434e-06
-2.9355981e-07
7.2748554e-08
9.2360711e-06
-2.9701896e-07
7.634759e-08
9.2201102e-06
-2.957522e-07
7.5073302e-08
9.2176424e-06
-2.9193889e-07
6.8585036e-08
9.2281083e-06
-2.9114094e-07
5.5971362e-08
9.2506974e-06
-2.9987542e-07
3.6779681e-08
9.28528e-06
-3.2516727e-07
1.2010044e-08
9.3376379e-06
-3.7949508e-07
-2.8842551e-08
9.4184161e-06
-4.8570349e-07
-9.1472343e-08
9.5403515e-06
-6.7793315e-07
-1.8477445e-07
9.7240119e-06
-9.9631243e-07
-3.1949608e-07
9.9915402e-06
-1.46828e-06
-4.8996502e-07
1.0365989e-05
-1.9982277e-06
-6.4963327e-07
1.0784518e-05
-2.3519254e-06
-7.1973335e-07
1.1155325e-05
-2.2608285e-06
-6.4845063e-07
1.1429591e-05
-1.7756905e-06
-4.7757289e-07
1.155002e-05
-1.1133742e-06
-2.9722495e-07
1.1535054e-05
-4.5879967e-07
-2.4183792e-07
1.1458864e-05
7.6234414e-09
-3.0104022e-07
1.1405503e-05
2.3670246e-07
-3.0275031e-07
1.137187e-05
3.0695174e-07
-1.8932281e-07
1.1335929e-05
2.9155509e-07
-8.2783803e-09
1.1239987e-05
1.775944e-07
2.3650285e-07
1.1104139e-05
-3.6157662e-08
4.645176e-07
1.0939039e-05
-3.3638183e-07
7.2299815e-07
1.0906003e-05
-7.3264829e-07
8.9341373e-07
1.1403756e-05
-1.1087247e-06
6.3594211e-07
-1.4052018e-06
-2.6880075e-07
9.1041776e-06
3.4078119e-08
8.8691851e-06
5.905707e-08
8.6158246e-06
6.9728323e-08
8.3601119e-06
7.2582012e-08
8.1099607e-06
7.0584295e-08
7.8713934e-06
6.3497341e-08
7.6468276e-06
5.0699171e-08
7.434772e-06
3.2103158e-08
7.2293971e-06
9.2292693e-09
7.0275272e-06
-2.6609583e-08
6.8139233e-06
-7.3111141e-08
6.5640934e-06
-1.3060795e-07
6.2551144e-06
-2.097924e-07
5.8696263e-06
-3.3292312e-07
5.504169e-06
-4.6803696e-07
5.3181866e-06
-3.6849263e-07
5.4088869e-06
3.0036719e-07
5.6141938e-06
1.4493633e-06
5.7610509e-06
2.7593453e-06
6.0107467e-06
3.6779712e-06
6.3763633e-06
4.2124489e-06
6.7610772e-06
4.4488047e-06
7.085072e-06
4.5188036e-06
7.321116e-06
4.4723252e-06
7.4580157e-06
4.3039116e-06
7.5200151e-06
3.9916502e-06
7.5560282e-06
3.515777e-06
7.6107011e-06
2.884066e-06
8.2589829e-06
1.6639645e-06
-6.786862e-07
9.5811834e-06
-2.958715e-07
1.4337621e-08
9.8690127e-06
-2.6370096e-07
2.2975759e-08
1.0147848e-05
-2.5546843e-07
2.5005234e-08
1.0385577e-05
-2.1832693e-07
2.2471823e-08
1.0572189e-05
-1.7380155e-07
1.6953146e-08
1.071183e-05
-1.3842412e-07
8.9139589e-09
1.0813805e-05
-1.1573958e-07
-1.6323821e-09
1.0885639e-05
-1.0593729e-07
-1.3564551e-08
1.0932291e-05
-1.1042086e-07
-2.848463e-08
1.0957868e-05
-1.3321154e-07
-4.5957923e-08
1.0966156e-05
-1.8049571e-07
-6.517684e-08
1.0961675e-05
-2.6123171e-07
-8.3715395e-08
1.0954142e-05
-3.9011127e-07
-9.5823221e-08
1.1024284e-05
-6.5088316e-07
-9.5391337e-08
1.1189618e-05
-9.7704362e-07
-6.8429081e-08
1.1432209e-05
-1.3179414e-06
-9.0979512e-09
1.1673943e-05
-1.599408e-06
8.2251036e-08
1.1861684e-05
-1.8175628e-06
1.6943414e-07
1.1984108e-05
-1.9834532e-06
2.1471561e-07
1.2045972e-05
-2.1140828e-06
2.3239478e-07
1.2071054e-05
-2.2361269e-06
2.4256372e-07
1.2084791e-05
-2.3638919e-06
2.6443111e-07
1.2096985e-05
-2.4883322e-06
3.11243e-07
1.2099664e-05
-2.5871714e-06
3.8516592e-07
1.2082969e-05
-2.6482894e-06
4.8025169e-07
1.2064634e-05
-2.6895704e-06
5.8863471e-07
1.2110613e-05
-2.7295929e-06
6.8784365e-07
1.2329611e-05
-2.7321642e-06
7.063167e-07
1.2680536e-05
-2.3849798e-06
4.6031654e-07
-1.106636e-06
-2.4390091e-07
9.2143279e-06
-2.2283098e-07
1.5985929e-08
9.3176017e-06
-3.3574971e-07
2.8130435e-08
9.4559454e-06
-3.5807526e-07
3.3082375e-08
9.6357343e-06
-3.6036463e-07
3.178595e-08
9.8502869e-06
-3.4939712e-07
2.5350697e-08
1.0084866e-05
-3.3416324e-07
1.3337243e-08
1.0329455e-05
-3.2394421e-07
-5.2038916e-09
1.0580039e-05
-3.2499853e-07
-3.1137256e-08
1.0832722e-05
-3.4445423e-07
-6.8069884e-08
1.1088602e-05
-3.9043774e-07
-1.1795106e-07
1.1351459e-05
-4.7855901e-07
-1.8345122e-07
1.1633886e-05
-6.3517562e-07
-2.6451434e-07
1.1964606e-05
-9.044799e-07
-3.5397332e-07
1.2340993e-05
-1.3551536e-06
-4.2976374e-07
1.2764565e-05
-1.9372097e-06
-4.5495667e-07
1.3111493e-05
-2.4091851e-06
-4.5821411e-07
1.3266194e-05
-2.6221457e-06
-5.2173915e-07
1.3252174e-05
-2.6990221e-06
-6.8703195e-07
1.3101855e-05
-2.6819211e-06
-9.3663955e-07
1.2848039e-05
-2.6276237e-06
-1.2214066e-06
1.253318e-05
-2.6070334e-06
-1.4907911e-06
1.2186255e-05
-2.6514921e-06
-1.701493e-06
1.1806324e-05
-2.7279664e-06
-1.8209495e-06
1.1371659e-05
-2.782074e-06
-1.829341e-06
1.0861255e-05
-2.7988713e-06
-1.7119609e-06
1.0318351e-05
-2.8628622e-06
-1.4706326e-06
9.9718399e-06
-3.0851384e-06
-1.1961791e-06
1.0312142e-05
-3.502513e-06
-1.0933872e-06
1.1905659e-05
-3.7806637e-06
-1.4582169e-06
-3.1852886e-06
-2.3428498e-06
9.274292e-06
-2.0930647e-07
1.621392e-08
9.249202e-06
-2.7815156e-07
2.8699094e-08
9.2214071e-06
-2.9193214e-07
3.4400123e-08
9.1972954e-06
-2.938887e-07
3.3983247e-08
9.1852822e-06
-2.9057245e-07
2.8262037e-08
9.1870005e-06
-2.8379982e-07
1.6504024e-08
9.2000487e-06
-2.7823999e-07
-2.7800968e-09
9.2215527e-06
-2.7894828e-07
-3.0772826e-08
9.2519288e-06
-2.9093943e-07
-7.1878551e-08
9.2863008e-06
-3.2303056e-07
-1.3061811e-07
9.3205386e-06
-3.9226374e-07
-2.1199901e-07
9.3512913e-06
-5.3011898e-07
-3.2056826e-07
9.3810326e-06
-7.9812558e-07
-4.5555505e-07
9.4369139e-06
-1.3079546e-06
-5.9303733e-07
9.4884551e-06
-1.9851215e-06
-6.5418964e-07
9.3666986e-06
-2.3706589e-06
-6.3906934e-07
8.9838301e-06
-2.2375859e-06
-6.5261987e-07
8.6173558e-06
-2.04556e-06
-7.6617381e-07
8.2439724e-06
-1.6392948e-06
-9.6741937e-07
7.8073369e-06
-1.2089481e-06
-1.2242878e-06
7.2842125e-06
-9.1707262e-07
-1.4680555e-06
6.7292444e-06
-8.0923747e-07
-1.5904998e-06
6.1811578e-06
-8.5599694e-07
-1.5143945e-06
5.6535924e-06
-1.0230363e-06
-1.2426333e-06
5.1592206e-06
-1.2641325e-06
-8.0807691e-07
4.6815121e-06
-1.5987262e-06
-3.2713735e-07
4.5274562e-06
-2.0519855e-06
-1.6100935e-07
4.9466325e-06
-2.699045e-06
-3.318307e-07
6.1728252e-06
-3.2870269e-06
-1.0837226e-06
-2.5213427e-06
-2.8479263e-06
9.0778971e-06
1.5826731e-08
8.8309729e-06
2.7829361e-08
8.5756679e-06
3.3100889e-08
8.3220607e-06
3.2300308e-08
8.0758873e-06
2.6184996e-08
7.8416747e-06
1.3909787e-08
7.6199373e-06
-5.8035788e-09
7.4079017e-06
-3.4809696e-08
7.20422e-06
-7.8028675e-08
6.9964817e-06
-1.4190214e-07
6.7665574e-06
-2.3545108e-07
6.4808832e-06
-3.7505489e-07
6.0668864e-06
-5.9394296e-07
5.3821217e-06
-9.5642458e-07
4.3884852e-06
-1.4635744e-06
3.4482379e-06
-1.8085268e-06
3.1056495e-06
-1.6006881e-06
3.0714744e-06
-5.6376425e-07
3.172587e-06
1.0160221e-06
3.366001e-06
2.2715475e-06
3.6616502e-06
2.995253e-06
3.9631119e-06
3.3335953e-06
4.1762037e-06
3.4452486e-06
4.2002878e-06
3.4207096e-06
3.9909224e-06
3.2446188e-06
3.5964384e-06
2.7828522e-06
3.1379689e-06
1.9180166e-06
2.5598625e-06
7.595927e-07
2.0359287e-06
-1.0952933e-06
-3.9264352e-06
9.5754658e-06
-2.9609798e-07
3.9651873e-09
9.8556157e-06
-2.6340167e-07
6.2603805e-09
1.0128204e-05
-2.5358062e-07
6.0438107e-09
1.0360708e-05
-2.1369235e-07
3.7184936e-09
1.0542234e-05
-1.6452214e-07
1.0473473e-11
1.0678848e-05
-1.2157049e-07
-6.0545374e-09
1.0778344e-05
-8.7744006e-08
-1.3301159e-08
1.0848808e-05
-6.1714563e-08
-2.222164e-08
1.0896147e-05
-4.2555197e-08
-3.3166815e-08
1.0927409e-05
-3.0916111e-08
-4.6191679e-08
1.0952846e-05
-2.9792675e-08
-6.0688371e-08
1.0990809e-05
-4.7199126e-08
-7.428413e-08
1.1078073e-05
-1.0237969e-07
-8.0336424e-08
1.1317486e-05
-2.6479279e-07
-6.9348989e-08
1.166032e-05
-4.0059857e-07
-1.0387024e-08
1.1982657e-05
-3.9678636e-07
6.429504e-08
1.2203524e-05
-2.8824663e-07
1.4671486e-07
1.2342326e-05
-2.0191625e-07
2.277101e-07
1.2440946e-05
-1.9978624e-07
3.0904853e-07
1.252986e-05
-2.6216257e-07
3.9681072e-07
1.2629154e-05
-3.7060302e-07
5.0325402e-07
1.2744575e-05
-5.0990615e-07
6.4685831e-07
1.2861623e-05
-6.6319739e-07
8.4430561e-07
1.2962068e-05
-8.2012753e-07
1.0911497e-06
1.3044945e-05
-9.6280731e-07
1.3460069e-06
1.3089851e-05
-1.0313539e-06
1.5600587e-06
1.2998421e-05
-9.050483e-07
1.6678833e-06
1.2548814e-05
-4.5626035e-07
1.5947216e-06
1.1165581e-05
5.8630044e-07
1.2444376e-06
2.8809272e-06
5.6210105e-07
9.2068981e-06
-2.2265399e-07
4.6131448e-09
9.2986716e-06
-3.3524164e-07
8.1982519e-09
9.4259851e-06
-3.5660882e-07
8.800509e-09
9.5948131e-06
-3.5691418e-07
6.1856529e-09
9.7970469e-06
-3.4225107e-07
8.5426477e-10
1.0018403e-05
-3.2063755e-07
-8.9404925e-09
1.0247825e-05
-3.0003261e-07
-2.232276e-08
1.0480722e-05
-2.8504998e-07
-4.0680029e-08
1.071529e-05
-2.7974255e-07
-6.5428284e-08
1.0955502e-05
-2.9133662e-07
-9.7714372e-08
1.1215128e-05
-3.3538717e-07
-1.3743729e-07
1.1528318e-05
-4.4431343e-07
-1.8049106e-07
1.1964453e-05
-6.7944549e-07
-2.1278995e-07
1.2573157e-05
-1.1019326e-06
-2.008343e-07
1.3242888e-05
-1.4088234e-06
-1.1645292e-07
1.3742833e-05
-1.3089858e-06
-4.6781409e-08
1.3999911e-05
-1.0202559e-06
-4.8184968e-08
1.4099612e-05
-8.8065214e-07
-1.0976803e-07
1.40936e-05
-9.1813869e-07
-2.143786e-07
1.3996635e-05
-1.0321818e-06
-3.5680764e-07
1.3834373e-05
-1.1927213e-06
-5.0921605e-07
1.360357e-05
-1.3711243e-06
-6.1310439e-07
1.3271038e-05
-1.538207e-06
-6.1812822e-07
1.2827513e-05
-1.6852825e-06
-5.2598853e-07
1.2343974e-05
-1.8204574e-06
-3.7562509e-07
1.1997403e-05
-1.9131495e-06
-2.4516901e-07
1.1966392e-05
-1.7840439e-06
-2.8651366e-07
1.2112835e-05
-1.1292613e-06
-5.6563119e-07
1.2083654e-05
2.2767543e-07
-1.0877984e-06
2.2916548e-06
-1.8134377e-06
9.267197e-06
-2.0930377e-07
4.6271999e-09
9.2306016e-06
-2.7819749e-07
8.2499553e-09
9.1911066e-06
-2.9167735e-07
8.9634193e-09
9.1546211e-06
-2.9281986e-07
6.374277e-09
9.1278392e-06
-2.8801113e-07
8.0421286e-10
9.1126329e-06
-2.787101e-07
-1.0216747e-08
9.1049107e-06
-2.6910053e-07
-2.5989271e-08
9.1013871e-06
-2.6353584e-07
-4.8762062e-08
9.0976026e-06
-2.6656402e-07
-8.1271054e-08
9.0896439e-06
-2.8701051e-07
-1.2698324e-07
9.0763348e-06
-3.4418189e-07
-1.8989093e-07
9.0665755e-06
-4.8286099e-07
-2.72248e-07
9.1084654e-06
-8.1048775e-07
-3.6636124e-07
9.3521601e-06
-1.5152188e-06
-4.2344464e-07
9.5615274e-06
-1.9761492e-06
-2.9815286e-07
9.4321587e-06
-1.6403368e-06
-1.8030461e-07
8.8110394e-06
-8.1262322e-07
-2.3909358e-07
8.1035713e-06
-5.5052002e-07
-3.8763883e-07
7.4855497e-06
-6.4214754e-07
-6.2367168e-07
6.8606333e-06
-6.9012485e-07
-9.3954049e-07
6.1786648e-06
-7.5578993e-07
-1.221273e-06
5.4075057e-06
-8.716638e-07
-1.3171674e-06
4.5359474e-06
-1.0640251e-06
-1.1145293e-06
3.5488019e-06
-1.2877983e-06
-6.5037577e-07
2.6614389e-06
-1.5552672e-06
-1.8408532e-07
2.3616481e-06
-1.9117434e-06
-2.438687e-08
2.9532749e-06
-2.1691142e-06
-3.603394e-07
4.3557489e-06
-1.7119259e-06
-1.1436444e-06
5.6162097e-06
-3.5155752e-08
-2.0826744e-06
1.581878e-06
-2.9449293e-06
9.0710016e-06
4.4734923e-09
8.8127608e-06
7.8723906e-09
8.5458395e-06
8.3445724e-09
8.2798223e-06
5.4973788e-09
8.0184604e-06
-4.645127e-10
7.7660353e-06
-1.2375515e-08
7.5206772e-06
-2.954618e-08
7.2774239e-06
-5.5092416e-08
7.026073e-06
-9.3241988e-08
6.7481614e-06
-1.5100141e-07
6.4094369e-06
-2.4090914e-07
5.9381676e-06
-3.8664867e-07
5.1704464e-06
-6.3671304e-07
3.7737551e-06
-1.0751569e-06
1.9078e-06
-1.5835438e-06
-4.1529729e-08
-1.5127101e-06
-1.2424919e-06
-1.2125542e-06
-1.5099413e-06
-8.4528523e-07
-1.1560007e-06
1.615882e-08
-5.114615e-07
9.3068516e-07
1.1742148e-07
1.6047976e-06
5.5037707e-07
2.0229502e-06
6.6531792e-07
2.2598799e-06
3.9721913e-07
2.394271e-06
-2.9227431e-07
2.3704915e-06
-1.3693365e-06
1.9445102e-06
-2.4055501e-06
7.8959308e-07
-2.5897251e-06
-7.4755596e-07
-1.2980814e-06
-2.3847305e-06
-3.5980411e-06
9.572145e-06
-2.9648108e-07
-2.7030023e-09
9.8479133e-06
-2.6412088e-07
-5.3541136e-09
1.0116453e-05
-2.5441573e-07
-8.0337654e-09
1.034547e-05
-2.144114e-07
-1.0826409e-08
1.0524321e-05
-1.6492932e-07
-1.3833351e-08
1.0657269e-05
-1.2161095e-07
-1.7309695e-08
1.0752757e-05
-8.7417164e-08
-2.1288447e-08
1.0818016e-05
-6.1345744e-08
-2.6052477e-08
1.0859763e-05
-4.2902079e-08
-3.1935953e-08
1.088656e-05
-3.3768711e-08
-3.9162751e-08
1.0912821e-05
-3.9400765e-08
-4.752801e-08
1.096717e-05
-7.3299115e-08
-5.5360968e-08
1.1103742e-05
-1.6063698e-07
-5.6273248e-08
1.1435481e-05
-3.5854799e-07
-4.2272364e-08
1.183586e-05
-3.8895317e-07
-2.1630016e-08
1.2139819e-05
-2.3731056e-07
-2.6761508e-09
1.2332444e-05
-5.9050737e-08
1.2294047e-08
1.2460238e-05
7.6025951e-08
2.3025033e-08
1.2574723e-05
1.6302564e-07
3.057071e-08
1.2729314e-05
2.0707203e-07
3.3997813e-08
1.2961249e-05
2.3656044e-07
3.3342617e-08
1.3264196e-05
3.1186868e-07
3.0303626e-08
1.3579458e-05
5.0193621e-07
2.5019988e-08
1.3826273e-05
8.2451125e-07
1.7292324e-08
1.3929628e-05
1.2354869e-06
4.152669e-09
1.3784837e-05
1.7104274e-06
-9.1567901e-09
1.3223935e-05
2.2386632e-06
-1.4112746e-08
1.1962947e-05
2.8550604e-06
-4.2265076e-09
9.539847e-06
3.6409417e-06
2.119007e-08
5.0185352e-06
4.9292715e-08
9.2024421e-06
-2.2277417e-07
-2.5665717e-09
9.2876012e-06
-3.3555548e-07
-5.5249565e-09
9.4078491e-06
-3.5701381e-07
-8.8460341e-09
9.5695007e-06
-3.5724083e-07
-1.2631146e-08
9.7647646e-06
-3.422939e-07
-1.7037543e-08
9.9767747e-06
-3.2012967e-07
-2.2422248e-08
1.0194798e-05
-2.9889384e-07
-2.8859032e-08
1.0413134e-05
-2.8355764e-07
-3.6794234e-08
1.0630744e-05
-2.7916006e-07
-4.6777252e-08
1.0854032e-05
-2.9570185e-07
-5.9082161e-08
1.1105211e-05
-3.5544288e-07
-7.2618652e-08
1.1439431e-05
-5.0538655e-07
-8.2706759e-08
1.1963981e-05
-8.2366228e-07
-7.4362047e-08
1.2721489e-05
-1.2756277e-06
-4.0999048e-08
1.3386163e-05
-1.1692889e-06
-7.4927904e-10
1.3833036e-05
-7.6128392e-07
3.0178754e-08
1.4137675e-05
-4.4813587e-07
3.6089883e-08
1.4363545e-05
-2.9608497e-07
3.5712215e-08
1.4522095e-05
-2.3652494e-07
2.5091111e-08
1.4666687e-05
-3.0261224e-07
4.0982441e-09
1.4862315e-05
-4.6191019e-07
-1.7867661e-08
1.5150779e-05
-5.7337219e-07
-4.3006856e-08
1.5523685e-05
-4.9044241e-07
-4.7694623e-08
1.5894627e-05
-1.1389467e-07
-2.6820508e-08
1.604629e-05
6.3535281e-07
-3.82114e-09
1.585222e-05
1.5703624e-06
1.1096466e-08
1.5108967e-05
2.5903647e-06
3.1781099e-08
1.3509171e-05
3.7486359e-06
7.6193197e-08
1.0765913e-05
5.092798e-06
1.5086558e-07
6.7697268e-06
2.342183e-07
9.262722e-06
-2.0935458e-07
-2.5539128e-09
9.2192881e-06
-2.7836609e-07
-5.5058642e-09
9.1720315e-06
-2.9189657e-07
-8.897579e-09
9.1270414e-06
-2.9299712e-07
-1.2879407e-08
9.0912988e-06
-2.880553e-07
-1.7691768e-08
9.0633231e-06
-2.7851963e-07
-2.3850899e-08
9.0388088e-06
-2.6874378e-07
-3.1624775e-08
9.0118387e-06
-2.6345694e-07
-4.1892292e-08
8.9758006e-06
-2.6839652e-07
-5.599711e-08
8.9243732e-06
-2.9569172e-07
-7.5569105e-08
8.8556172e-06
-3.7386996e-07
-1.0271753e-07
8.7889329e-06
-5.7481845e-07
-1.3615124e-07
8.8291539e-06
-1.0811763e-06
-1.490387e-07
9.3069026e-06
-2.081169e-06
-9.504728e-08
9.4248532e-06
-1.551774e-06
-3.4038028e-08
9.1235916e-06
-6.3167021e-07
-8.298498e-09
8.7663564e-06
-2.5668301e-07
-7.2021519e-08
8.257315e-06
-1.3667789e-08
-1.5953416e-07
7.6327536e-06
8.2202678e-09
-2.4294744e-07
6.8644461e-06
-1.4659682e-07
-3.2707527e-07
5.9550666e-06
-4.0432101e-07
-3.6986315e-07
5.129042e-06
-7.5170178e-07
-3.1234401e-07
4.764568e-06
-1.0765748e-06
-1.5752403e-07
5.2833826e-06
-1.2995284e-06
2.5939962e-08
6.8106921e-06
-1.1652248e-06
9.4406774e-08
8.5939588e-06
-3.8570434e-07
1.3962066e-07
9.6231847e-06
9.0163753e-07
2.6818543e-07
9.3731299e-06
2.4096566e-06
4.0097407e-07
7.8491653e-06
3.9364995e-06
5.486846e-07
5.626308e-06
6.4915799e-07
9.0665581e-06
-2.4870018e-09
8.8014103e-06
-5.3461859e-09
8.52651e-06
-8.6519526e-09
8.2515893e-06
-1.2579325e-08
7.9805007e-06
-1.7431533e-08
7.7134622e-06
-2.385685e-08
7.4475127e-06
-3.234069e-08
7.1732429e-06
-4.4279828e-08
6.8737387e-06
-6.2134543e-08
6.5171701e-06
-9.0124934e-08
6.0404925e-06
-1.3810164e-07
5.3041178e-06
-2.2507831e-07
3.9722741e-06
-3.8573235e-07
1.3436511e-06
-5.2446914e-07
-1.3052377e-06
-4.991677e-07
-3.1765652e-06
-2.758966e-07
-4.4239017e-06
-2.2182124e-07
-5.0811738e-06
-2.0022308e-07
-4.9936952e-06
-6.0629615e-08
-4.3661079e-06
1.5617698e-07
-3.5704238e-06
4.0288887e-07
-2.9310673e-06
6.2945998e-07
-2.5555557e-06
8.0583189e-07
-2.3746782e-06
9.1378672e-07
-2.0692645e-06
9.0299569e-07
-1.2487495e-06
7.4789114e-07
-3.7745868e-07
8.260831e-07
1.370371e-07
1.1345697e-06
3.954286e-07
1.2865012e-06
1.3172563e-06
9.5718555e-06
-2.9640249e-07
-9.1598865e-09
9.8472444e-06
-2.6409777e-07
-1.6612319e-08
1.0115242e-05
-2.5442995e-07
-2.1556403e-08
1.0343432e-05
-2.1449341e-07
-2.4466519e-08
1.0520736e-05
-1.6512085e-07
-2.5952951e-08
1.0651839e-05
-1.2197685e-07
-2.6369311e-08
1.0744613e-05
-8.8217821e-08
-2.5782531e-08
1.0805946e-05
-6.3171855e-08
-2.4170708e-08
1.0842651e-05
-4.7013991e-08
-2.1631283e-08
1.0864661e-05
-4.2744739e-08
-1.8542656e-08
1.0892003e-05
-5.9070242e-08
-1.6185245e-08
1.0968224e-05
-1.1568466e-07
-1.6856307e-08
1.1172043e-05
-2.3462906e-07
-2.7163039e-08
1.1565824e-05
-3.7487744e-07
-6.1959303e-08
1.1953001e-05
-2.8145935e-07
-1.262118e-07
1.2228308e-05
-8.0492532e-08
-1.946488e-07
1.2412703e-05
9.3662704e-08
-2.6288789e-07
1.2538908e-05
2.4161947e-07
-3.4190014e-07
1.2648553e-05
3.5743794e-07
-4.3358693e-07
1.2779404e-05
4.4311343e-07
-5.3697901e-07
1.2964399e-05
5.0283417e-07
-6.5132197e-07
1.3205331e-05
5.7413219e-07
-7.812404e-07
1.3452115e-05
7.1813407e-07
-9.3577217e-07
1.3639056e-05
9.5009319e-07
-1.114699e-06
1.3706733e-05
1.2432911e-06
-1.3006685e-06
1.3565081e-05
1.5947317e-06
-1.4548942e-06
1.3037567e-05
2.0316278e-06
-1.5097815e-06
1.1839092e-05
2.6004546e-06
-1.3969987e-06
9.4944998e-06
3.4138677e-06
-1.0388228e-06
4.9599261e-06
-3.8569828e-07
9.2022308e-06
-2.2276589e-07
-9.4646575e-09
9.2868358e-06
-3.3557787e-07
-1.8648554e-08
9.4061693e-06
-3.5711778e-07
-2.5488741e-08
9.566337e-06
-3.574681e-07
-2.9819528e-08
9.7588417e-06
-3.4273487e-07
-3.1922234e-08
9.9672531e-06
-3.2103377e-07
-3.177049e-08
1.017986e-05
-3.0079608e-07
-2.8884046e-08
1.0390139e-05
-2.8772475e-07
-2.2527047e-08
1.0596884e-05
-2.8851978e-07
-1.2052458e-08
1.0809125e-05
-3.1667369e-07
2.489602e-09
1.1056285e-05
-4.0415451e-07
2.499327e-08
1.1426597e-05
-6.1518558e-07
4.5749572e-08
1.2086864e-05
-1.0213216e-06
5.0867974e-08
1.2887622e-05
-1.2438929e-06
2.7420135e-08
1.3473162e-05
-8.3892691e-07
-2.7717998e-08
1.3921499e-05
-4.4776599e-07
-4.9130829e-08
1.4266496e-05
-1.9308148e-07
-1.6103517e-08
1.4515853e-05
-3.4670359e-09
4.3236814e-08
1.4702936e-05
8.6868418e-08
1.2609073e-07
1.4869454e-05
6.1706969e-08
2.4430681e-07
1.506088e-05
-6.1980591e-08
3.9160816e-07
1.5312331e-05
-2.0460947e-07
5.2930751e-07
1.558345e-05
-1.4697528e-07
5.9845796e-07
1.5797126e-05
1.8053866e-07
5.8439922e-07
1.5864745e-05
7.2372828e-07
5.0363075e-07
1.5699618e-05
1.4228768e-06
4.0092848e-07
1.5035417e-05
2.3069807e-06
4.6878808e-07
1.3596259e-05
3.3576705e-06
7.9924939e-07
1.1161329e-05
4.7258504e-06
1.3049146e-06
6.5093587e-06
1.9268461e-06
9.2624738e-06
-2.093695e-07
-9.4636131e-09
9.2184679e-06
-2.7840709e-07
-1.8671078e-08
9.1701714e-06
-2.9200044e-07
-2.5718765e-08
9.1233696e-06
-2.9320657e-07
-3.0339226e-08
9.0840382e-06
-2.8845925e-07
-3.2636095e-08
9.0508527e-06
-2.7935038e-07
-3.2348773e-08
9.0175997e-06
-2.7049934e-07
-2.8668608e-08
8.9758096e-06
-2.6739507e-07
-2.0432672e-08
8.9158611e-06
-2.7772294e-07
-6.8493751e-09
8.8241527e-06
-3.1773309e-07
1.7184443e-08
8.6928593e-06
-4.3099953e-07
5.5375365e-08
8.5697019e-06
-7.3419323e-07
1.0590405e-07
8.7677012e-06
-1.5073505e-06
1.3924493e-07
9.375027e-06
-2.0594879e-06
1.1823397e-07
9.1746877e-06
-7.258928e-07
5.4471184e-08
8.9541035e-06
-2.7354926e-07
3.5953181e-08
8.5374845e-06
5.4054745e-08
9.5187088e-08
7.905591e-06
2.1904308e-07
2.4739763e-07
7.1100744e-06
1.6931945e-07
4.6936194e-07
6.1433638e-06
-5.3252251e-08
7.5315861e-07
4.9732625e-06
-2.9452178e-07
1.0262036e-06
3.829166e-06
-5.9311532e-07
1.2101886e-06
3.1634689e-06
-8.926827e-07
1.2432482e-06
3.4587325e-06
-1.1331258e-06
1.0390502e-06
4.8366822e-06
-1.1613535e-06
6.0433658e-07
6.8480226e-06
-7.1651833e-07
2.7972003e-07
8.32476e-06
4.6085655e-07
6.5660312e-07
8.7005422e-06
1.7948875e-06
1.6086637e-06
8.0358288e-06
3.4313235e-06
2.5255291e-06
5.219464e-06
3.2800036e-06
9.0662807e-06
-9.1850576e-09
8.8005238e-06
-1.7996607e-08
8.5244935e-06
-2.4622339e-08
8.2474978e-06
-2.8790513e-08
7.9721729e-06
-3.056619e-08
7.6985904e-06
-2.9624925e-08
7.4207629e-06
-2.5012755e-08
7.1244897e-06
-1.5401846e-08
6.7849939e-06
-3.6154537e-10
6.3423465e-06
3.4790022e-08
5.6783573e-06
9.4894311e-08
4.5139565e-06
2.0524301e-07
2.2053081e-06
4.177636e-07
-1.1584604e-06
8.0785071e-07
-3.5121995e-06
1.1294764e-06
-5.0174612e-06
9.5075036e-07
-6.0299445e-06
8.3750273e-07
-6.5769431e-06
5.6091514e-07
-6.4630622e-06
-8.1852921e-09
-5.9224049e-06
-4.3844449e-07
-5.1418807e-06
-6.7248417e-07
-4.3649843e-06
-7.4072569e-07
-3.6959664e-06
-7.5566676e-07
-3.126688e-06
-7.878175e-07
-2.5551063e-06
-8.283397e-07
-1.7623625e-06
-7.583361e-07
-9.5036162e-07
4.777927e-07
6.3088724e-08
1.9167158e-06
1.4208144e-06
3.3761922e-06
4.3560684e-06
9.5745054e-06
-2.9597865e-07
-1.8689689e-08
9.8533601e-06
-2.6358027e-07
-3.1853009e-08
1.0124193e-05
-2.539687e-07
-3.8375051e-08
1.0354421e-05
-2.1429245e-07
-4.0347915e-08
1.0533395e-05
-1.6538933e-07
-3.9478328e-08
1.0666337e-05
-1.2280958e-07
-3.6439597e-08
1.0761533e-05
-8.9480593e-08
-3.1437868e-08
1.0826769e-05
-6.4308017e-08
-2.5047881e-08
1.0868497e-05
-4.6931335e-08
-1.6405035e-08
1.0893032e-05
-3.9499251e-08
-3.6253084e-09
1.0914864e-05
-4.6949701e-08
8.7668959e-09
1.0959966e-05
-8.1797253e-08
1.9416971e-08
1.1076967e-05
-1.6840154e-07
2.3380253e-08
1.1365093e-05
-3.6186399e-07
1.0798779e-08
1.1729546e-05
-4.3920352e-07
-5.1682379e-08
1.2019989e-05
-3.2458652e-07
-1.5957831e-07
1.2191785e-05
-1.6655031e-07
-2.6618356e-07
1.2289739e-05
-9.3600403e-08
-3.4361934e-07
1.2362105e-05
-1.1784254e-07
-3.8500701e-07
1.2446516e-05
-2.2014303e-07
-3.9772703e-07
1.2566244e-05
-3.7205194e-07
-3.950119e-07
1.2712913e-05
-5.3067978e-07
-3.9259145e-07
1.284802e-05
-6.6042298e-07
-4.0478269e-07
1.2936453e-05
-7.6054629e-07
-4.3546911e-07
1.2977268e-05