/*--------------------------------*- C++ -*----------------------------------*\
| =========                 |                                                 |
| \\      /  F ield         | OpenFOAM: The Open Source CFD Toolbox           |
|  \\    /   O peration     | Version:  v2012                                 |
|   \\  /    A nd           | Website:  www.openfoam.com                      |
|    \\/     M anipulation  |                                                 |
\*---------------------------------------------------------------------------*/
FoamFile
{
    version     2.0;
    format      ascii;
    class       volVectorField;
    location    "380/topAir";
    object      U;
}
// * * * * * * * * * * * * * * * * * * * * * * * * * * * * * * * * * * * * * //

dimensions      [0 1 -1 0 0 0 0];


internalField   nonuniform List<vector> 
1200
(
(0.10420092 -0.0023564972 0.00086855366)
(0.11719032 -0.0024632777 0.001298323)
(0.12836762 -0.0022788481 0.0013726137)
(0.13708397 -0.0017641156 0.0012336384)
(0.14469268 -0.0009795708 0.00089689517)
(0.15180368 -8.9198947e-05 0.00032477763)
(0.15865846 0.00081298882 -0.00050670031)
(0.16551335 0.001654213 -0.0017386905)
(0.1725353 0.0025183305 -0.0036239624)
(0.18000274 0.0035760516 -0.0064528034)
(0.18808101 0.0051401223 -0.010602613)
(0.19648005 0.0075758137 -0.016469527)
(0.2038614 0.011303168 -0.024324336)
(0.20879543 0.015861344 -0.034084182)
(0.211241 0.021056523 -0.045126673)
(0.21178812 0.026116902 -0.056382251)
(0.21083415 0.030424927 -0.06664541)
(0.20862576 0.03372832 -0.075051722)
(0.20544613 0.035973391 -0.08129094)
(0.20177971 0.037165368 -0.085472186)
(0.19828244 0.037392799 -0.087915224)
(0.19556288 0.03686673 -0.088973674)
(0.19397909 0.035823619 -0.088941354)
(0.19359929 0.034463715 -0.088022423)
(0.19424451 0.032962657 -0.086324926)
(0.19546575 0.031552502 -0.083820735)
(0.19632552 0.030652904 -0.080251682)
(0.19491214 0.031127114 -0.07502006)
(0.1877445 0.034994826 -0.067092097)
(0.14719739 0.048381634 -0.054323638)
(0.098700644 -0.0037416231 0.00084564697)
(0.098463916 -0.0045634613 0.0012737495)
(0.098826054 -0.0046390652 0.0014508338)
(0.099614869 -0.0042038639 0.0015300098)
(0.10092599 -0.0034428179 0.0015397898)
(0.10279299 -0.0025943932 0.0014672033)
(0.10519248 -0.0018119313 0.0012906618)
(0.10823698 -0.0011859458 0.00095808696)
(0.1124027 -0.00040780573 0.00035109081)
(0.11815087 0.00087676393 -0.00068857133)
(0.12635409 0.0034618291 -0.002458678)
(0.13728156 0.0083538441 -0.00533013)
(0.15072591 0.016437844 -0.0098204147)
(0.16506154 0.026854893 -0.016127932)
(0.17840832 0.038898884 -0.02392301)
(0.18932176 0.050995791 -0.03225305)
(0.19695152 0.062023969 -0.040033124)
(0.20099799 0.07144857 -0.046611691)
(0.20178095 0.078822627 -0.051824716)
(0.20023382 0.083763741 -0.055747242)
(0.19762269 0.086233557 -0.058507279)
(0.19502777 0.086683325 -0.060160174)
(0.19304516 0.08570451 -0.060751906)
(0.19186576 0.083784512 -0.060353996)
(0.19143802 0.081261593 -0.059023127)
(0.19150497 0.078532038 -0.056675029)
(0.1914218 0.076358441 -0.05288214)
(0.18987136 0.076338163 -0.046649751)
(0.18544245 0.081860441 -0.035840449)
(0.15697659 0.097923218 -0.015474453)
(0.098838464 -0.0028531977 0.00087221202)
(0.098041738 -0.0041338456 0.0013212134)
(0.096470812 -0.0045338411 0.0015189559)
(0.094478303 -0.0046170627 0.0016356981)
(0.092526866 -0.0045702738 0.0017241704)
(0.09079839 -0.0044776878 0.0017969087)
(0.089283488 -0.0044364846 0.0018714899)
(0.087910186 -0.0045123374 0.0019862706)
(0.08671127 -0.0045274825 0.0022067746)
(0.085963009 -0.0043793812 0.002570453)
(0.086138317 -0.0038107638 0.0030251243)
(0.089142609 -0.0013733786 0.0031880395)
(0.098090009 0.005866223 0.0024177363)
(0.11229759 0.019120317 0.00047961635)
(0.12958972 0.03635128 -0.0027087022)
(0.14670956 0.054538487 -0.0062088772)
(0.16138 0.071036511 -0.0090917275)
(0.17220987 0.084474882 -0.011113592)
(0.17894173 0.094689522 -0.012503273)
(0.18236727 0.10170177 -0.013702312)
(0.18383801 0.10563504 -0.015029275)
(0.18447062 0.1067967 -0.016400518)
(0.1847173 0.10571215 -0.017396702)
(0.18458817 0.10292184 -0.017757597)
(0.18401307 0.098878866 -0.017304451)
(0.1829596 0.094024122 -0.0159221)
(0.18122913 0.089064967 -0.013293418)
(0.17838892 0.08564336 -0.008825235)
(0.17488057 0.08751718 -0.001339446)
(0.1563133 0.10119751 0.012169549)
(0.096875153 -0.0015383083 0.0008380503)
(0.0947002 -0.0022694908 0.0012490586)
(0.091047599 -0.0024919303 0.0014081727)
(0.086569093 -0.002523196 0.0014843513)
(0.082078312 -0.002462853 0.0015338697)
(0.077820393 -0.002340273 0.0015729863)
(0.073760434 -0.0021932664 0.001625194)
(0.069803074 -0.0020602458 0.0017344514)
(0.065821402 -0.0019702735 0.0019740788)
(0.061605929 -0.002070687 0.0024565292)
(0.056755602 -0.0028030019 0.0033993751)
(0.050869921 -0.0041772971 0.0052219186)
(0.043252294 -0.0043628506 0.0085522401)
(0.039137762 0.0024463611 0.013157368)
(0.044778483 0.01780697 0.018337291)
(0.05856055 0.035244014 0.023613736)
(0.074743803 0.049990161 0.028955146)
(0.090050465 0.061422705 0.034296017)
(0.10322159 0.070060219 0.039199177)
(0.11420405 0.076197216 0.042933036)
(0.12348991 0.079905484 0.045325791)
(0.13148907 0.081144968 0.046577976)
(0.13824308 0.08016732 0.046895108)
(0.14350258 0.077412457 0.04653341)
(0.14706182 0.073405492 0.045813241)
(0.14885938 0.068641796 0.045094495)
(0.14913506 0.063713612 0.044728426)
(0.14881677 0.059899048 0.044843412)
(0.15206516 0.060171918 0.044981858)
(0.17117111 0.070679437 0.044598026)
(0.10545975 -0.0023562026 0.00099182763)
(0.11930004 -0.0024714714 0.0013771161)
(0.13172618 -0.0023717684 0.0013629458)
(0.1417856 -0.0020345988 0.0011219448)
(0.15055539 -0.0015263244 0.0006764626)
(0.15859053 -0.0010191312 -1.1797536e-05)
(0.16590711 -0.0006553466 -0.00099498895)
(0.17242753 -0.00049882131 -0.0024139701)
(0.17813408 -0.00061344868 -0.0045091289)
(0.18301179 -0.0010640677 -0.0075474311)
(0.18699637 -0.0019630734 -0.011857667)
(0.18998661 -0.0034208762 -0.017730829)
(0.1914662 -0.0055127681 -0.025249702)
(0.19116032 -0.0087799073 -0.033988603)
(0.19046466 -0.012653653 -0.043011708)
(0.19074069 -0.0165173 -0.051134116)
(0.19216012 -0.019485081 -0.057576595)
(0.19391498 -0.021023586 -0.062342557)
(0.19508068 -0.02134822 -0.065799109)
(0.19526781 -0.021137126 -0.068247524)
(0.19471438 -0.020977607 -0.069842685)
(0.19399637 -0.021003657 -0.070681939)
(0.19362287 -0.021147728 -0.07080986)
(0.19387038 -0.02134402 -0.07021411)
(0.19484442 -0.021553202 -0.068841589)
(0.19660583 -0.02165492 -0.066577775)
(0.19915248 -0.021199012 -0.063143039)
(0.20225606 -0.018976711 -0.057984732)
(0.20527751 -0.01142438 -0.050328887)
(0.19802288 0.011865503 -0.03965722)
(0.099990841 -0.0037513355 0.0010503633)
(0.1006953 -0.004606844 0.0015877012)
(0.10244296 -0.0048142059 0.0017760362)
(0.10479479 -0.0046261804 0.0018118999)
(0.10758489 -0.0042308204 0.0017394414)
(0.11076019 -0.0038691478 0.0015393323)
(0.11423134 -0.0037319519 0.0011731085)
(0.11791317 -0.0039232474 0.00057327554)
(0.12180022 -0.0045538558 -0.00037250825)
(0.12584955 -0.0057778672 -0.0018129278)
(0.13005053 -0.0077997334 -0.0039243195)
(0.13445502 -0.010813524 -0.0069287151)
(0.13917106 -0.014988824 -0.011012478)
(0.14419352 -0.020873849 -0.015897222)
(0.14968117 -0.027567433 -0.020718411)
(0.1557216 -0.033536338 -0.024285731)
(0.16183304 -0.036768383 -0.026142477)
(0.16699311 -0.036413427 -0.027118649)
(0.17032278 -0.033301677 -0.028163685)
(0.17169687 -0.029192436 -0.029686445)
(0.1718005 -0.025655811 -0.031558744)
(0.17152719 -0.023103042 -0.033486475)
(0.1713163 -0.021355274 -0.035053457)
(0.17121652 -0.020276335 -0.035716559)
(0.17129045 -0.019880632 -0.034945961)
(0.17204581 -0.020326259 -0.032303564)
(0.17460145 -0.021469757 -0.027324375)
(0.18134039 -0.022655422 -0.019124231)
(0.19826779 -0.022050893 -0.0061055224)
(0.25678949 -0.013048908 0.0099657663)
(0.10013863 -0.0028808933 0.001070653)
(0.10029718 -0.004185977 0.0016341941)
(0.10017157 -0.0046277917 0.0018682712)
(0.099882767 -0.0047860063 0.0019772593)
(0.099643188 -0.0048517207 0.0020227788)
(0.099569597 -0.0049093756 0.0020079663)
(0.099675809 -0.0050418283 0.0019336954)
(0.099938193 -0.0053384407 0.0018138359)
(0.10034177 -0.0059122539 0.0016769542)
(0.10091169 -0.0069790261 0.0015126546)
(0.10173169 -0.0088103524 0.0011957349)
(0.10295908 -0.011760722 0.00050444368)
(0.10481498 -0.016316954 -0.00057101997)
(0.10738509 -0.023073962 -0.0015803184)
(0.11089709 -0.031162946 -0.0015002019)
(0.11541762 -0.038458761 0.0017616752)
(0.12129448 -0.041488797 0.0089744893)
(0.12787875 -0.039135438 0.01738936)
(0.13365228 -0.033484335 0.024752384)
(0.13759688 -0.027491674 0.029811382)
(0.13975869 -0.022958916 0.032623091)
(0.14082927 -0.018950894 0.035403066)
(0.14258123 -0.015944243 0.038326684)
(0.14506944 -0.014145264 0.041511651)
(0.14685532 -0.014304019 0.043834908)
(0.14797985 -0.016461928 0.04526018)
(0.14843757 -0.019759255 0.046434024)
(0.14945095 -0.023994294 0.04780807)
(0.15515959 -0.02938007 0.051088454)
(0.18369423 -0.035779834 0.056339748)
(0.09811902 -0.0015650524 0.0010458391)
(0.096841178 -0.0023252214 0.0015909607)
(0.094562535 -0.0025799245 0.0018112623)
(0.091707853 -0.0026554814 0.0019034647)
(0.088846389 -0.0026547555 0.0019289349)
(0.086169639 -0.0026096406 0.0018949652)
(0.083677783 -0.0025601899 0.0018101513)
(0.081339287 -0.0025573374 0.0016969911)
(0.079112086 -0.002669665 0.0015994309)
(0.076950714 -0.0030167917 0.0015913545)
(0.07477428 -0.0038154268 0.0017906331)
(0.072399083 -0.0054311843 0.0024113075)
(0.06945658 -0.0082958105 0.0036774688)
(0.065682276 -0.012335558 0.0060338096)
(0.061577107 -0.015934942 0.011380329)
(0.058964679 -0.015602109 0.023216926)
(0.060722613 -0.0084222803 0.043795212)
(0.065419138 0.002776118 0.065191078)
(0.070621547 0.014681228 0.082947433)
(0.075745161 0.024898947 0.095939833)
(0.081691934 0.032427761 0.10455445)
(0.088921134 0.035824004 0.10845998)
(0.095481829 0.036096093 0.10977127)
(0.10084372 0.033901091 0.10919992)
(0.10473937 0.030011329 0.10701747)
(0.10709314 0.025214947 0.10318167)
(0.10870561 0.019226411 0.096870587)
(0.10982975 0.012792751 0.08881033)
(0.11470508 0.0063742886 0.080156037)
(0.1479686 0.0014223154 0.065686342)
(0.10533247 -0.0023755015 0.00032984866)
(0.11896839 -0.0024897714 0.00052821422)
(0.13129798 -0.0023659759 0.00058735702)
(0.14137083 -0.0019835842 0.00055075382)
(0.15020137 -0.0014195819 0.00044448954)
(0.15825564 -0.00085526528 0.00027015192)
(0.16556451 -0.00039504587 -2.0911803e-06)
(0.17211179 -7.5014532e-05 -0.00038654443)
(0.17790689 8.5986032e-05 -0.00089496387)
(0.18293514 5.2891883e-05 -0.0015507142)
(0.18713221 -0.00023007628 -0.0023785428)
(0.19036459 -0.00084861243 -0.0033814368)
(0.1919622 -0.0019422137 -0.0045019072)
(0.19141078 -0.0043241184 -0.0056379635)
(0.19006712 -0.0076691699 -0.0064707756)
(0.18922975 -0.011574323 -0.0068422789)
(0.18892842 -0.015482283 -0.0071813284)
(0.18835217 -0.01926067 -0.0082396745)
(0.18710182 -0.022786127 -0.010306096)
(0.18530024 -0.02602287 -0.013109376)
(0.18326186 -0.029090204 -0.016157472)
(0.18136601 -0.032066829 -0.019010579)
(0.17991579 -0.034833172 -0.021317052)
(0.17898946 -0.037143911 -0.022816374)
(0.17848796 -0.038864945 -0.023328027)
(0.17835374 -0.040157353 -0.022716518)
(0.17898995 -0.041282279 -0.021010435)
(0.18167026 -0.041810765 -0.019201907)
(0.18831791 -0.03808962 -0.020543147)
(0.1983164 -0.02020957 -0.026597085)
(0.099868671 -0.0037629184 0.00033320422)
(0.10034178 -0.0046073065 0.00055802578)
(0.10196212 -0.004775398 0.00064440098)
(0.1043015 -0.0045220762 0.00062893285)
(0.10711292 -0.0040451276 0.00052616161)
(0.11028421 -0.0035896367 0.00031980518)
(0.11370104 -0.0032910269 -2.078926e-05)
(0.11726971 -0.0032061058 -0.00053347108)
(0.12092979 -0.003395485 -0.00126047)
(0.12464575 -0.0039474617 -0.0022922326)
(0.12840836 -0.0050153141 -0.0037185275)
(0.13225217 -0.0068481993 -0.0056234647)
(0.13630616 -0.0098572134 -0.0080189342)
(0.14056381 -0.015135728 -0.010708594)
(0.14498116 -0.02198432 -0.013268666)
(0.14924752 -0.028441433 -0.015816901)
(0.15239631 -0.032891282 -0.019184485)
(0.15363602 -0.035789982 -0.023781048)
(0.15327445 -0.037432288 -0.029173744)
(0.15177461 -0.038264333 -0.034712666)
(0.1494962 -0.038973659 -0.039784497)
(0.14679503 -0.040079737 -0.043888973)
(0.1439417 -0.041567439 -0.046540853)
(0.1408783 -0.043056414 -0.047341066)
(0.13742508 -0.044388682 -0.045944439)
(0.13335924 -0.046141461 -0.042184727)
(0.12988016 -0.049240106 -0.035924619)
(0.13169619 -0.053519041 -0.029449403)
(0.14698825 -0.053233478 -0.033282062)
(0.19936622 -0.035896906 -0.054419912)
(0.10002076 -0.0028759849 0.00033832739)
(0.099959324 -0.0041751579 0.00057020487)
(0.099714894 -0.0045977227 0.00067195768)
(0.099425718 -0.0047248267 0.00067705657)
(0.099235173 -0.0047467897 0.00059768702)
(0.099215304 -0.0047398081 0.00041699264)
(0.099361401 -0.0047665153 0.00010649645)
(0.09963362 -0.0048908005 -0.00037471819)
(0.10000979 -0.0052033629 -0.0010818763)
(0.10047163 -0.0058327735 -0.0020891268)
(0.10097894 -0.0070135636 -0.0035123699)
(0.10149603 -0.0091609011 -0.0055152713)
(0.10204741 -0.012997655 -0.0082420034)
(0.10272579 -0.01962573 -0.011632457)
(0.10331994 -0.028269391 -0.01514721)
(0.10326869 -0.035021574 -0.01872733)
(0.10181578 -0.037275815 -0.022230982)
(0.099144606 -0.037370914 -0.024555916)
(0.096372532 -0.036192156 -0.026456649)
(0.093158393 -0.035031621 -0.02973735)
(0.088989216 -0.034979513 -0.033714862)
(0.08385617 -0.036320773 -0.036586045)
(0.078433988 -0.038638279 -0.036848979)
(0.073000266 -0.041249799 -0.033567828)
(0.068631896 -0.043487216 -0.026025633)
(0.064499009 -0.046451675 -0.015621481)
(0.061913161 -0.051450831 -0.0026387512)
(0.065771377 -0.059644131 0.0066545084)
(0.07624006 -0.067015144 -0.0088847826)
(0.11297257 -0.059636203 -0.059698642)
(0.098003561 -0.00156014 0.00032985789)
(0.096509314 -0.0023152813 0.00055133668)
(0.094114014 -0.002562003 0.00064428391)
(0.09125892 -0.0026275031 0.00064173706)
(0.088446527 -0.0026137653 0.00055598722)
(0.08582478 -0.0025497728 0.0003705436)
(0.083375664 -0.002469995 5.7710109e-05)
(0.08105397 -0.0024165183 -0.00042306293)
(0.078829643 -0.0024406945 -0.0011263533)
(0.076643072 -0.0026233369 -0.0021218769)
(0.074348316 -0.0031223489 -0.0035423439)
(0.071694394 -0.0042655368 -0.0056300401)
(0.068197729 -0.0067826341 -0.0088580543)
(0.063044627 -0.01223047 -0.014176445)
(0.054520531 -0.019999404 -0.022311768)
(0.043311076 -0.02386895 -0.030290649)
(0.033280595 -0.020042853 -0.02785415)
(0.035144498 -0.015614576 -0.0016691616)
(0.038852944 -0.0061794849 0.034279322)
(0.041078378 0.0047758499 0.06115566)
(0.045141082 0.013495708 0.077874514)
(0.050419429 0.018369711 0.086633518)
(0.055108918 0.019695789 0.090530325)
(0.057859241 0.01784693 0.091067385)
(0.057638339 0.0132559 0.088516153)
(0.054163614 0.0062498821 0.082927055)
(0.048517816 -0.0032408979 0.073717575)
(0.044132943 -0.015963068 0.058668545)
(0.03178803 -0.02788357 0.012296344)
(0.038605498 -0.010893345 -0.087065019)
(0.10530054 -0.0023764022 0.00015474285)
(0.11885224 -0.0024866163 0.00026566607)
(0.13108984 -0.0023498196 0.00030972699)
(0.14109003 -0.0019396938 0.00028909396)
(0.14987239 -0.0013233688 0.00021031668)
(0.15791971 -0.0006690808 7.5900914e-05)
(0.16528489 -7.1375596e-05 -0.00011315016)
(0.17197585 0.00045222363 -0.000358568)
(0.17805045 0.00091053833 -0.00066373423)
(0.18358344 0.0013122678 -0.0010230107)
(0.18866185 0.0016544913 -0.0014035635)
(0.19339145 0.0019046412 -0.0017085724)
(0.19738141 0.0019590887 -0.0017064966)
(0.20049871 0.0010780001 -0.0010567485)
(0.20432281 0.00036149094 0.00085439749)
(0.20944527 0.00068598715 0.0042377885)
(0.21450052 0.0016580429 0.0083642968)
(0.2183245 0.0023378782 0.012538019)
(0.22091959 0.0023411833 0.016521486)
(0.22278947 0.0017209482 0.020372134)
(0.22429594 0.00051536105 0.024324825)
(0.22555339 -0.0012391725 0.028674561)
(0.226449 -0.0034606469 0.03361111)
(0.22672895 -0.0060604868 0.038996045)
(0.22634623 -0.0087677207 0.044317166)
(0.22555107 -0.010815889 0.048822402)
(0.22439049 -0.010884515 0.051471915)
(0.22177521 -0.0073612466 0.050925733)
(0.21249384 0.0027260244 0.043417942)
(0.1485182 0.03261772 0.022113006)
(0.099839041 -0.0037639434 0.00016198317)
(0.10021305 -0.0046029473 0.00029024059)
(0.10170289 -0.0047518113 0.00034790361)
(0.10391583 -0.0044572645 0.00032994403)
(0.10660259 -0.0039040236 0.00023881157)
(0.10964033 -0.0033192003 6.9819639e-05)
(0.11291043 -0.0028209468 -0.0001928209)
(0.11631744 -0.0024378991 -0.00057275269)
(0.11981226 -0.0021834432 -0.001103243)
(0.12339479 -0.0021033262 -0.0018154934)
(0.12713758 -0.0023202946 -0.0027245303)
(0.13125386 -0.0031076118 -0.0037793649)
(0.13620126 -0.0050066825 -0.0047579627)
(0.14238988 -0.0090775505 -0.0051166821)
(0.14986655 -0.012453267 -0.0041682712)
(0.15747599 -0.012265925 -0.0026765746)
(0.16329712 -0.0097687021 -0.0021294597)
(0.16640392 -0.0081389894 -0.0033165695)
(0.16753207 -0.0083841902 -0.0061535452)
(0.1676459 -0.0098722225 -0.010115861)
(0.16710764 -0.01208129 -0.01436762)
(0.1660434 -0.014677437 -0.017832021)
(0.16435239 -0.01736904 -0.01953471)
(0.16179464 -0.019987058 -0.019147587)
(0.15827762 -0.02251235 -0.016879624)
(0.15479622 -0.024228587 -0.014216028)
(0.15441241 -0.022632067 -0.014662344)
(0.15987375 -0.013349662 -0.021382035)
(0.1748483 0.0093663466 -0.034137478)
(0.17987056 0.050234902 -0.051283285)
(0.099992294 -0.0028733749 0.00016327956)
(0.099835131 -0.004169846 0.00029261072)
(0.09945891 -0.0045839519 0.00035405092)
(0.099033093 -0.0046935016 0.00033960487)
(0.098697333 -0.0046848569 0.00024749307)
(0.098509694 -0.0046266715 6.8170394e-05)
(0.098454239 -0.004569145 -0.00022134145)
(0.098482742 -0.0045593312 -0.00065431808)
(0.098547355 -0.00466228 -0.0012767783)
(0.098606435 -0.005000828 -0.0021589103)
(0.098641202 -0.0058362987 -0.003378261)
(0.098726342 -0.0077235971 -0.0049814283)
(0.099272803 -0.011777301 -0.0068533318)
(0.10078319 -0.019443738 -0.0083566608)
(0.1027934 -0.025668535 -0.0080469075)
(0.10432779 -0.025250133 -0.0063311434)
(0.10374083 -0.020179923 -0.0050273414)
(0.097657953 -0.016157868 -0.0068732033)
(0.089354496 -0.015396513 -0.011470329)
(0.082577097 -0.017076872 -0.017078196)
(0.076340635 -0.020406894 -0.022060716)
(0.069246908 -0.024471333 -0.024333359)
(0.060833875 -0.028689587 -0.021981454)
(0.051281773 -0.03253991 -0.014382296)
(0.040574715 -0.036042699 -0.0036965992)
(0.031241603 -0.039141621 0.0018951754)
(0.03172727 -0.039140274 -0.008025972)
(0.046277182 -0.029740294 -0.030175915)
(0.07727278 -0.0068829403 -0.055113862)
(0.096284372 0.032060543 -0.081800356)
(0.097975573 -0.0015618466 0.00015895206)
(0.096387973 -0.0023192133 0.00028234715)
(0.093863555 -0.0025658614 0.00033765983)
(0.090872455 -0.0026276887 0.0003165632)
(0.087912549 -0.0026054369 0.00021636357)
(0.085114773 -0.002525587 2.6182051e-05)
(0.082444076 -0.0024192147 -0.00028131743)
(0.079833382 -0.0023245375 -0.00074794155)
(0.077199162 -0.0022906045 -0.0014384334)
(0.074401777 -0.0024032927 -0.0024688705)
(0.07118745 -0.0028570472 -0.0040267767)
(0.06706893 -0.0041418296 -0.00644757)
(0.061019153 -0.0076014676 -0.010430661)
(0.051469313 -0.016081824 -0.017312928)
(0.032769088 -0.021422879 -0.027320233)
(0.01077668 -0.014500382 -0.032584723)
(-0.012788715 0.00064873304 -0.027712361)
(-0.022100848 0.0010728501 -0.016958827)
(-0.015602178 -0.0030135412 0.0055824899)
(-0.0096538949 -0.00089822023 0.029444221)
(-0.0018797625 0.0023522989 0.045021786)
(0.0052579375 0.0041747008 0.053850615)
(0.0089044871 0.0034153507 0.057938924)
(0.0085698603 0.00068903709 0.059623287)
(0.0030586153 -0.004698123 0.057741414)
(-0.010899331 -0.014008644 0.044961579)
(-0.030244296 -0.021162821 0.013775117)
(-0.043362398 -0.012359779 -0.031526978)
(-0.037261832 0.016577251 -0.07247655)
(0.00073150914 0.049813542 -0.10457986)
(0.10528026 -0.0023797386 6.2489676e-06)
(0.11878153 -0.0024936671 -5.3514793e-06)
(0.13095777 -0.0023596371 -4.2918248e-05)
(0.14089922 -0.001950531 -0.00010725655)
(0.1496319 -0.0013328189 -0.00019729158)
(0.15763054 -0.00067586013 -0.00031298813)
(0.16493794 -7.5333629e-05 -0.00046108802)
(0.17155667 0.00044726613 -0.00065035546)
(0.17754174 0.00089543967 -0.00089469887)
(0.18297545 0.0012669024 -0.0012061338)
(0.18796848 0.0015368795 -0.001582311)
(0.19268683 0.001634255 -0.0019711001)
(0.19677256 0.0014217347 -0.0021863795)
(0.20026617 0.00023941825 -0.0018633376)
(0.20515134 0.00014542228 -0.00075500797)
(0.21124453 0.001219655 0.00068719379)
(0.21692695 0.0024975102 0.0019216268)
(0.22149216 0.0037074291 0.0029344726)
(0.2254879 0.005000397 0.0039737631)
(0.22987106 0.006363682 0.0053024371)
(0.23543276 0.0077770821 0.0071795737)
(0.24242292 0.009534811 0.0099353882)
(0.25017113 0.01206546 0.013884984)
(0.25719885 0.015298778 0.019051497)
(0.26182996 0.019034362 0.024987899)
(0.26243329 0.023343454 0.030782084)
(0.25693173 0.028742255 0.035059696)
(0.24206614 0.036383839 0.035994258)
(0.21407263 0.048438906 0.030864791)
(0.11464911 0.074314902 0.017211769)
(0.099820042 -0.0037676837 1.1231663e-05)
(0.10013722 -0.0046107555 5.7242167e-06)
(0.10154861 -0.0047617109 -2.8469476e-05)
(0.10367968 -0.0044660987 -9.5064767e-05)
(0.10628744 -0.0039079646 -0.00019487101)
(0.10923792 -0.0033151169 -0.00033034671)
(0.11239733 -0.0028077301 -0.00051223792)
(0.11566202 -0.0024200706 -0.00075583364)
(0.11898177 -0.0021765925 -0.0010816295)
(0.12237104 -0.0021514342 -0.0015063861)
(0.12595511 -0.0025319575 -0.0020215236)
(0.13008779 -0.0037189806 -0.0025419094)
(0.13550159 -0.0063777378 -0.0027672004)
(0.14267077 -0.010844392 -0.0020328772)
(0.15154858 -0.010682658 -0.00027013136)
(0.15967072 -0.006843052 0.0009482624)
(0.16545189 -0.0031357892 0.00093774259)
(0.16987046 -0.00090458509 0.00019199638)
(0.17396732 -0.00017104144 -0.00088483201)
(0.17793336 -0.00038949257 -0.0022816225)
(0.18217223 -0.00075198309 -0.0039191442)
(0.18777898 -5.0280107e-05 -0.0051314981)
(0.19622928 0.0033722889 -0.0049035919)
(0.20869134 0.011029038 -0.0029020677)
(0.22071396 0.022207362 0.00019751359)
(0.23019257 0.035544092 0.0035985291)
(0.23416416 0.050941532 0.0061638933)
(0.22792595 0.069373951 0.0061804347)
(0.20901165 0.092418904 0.0013390407)
(0.13110067 0.12604802 -0.011714912)
(0.099973135 -0.0028741615 1.1064728e-05)
(0.09975897 -0.0041725375 5.2987868e-06)
(0.099300889 -0.0045875447 -2.943794e-05)
(0.098783717 -0.004696154 -9.8492808e-05)
(0.098352528 -0.0046845706 -0.00020528571)
(0.098051332 -0.0046210053 -0.0003557166)
(0.097842318 -0.0045579688 -0.00056692051)
(0.097658583 -0.0045470464 -0.00086527472)
(0.097430349 -0.0046671435 -0.0012914966)
(0.09709394 -0.0050832924 -0.0018992731)
(0.096627688 -0.0061686514 -0.0027559644)
(0.096221173 -0.0087540616 -0.0038947166)
(0.096743132 -0.014496943 -0.0051035187)
(0.097986206 -0.024345887 -0.0053267316)
(0.10114314 -0.023776446 -0.0027610536)
(0.10449707 -0.017460314 -0.00058174145)
(0.10232462 -0.011532585 -0.0018917071)
(0.097833319 -0.0066822435 -0.0050339584)
(0.091508314 -0.0039930554 -0.0091559767)
(0.083871947 -0.0048519726 -0.01419396)
(0.074956034 -0.0087158643 -0.018722787)
(0.06529026 -0.013219907 -0.020538876)
(0.058049623 -0.016121828 -0.018405167)
(0.058137779 -0.015063898 -0.012667065)
(0.074991123 -0.006831466 -0.0064570156)
(0.1041309 0.0092248754 -0.0041368626)
(0.12833136 0.030098509 -0.0032483841)
(0.14039737 0.054759632 -0.0054781712)
(0.14019203 0.085578881 -0.012730104)
(0.092363759 0.12662473 -0.025481278)
(0.097956428 -0.0015620124 1.0528256e-05)
(0.096311874 -0.0023197503 3.9782497e-06)
(0.093704725 -0.0025663454 -3.1921987e-05)
(0.090619056 -0.0026276078 -0.00010314825)
(0.087557708 -0.0026042569 -0.0002143019)
(0.084633606 -0.0025225448 -0.00037369682)
(0.081780947 -0.0024150058 -0.00060467057)
(0.078900805 -0.0023231688 -0.00094654466)
(0.075855475 -0.002305941 -0.0014680918)
(0.072406331 -0.0024806792 -0.0022866796)
(0.068099442 -0.0031386498 -0.0036454087)
(0.061993157 -0.005084764 -0.0060349276)
(0.052133522 -0.010679992 -0.010451748)
(0.035501165 -0.023077178 -0.017391452)
(-0.0031538186 -0.013167525 -0.024115866)
(-0.032754039 0.0038862764 -0.01910617)
(-0.05109231 0.0067266749 -0.015301585)
(-0.063468902 0.0065232043 -0.011667551)
(-0.066688533 0.0033622084 -0.0044378218)
(-0.060166998 -0.0013262335 0.0071107806)
(-0.051149141 -0.0050181037 0.017497459)
(-0.042352912 -0.008276733 0.02538131)
(-0.036372 -0.012531241 0.031054234)
(-0.033036894 -0.017426561 0.034686923)
(-0.031067271 -0.020085994 0.034591539)
(-0.030596784 -0.015457833 0.027924909)
(-0.011490692 0.010654068 0.013487165)
(-0.00060897364 0.04394482 0.004394737)
(0.0079006189 0.075942933 -0.012783263)
(0.013715242 0.11476475 -0.030933589)
(0.10527731 -0.0023790244 -0.00010134493)
(0.11877133 -0.0024931561 -0.0001955662)
(0.13093763 -0.0023593723 -0.00027521096)
(0.14086591 -0.0019506463 -0.00034148587)
(0.14957831 -0.0013336295 -0.00039890121)
(0.15754755 -0.0006778831 -0.00045298454)
(0.16481371 -8.0671091e-05 -0.00050544015)
(0.17137012 0.00043336384 -0.0005572632)
(0.17726122 0.00086112153 -0.00060746998)
(0.18256493 0.001188364 -0.0006555892)
(0.1874144 0.0013697898 -0.00071184023)
(0.19208441 0.0012990246 -0.00078931521)
(0.19655421 0.00089116125 -0.00090927628)
(0.2012324 0.00017044154 -0.001044812)
(0.20731847 0.00086176994 -0.001266691)
(0.21383908 0.0021303402 -0.0016163194)
(0.21927655 0.0034384454 -0.0020292527)
(0.22353849 0.0049771246 -0.0025805124)
(0.22733958 0.0067986288 -0.0034311122)
(0.23134543 0.0087337573 -0.0047333533)
(0.23608592 0.010492493 -0.0066757211)
(0.24180084 0.012144921 -0.0095021097)
(0.24802013 0.014114723 -0.013451386)
(0.25357281 0.016434857 -0.018598493)
(0.25711837 0.018915427 -0.024620941)
(0.25730357 0.021743551 -0.030629777)
(0.25214983 0.025821988 -0.03495547)
(0.2382981 0.032612365 -0.03544702)
(0.21164149 0.044718097 -0.029364437)
(0.113594 0.072695764 -0.014927627)
(0.099819098 -0.0037669859 -9.4891678e-05)
(0.10013242 -0.0046105245 -0.00018623227)
(0.10153599 -0.0047622915 -0.00026192378)
(0.10365403 -0.0044680103 -0.00032147044)
(0.10623917 -0.0039121619 -0.00036807741)
(0.10915472 -0.0033238962 -0.00040481067)
(0.11226398 -0.0028270166 -0.00042974431)
(0.11545408 -0.0024638723 -0.00043890476)
(0.11866646 -0.0022765751 -0.00042772221)
(0.12192383 -0.0023748362 -0.00039371237)
(0.12539642 -0.0030297244 -0.00033682997)
(0.12961447 -0.0047876155 -0.00026115037)
(0.13570168 -0.0082290683 -0.00019757163)
(0.14399046 -0.010738295 -0.00020304764)
(0.15351821 -0.0074630774 -0.0003645274)
(0.16124089 -0.0030525315 -0.00026810305)
(0.16743662 0.00018110305 0.00017012446)
(0.17318846 0.0022537826 0.0007919258)
(0.17848191 0.0034207967 0.0014453962)
(0.18381846 0.0038970784 0.0021146805)
(0.18918307 0.0042879528 0.0028163575)
(0.19481198 0.0054157725 0.0033795743)
(0.20199363 0.0085079405 0.0032911896)
(0.21104557 0.014590265 0.0021452169)
(0.2193025 0.023129212 -8.2877791e-05)
(0.22594066 0.033493632 -0.0029498031)
(0.22857628 0.046064286 -0.0047648149)
(0.22290527 0.062140128 -0.0031935948)
(0.20740397 0.084544338 0.0039793221)
(0.14315386 0.12016403 0.018793603)
(0.099972144 -0.0028743159 -9.4398393e-05)
(0.099754016 -0.0041731977 -0.00018460602)
(0.09928759 -0.0045892216 -0.00026026444)
(0.098755585 -0.0046995795 -0.00032032693)
(0.098296852 -0.0046911293 -0.00036714346)
(0.097949679 -0.0046340812 -0.00040296028)
(0.097667927 -0.0045847927 -0.00042435978)
(0.097363539 -0.0046054286 -0.00042563936)
(0.096936849 -0.0047994435 -0.00040051148)
(0.096279506 -0.0053878123 -0.00034549401)
(0.095333874 -0.0069146695 -0.00025087276)
(0.094468557 -0.010613676 -0.00010909475)
(0.095247329 -0.018699701 9.2131641e-05)
(0.096159791 -0.025220813 0.00061394443)
(0.10262667 -0.01908714 0.00025975136)
(0.10329963 -0.012346941 0.00016478848)
(0.10064109 -0.0064463559 0.00044321648)
(0.094146337 -0.0015491887 0.0011513163)
(0.086630973 0.0008995609 0.0025209674)
(0.077603672 -2.6584656e-07 0.0049479693)
(0.065647887 -0.0037845169 0.0083728615)
(0.052417823 -0.0083592101 0.012265804)
(0.041125135 -0.010903781 0.015169684)
(0.036906968 -0.0098745191 0.015105513)
(0.051326675 -0.0046254147 0.012276332)
(0.07781741 0.0059198164 0.010383545)
(0.10786282 0.023379428 0.012139179)
(0.1249799 0.04570333 0.018829352)
(0.13282785 0.07600495 0.030937617)
(0.10891931 0.11779895 0.046705207)
(0.09795541 -0.0015621959 -9.1779167e-05)
(0.096306612 -0.0023202076 -0.0001783126)
(0.093690361 -0.0025673074 -0.00025003503)
(0.090588097 -0.0026293667 -0.00030591016)
(0.087494729 -0.0026074312 -0.00034820124)
(0.084514662 -0.0025287278 -0.00037929917)
(0.081566998 -0.0024276806 -0.0003948839)
(0.078514566 -0.0023519199 -0.00038800454)
(0.075153407 -0.002375573 -0.00035117265)
(0.071075209 -0.0026549361 -0.00028088155)
(0.065421872 -0.0036288626 -0.00015164573)
(0.056385045 -0.006621338 8.5646728e-05)
(0.0420588 -0.015297329 0.00065254643)
(0.0097394133 -0.022208697 0.0041767829)
(-0.038295832 0.0031484847 0.009370616)
(-0.057231686 0.007830786 0.0090237231)
(-0.073841768 0.0084437732 0.008280629)
(-0.08273395 0.005991535 0.0060175702)
(-0.086673169 0.0015818943 0.0036446558)
(-0.082374284 -0.0033547315 0.0016922492)
(-0.073207052 -0.0078643679 0.0020535195)
(-0.063559002 -0.011767181 0.0039454648)
(-0.054601165 -0.01573678 0.0058814737)
(-0.046783136 -0.020473608 0.0069117264)
(-0.03935453 -0.023712406 0.0066363546)
(-0.032405947 -0.020161931 0.007205414)
(-0.024278558 0.00024105142 0.019067433)
(-0.0075688217 0.030197954 0.034896628)
(0.011768578 0.064406003 0.055921734)
(0.049939081 0.10053127 0.073387938)
(0.1052901 -0.0023752374 -0.00024024054)
(0.11881696 -0.0024873435 -0.00044736002)
(0.13102237 -0.0023525909 -0.00059784006)
(0.14098325 -0.0019444882 -0.00069447129)
(0.14971865 -0.0013305758 -0.00074581349)
(0.15770616 -0.00067969321 -0.00075571606)
(0.16499375 -8.6423984e-05 -0.00072376727)
(0.17158714 0.00042969361 -0.00066048669)
(0.17754171 0.00087161429 -0.0005702706)
(0.18291897 0.0012333244 -0.00046138382)