/*--------------------------------*- C++ -*----------------------------------*\
| =========                 |                                                 |
| \\      /  F ield         | OpenFOAM: The Open Source CFD Toolbox           |
|  \\    /   O peration     | Version:  v2012                                 |
|   \\  /    A nd           | Website:  www.openfoam.com                      |
|    \\/     M anipulation  |                                                 |
\*---------------------------------------------------------------------------*/
FoamFile
{
    version     2.0;
    format      ascii;
    class       surfaceScalarField;
    location    "400/topAir";
    object      phi;
}
// * * * * * * * * * * * * * * * * * * * * * * * * * * * * * * * * * * * * * //

dimensions      [1 0 -1 0 0 0 0];
oriented        oriented;


internalField   nonuniform List<scalar> 
3140
(
9.49284e-06
-2.964828e-07
7.2619893e-08
9.6733261e-06
-2.6342759e-07
8.297136e-08
9.8470536e-06
-2.4622227e-07
7.2539351e-08
9.9880751e-06
-1.9607916e-07
5.5112107e-08
1.0090009e-05
-1.3413696e-07
3.2275872e-08
1.0161245e-05
-7.6445891e-08
5.3027022e-09
1.0233972e-05
-2.8637134e-08
-4.3977214e-08
1.033234e-05
1.1447873e-08
-1.0968024e-07
1.0462996e-05
7.4543967e-08
-2.0503778e-07
1.0649283e-05
1.5592974e-07
-3.420281e-07
1.0887082e-05
2.9838356e-07
-5.3597205e-07
1.1146791e-05
5.4123765e-07
-8.0073339e-07
1.1370894e-05
9.1783798e-07
-1.1417602e-06
1.1563001e-05
1.3687308e-06
-1.5607592e-06
1.1704159e-05
1.8721734e-06
-2.0134274e-06
1.1796066e-05
2.3573114e-06
-2.4495379e-06
1.1836013e-05
2.7821721e-06
-2.822648e-06
1.1818274e-05
3.1273459e-06
-3.1102925e-06
1.1750266e-05
3.3816397e-06
-3.3144159e-06
1.1659184e-05
3.5380997e-06
-3.4478563e-06
1.1580315e-05
3.6023875e-06
-3.5243741e-06
1.1540507e-05
3.5930674e-06
-3.5540843e-06
1.1551921e-05
3.5312628e-06
-3.5434004e-06
1.1611207e-05
3.4355815e-06
-3.4954125e-06
1.1698354e-05
3.3222622e-06
-3.4097175e-06
1.1768893e-05
3.2096742e-06
-3.2802414e-06
1.1732162e-05
3.1281357e-06
-3.091095e-06
1.1405775e-05
3.1392168e-06
-2.8121013e-06
1.0423726e-05
3.3787178e-06
-2.3954397e-06
4.1873962e-06
-1.7776092e-06
9.1155819e-06
-2.2286821e-07
7.977261e-08
9.0828584e-06
-3.3450903e-07
1.0380658e-07
9.0804732e-06
-3.5382965e-07
1.0999614e-07
9.1222728e-06
-3.4949548e-07
1.116235e-07
9.2070761e-06
-3.2719322e-07
1.0826505e-07
9.3292139e-06
-2.9650251e-07
9.7938742e-08
9.4916543e-06
-2.6962802e-07
7.8581422e-08
9.7091826e-06
-2.5334171e-07
4.7325774e-08
1.0005907e-05
-2.2488543e-07
2.7621867e-09
1.0414175e-05
-1.6777076e-07
-8.4572196e-08
1.0956959e-05
-3.1154861e-08
-2.1341094e-07
1.1622382e-05
2.7861054e-07
-4.0305051e-07
1.2313961e-05
8.9700686e-07
-6.7101014e-07
1.292019e-05
1.7642278e-06
-1.001966e-06
1.3386e-05
2.7507221e-06
-1.3445835e-06
1.367784e-05
3.6904566e-06
-1.6251612e-06
1.3780035e-05
4.482497e-06
-1.8025843e-06
1.3712704e-05
5.0948096e-06
-1.9000731e-06
1.3530629e-05
5.5310194e-06
-1.9671733e-06
1.3309349e-05
5.8010108e-06
-2.0414798e-06
1.3112275e-05
5.9210735e-06
-2.1214337e-06
1.2970101e-05
5.9214696e-06
-2.1859463e-06
1.2890127e-05
5.8311853e-06
-2.2194263e-06
1.2862764e-05
5.6738934e-06
-2.2100292e-06
1.2864293e-05
5.4658103e-06
-2.1437008e-06
1.285018e-05
5.2236108e-06
-1.9980369e-06
1.2731078e-05
4.9867697e-06
-1.7374172e-06
1.2337536e-05
4.8466764e-06
-1.3115407e-06
1.1402213e-05
4.9902143e-06
-6.7358891e-07
5.6446018e-06
2.3357772e-07
9.1721127e-06
-2.0781599e-07
8.1795419e-08
9.0057607e-06
-2.7602989e-07
1.0787247e-07
8.8240865e-06
-2.8924687e-07
1.1709099e-07
8.6396777e-06
-2.8881061e-07
1.2372397e-07
8.4647854e-06
-2.8120116e-07
1.2890071e-07
8.3047999e-06
-2.6873008e-07
1.3221478e-07
8.1573882e-06
-2.5667173e-07
1.3445893e-07
8.0173651e-06
-2.5099217e-07
1.3767977e-07
7.9011087e-06
-2.5402871e-07
1.4540724e-07
7.8481702e-06
-2.7256939e-07
1.5774372e-07
7.9704866e-06
-3.187621e-07
1.6528282e-07
8.4267033e-06
-3.2406859e-07
1.4623812e-07
9.2602631e-06
-1.5726801e-08
7.8761324e-08
1.0384104e-05
6.6607222e-07
-2.6079182e-08
1.1401433e-05
1.8219066e-06
-8.8850803e-08
1.2202655e-05
2.9443912e-06
-5.5377448e-08
1.2722365e-05
3.7873563e-06
1.7542327e-07
1.294567e-05
4.3575735e-06
5.1410671e-07
1.2963357e-05
4.7320059e-06
7.8164007e-07
1.2883096e-05
4.9511097e-06
9.3055915e-07
1.2798249e-05
5.0362471e-06
9.7012396e-07
1.2738408e-05
4.9990414e-06
9.8279225e-07
1.2705238e-05
4.866014e-06
9.9899904e-07
1.267938e-05
4.6649195e-06
1.0356958e-06
1.2633821e-05
4.419706e-06
1.0927658e-06
1.2543752e-05
4.1529559e-06
1.1620507e-06
1.2364797e-05
3.8959039e-06
1.2713085e-06
1.2034835e-05
3.7242355e-06
1.4539779e-06
1.1425908e-05
3.8164551e-06
1.7842399e-06
4.5513737e-06
2.3775242e-06
8.9812373e-06
7.9898823e-08
8.6004529e-06
1.0475415e-07
8.1983671e-06
1.1283856e-07
7.7917534e-06
1.1780269e-07
7.3894456e-06
1.2110638e-07
6.997939e-06
1.2277618e-07
6.6171841e-06
1.2408343e-07
6.238746e-06
1.2744648e-07
5.8477181e-06
1.37001e-07
5.4156488e-06
1.5950299e-07
4.8906641e-06
2.0622871e-07
4.2642513e-06
3.0235466e-07
3.7692932e-06
4.7930367e-07
3.6905288e-06
7.4512761e-07
4.360465e-06
1.152929e-06
5.5147818e-06
1.791214e-06
6.6330302e-06
2.6701287e-06
7.5425652e-06
3.4489887e-06
8.249165e-06
4.0263296e-06
8.8270892e-06
4.3740593e-06
9.3253312e-06
4.5387884e-06
9.7700644e-06
4.5549937e-06
1.0148639e-05
4.4880565e-06
1.0439643e-05
4.3744992e-06
1.06236e-05
4.2363158e-06
1.0694743e-05
4.0823412e-06
1.0675728e-05
3.9153466e-06
1.0639955e-05
3.760244e-06
1.0833032e-05
3.6233166e-06
3.4511881e-06
9.6052501e-06
-2.9609527e-07
3.2442596e-08
9.9020382e-06
-2.643871e-07
5.0590955e-08
1.0180615e-05
-2.5941637e-07
5.3410891e-08
1.0413897e-05
-2.2648088e-07
4.8348541e-08
1.0594798e-05
-1.8630788e-07
3.772474e-08
1.0735025e-05
-1.5530483e-07
2.0427275e-08
1.083848e-05
-1.4108066e-07
-6.2973438e-09
1.0912389e-05
-1.4718267e-07
-3.6347347e-08
1.0966151e-05
-1.7895954e-07
-7.9776864e-08
1.1006738e-05
-2.4218194e-07
-1.4036785e-07
1.1041346e-05
-3.4642363e-07
-2.2410997e-07
1.1077662e-05
-4.9986095e-07
-3.3722034e-07
1.1127117e-05
-7.0759226e-07
-4.838366e-07
1.1261336e-05
-1.0250675e-06
-6.7048835e-07
1.1496853e-05
-1.371457e-06
-8.7857711e-07
1.1818257e-05
-1.6895787e-06
-1.0829223e-06
1.2151877e-05
-1.8859122e-06
-1.2721488e-06
1.241262e-05
-1.9151693e-06
-1.4576631e-06
1.2561318e-05
-1.8188389e-06
-1.6459671e-06
1.2611674e-05
-1.6750071e-06
-1.8247814e-06
1.2612448e-05
-1.5444545e-06
-1.9821423e-06
1.26094e-05
-1.442923e-06
-2.1093603e-06
1.2631879e-05
-1.367862e-06
-2.1989286e-06
1.2691817e-05
-1.3105214e-06
-2.2452686e-06
1.2790724e-05
-1.2626209e-06
-2.2459387e-06
1.2922505e-05
-1.2120114e-06
-2.1994542e-06
1.3063036e-05
-1.1309108e-06
-2.0995799e-06
1.3135291e-05
-9.4855903e-07
-1.9338546e-06
1.2991385e-05
-5.3497236e-07
-1.7136612e-06
7.2071844e-07
-1.4215492e-06
9.2408092e-06
-2.2436346e-07
3.6200642e-08
9.3555604e-06
-3.3850296e-07
6.3172328e-08
9.4945395e-06
-3.6297809e-07
7.4581214e-08
9.6713431e-06
-3.688988e-07
7.7243013e-08
9.8823927e-06
-3.6307429e-07
7.3991441e-08
1.0115992e-05
-3.5484113e-07
6.3891305e-08
1.0363945e-05
-3.553014e-07
4.4874383e-08
1.0623583e-05
-3.7402387e-07
1.4567004e-08
1.0900629e-05
-4.2065149e-07
-3.2539202e-08
1.1187538e-05
-5.114641e-07
-1.0213857e-07
1.14956e-05
-6.660006e-07
-2.018465e-07
1.1837902e-05
-9.0404167e-07
-3.4116762e-07
1.2236833e-05
-1.2509891e-06
-5.2664368e-07
1.2692645e-05
-1.7311336e-06
-7.5198943e-07
1.3230624e-05
-2.2661695e-06
-9.883165e-07
1.3779052e-05
-2.6708787e-06
-1.1927483e-06
1.4218801e-05
-2.7583283e-06
-1.370118e-06
1.446694e-05
-2.5081741e-06
-1.5550252e-06
1.4518515e-05
-2.0819526e-06
-1.7550911e-06
1.443263e-05
-1.6695338e-06
-1.9602105e-06
1.4298575e-05
-1.381308e-06
-2.1493416e-06
1.4154706e-05
-1.1758805e-06
-2.3075713e-06
1.4020357e-05
-1.0352133e-06
-2.4157326e-06
1.390747e-05
-9.5047337e-07
-2.4547439e-06
1.3841868e-05
-9.2755439e-07
-2.4102975e-06
1.3882423e-05
-9.7414181e-07
-2.2733186e-06
1.4140353e-05
-1.0782464e-06
-2.0448792e-06
1.4838724e-05
-1.2349875e-06
-1.720767e-06
1.6528777e-05
-1.4892326e-06
-1.4075653e-06
-1.5715482e-06
-1.3585648e-06
9.299685e-06
-2.1019435e-07
3.6901685e-08
9.2837092e-06
-2.7972236e-07
6.5067137e-08
9.2539607e-06
-2.947585e-07
7.8619497e-08
9.2229641e-06
-2.98437e-07
8.4258743e-08
9.201119e-06
-2.9741196e-07
8.5083869e-08
9.1916279e-06
-2.9388404e-07
8.0750283e-08
9.1940372e-06
-2.9344476e-07
7.01961e-08
9.2079662e-06
-3.0272495e-07
5.2457858e-08
9.2343913e-06
-3.2905344e-07
2.7393621e-08
9.2721178e-06
-3.8562992e-07
-5.8030981e-09
9.3413325e-06
-4.961219e-07
-7.3792834e-08
9.4527151e-06
-6.97148e-07
-1.7202453e-07
9.6286611e-06
-1.0318368e-06
-3.1634689e-07
9.8967942e-06
-1.5239822e-06
-5.0136989e-07
1.0283844e-05
-2.0678079e-06
-6.7409726e-07
1.0706454e-05
-2.406636e-06
-7.4145912e-07
1.1072546e-05
-2.2817347e-06
-6.6583253e-07
1.134674e-05
-1.7744175e-06
-4.9181268e-07
1.1472953e-05
-1.109022e-06
-3.1522947e-07
1.1484605e-05
-4.7177501e-07
-2.7656693e-07
1.1446513e-05
-2.7397783e-08
-3.4316733e-07
1.1436563e-05
1.8243614e-07
-3.6293961e-07
1.1467744e-05
2.4600649e-07
-3.1039817e-07
1.1518193e-05
2.0423075e-07
-1.6628028e-07
1.1580091e-05
9.1345592e-08
1.4684105e-08
1.1603535e-05
-8.4617004e-08
2.5108417e-07
1.1643901e-05
-3.2948697e-07
4.8294246e-07
1.179774e-05
-6.4255322e-07
7.0710876e-07
1.2318588e-05
-9.1826153e-07
6.9048421e-07
-1.1138738e-06
2.9783629e-07
9.1027897e-06
3.5866911e-08
8.8650029e-06
6.2818162e-08
8.6076318e-06
7.5450801e-08
8.3466969e-06
8.0300202e-08
8.0900282e-06
8.0362788e-08
7.8435361e-06
7.538395e-08
7.6096404e-06
6.4534471e-08
7.3871374e-06
4.7225021e-08
7.1712982e-06
2.3788293e-08
6.9500817e-06
-4.9076491e-09
6.7176576e-06
-5.7463917e-08
6.4453197e-06
-1.2244643e-07
6.1113191e-06
-2.1850894e-07
5.7075618e-06
-3.7499812e-07
5.348254e-06
-5.5498464e-07
5.2081682e-06
-4.7347162e-07
5.3567282e-06
2.421173e-07
5.6356455e-06
1.3981007e-06
5.8376875e-06
2.7175792e-06
6.1572395e-06
3.584723e-06
6.6062324e-06
4.0639558e-06
7.0867775e-06
4.2584621e-06
7.5305e-06
4.2918772e-06
7.8874522e-06
4.2230161e-06
8.1450939e-06
4.0709931e-06
8.3279379e-06
3.8152725e-06
8.5039648e-06
3.4097763e-06
8.6832565e-06
2.937844e-06
9.2414278e-06
2.145749e-06
9.9500231e-07
9.5824628e-06
-2.9787994e-07
1.6839053e-08
9.8701517e-06
-2.6487761e-07
2.7809134e-08
1.0148003e-05
-2.5636182e-07
3.1965075e-08
1.03839e-05
-2.189498e-07
3.1452469e-08
1.0567888e-05
-1.7415349e-07
2.7954533e-08
1.0704863e-05
-1.3859222e-07
2.211974e-08
1.0800824e-05
-1.1633301e-07
1.4152071e-08
1.0867296e-05
-1.0650409e-07
3.7609724e-09
1.090735e-05
-1.1136029e-07
-8.3894262e-09
1.0925052e-05
-1.3540095e-07
-2.2594822e-08
1.0924461e-05
-1.8511725e-07
-3.836784e-08
1.0910794e-05
-2.704985e-07
-5.3137998e-08
1.0895762e-05
-4.0812508e-07
-6.1040816e-08
1.0965073e-05
-6.8531336e-07
-5.5448835e-08
1.1143268e-05
-1.0349304e-06
-2.3670055e-08
1.1390354e-05
-1.3954236e-06
6.3033975e-08
1.1618058e-05
-1.6820087e-06
1.7973051e-07
1.1782404e-05
-1.8892912e-06
2.6515699e-07
1.1873173e-05
-2.0468181e-06
3.0831418e-07
1.1908616e-05
-2.1759873e-06
3.1424142e-07
1.191941e-05
-2.2909119e-06
2.9664293e-07
1.1933437e-05
-2.3948535e-06
2.7044191e-07
1.1964235e-05
-2.4789104e-06
2.4871705e-07
1.2009e-05
-2.5306261e-06
2.4090205e-07
1.2060563e-05
-2.5463223e-06
2.4999923e-07
1.2124612e-05
-2.5364053e-06
2.7486567e-07
1.2241578e-05
-2.5195199e-06
3.055795e-07
1.2470986e-05
-2.457494e-06
2.9757466e-07
1.2723785e-05
-2.0696191e-06
1.0756501e-07
-8.4385775e-07
-4.3852485e-07
9.2128942e-06
-2.2415696e-07
1.8552551e-08
9.3152887e-06
-3.3756972e-07
3.3471448e-08
9.4522605e-06
-3.5995009e-07
4.1200699e-08
9.6301401e-06
-3.6230229e-07
4.2721402e-08
9.84213e-06
-3.5137953e-07
3.9236918e-08
1.0073164e-05
-3.3626314e-07
3.0542487e-08
1.0312677e-05
-3.2640991e-07
1.5458568e-08
1.0556499e-05
-3.2828052e-07
-7.4517067e-09
1.0801565e-05
-3.4892579e-07
-4.0009241e-08
1.1048396e-05
-3.9873305e-07
-8.561276e-08
1.1300611e-05
-4.925121e-07
-1.466647e-07
1.1571883e-05
-6.604541e-07
-2.2255173e-07
1.1893119e-05
-9.5145565e-07
-3.0478606e-07
1.2263247e-05
-1.4391778e-06
-3.6880612e-07
1.2679929e-05
-2.0640264e-06
-3.7671306e-07
1.299446e-05
-2.5367061e-06
-3.6645571e-07
1.3092099e-05
-2.7205927e-06
-4.289602e-07
1.2999611e-05
-2.7549405e-06
-5.9602445e-07
1.2771832e-05
-2.7221561e-06
-8.5059498e-07
1.2461176e-05
-2.673818e-06
-1.1498923e-06
1.2112989e-05
-2.65069e-06
-1.4389715e-06
1.1757342e-05
-2.6678676e-06
-1.6756854e-06
1.1402449e-05
-2.6994749e-06
-1.8360303e-06
1.1047477e-05
-2.719006e-06
-1.9061938e-06
1.0697503e-05
-2.7252253e-06
-1.8756255e-06
1.0378374e-05
-2.7708736e-06
-1.7138568e-06
1.0258886e-05
-2.9622932e-06
-1.4770099e-06
1.0765019e-05
-3.313366e-06
-1.3663254e-06
1.2477723e-05
-3.5502014e-06
-1.6360888e-06
-3.1620621e-06
-2.3214437e-06
9.272776e-06
-2.0985567e-07
1.8784711e-08
9.2452574e-06
-2.7903767e-07
3.4053221e-08
9.2143266e-06
-2.9299095e-07
4.2590826e-08
9.1862671e-06
-2.9509138e-07
4.5107101e-08
9.1693962e-06
-2.9193716e-07
4.2512634e-08
9.164967e-06
-2.8539106e-07
3.4308468e-08
9.1700342e-06
-2.8025994e-07
1.8981122e-08
9.1815147e-06
-2.8168372e-07
-5.6155905e-09
9.1973754e-06
-2.9502856e-07
-4.2358241e-08
9.2188919e-06
-3.297688e-07
-9.6275202e-08
9.2323745e-06
-4.0508359e-07
-1.7469521e-07
9.2362235e-06
-5.5507438e-07
-2.8124959e-07
9.2321073e-06
-8.4847576e-07
-4.1522741e-07
9.2517198e-06
-1.4087218e-06
-5.5147227e-07
9.2648347e-06
-2.1481115e-06
-6.0246014e-07
9.0512052e-06
-2.48567e-06
-5.7592533e-07
8.5877158e-06
-2.2922148e-06
-6.2632583e-07
8.1276448e-06
-2.0131951e-06
-7.6869049e-07
7.7023265e-06
-1.6180323e-06
-9.8922545e-07
7.2522998e-06
-1.2396639e-06
-1.2555748e-06
6.7578301e-06
-1.0058327e-06
-1.4872263e-06
6.2798618e-06
-9.3097229e-07
-1.6135556e-06
5.8597741e-06
-9.7857676e-07
-1.6011062e-06
5.5515642e-06
-1.1096356e-06
-1.4568837e-06
5.3764557e-06
-1.3212974e-06
-1.2048105e-06
5.2815608e-06
-1.6304357e-06
-7.8769388e-07
5.4279766e-06
-2.0985419e-06
-5.224933e-07
6.1896979e-06
-2.6631191e-06
-7.023625e-07
7.6247889e-06
-3.0112613e-06
-1.2845936e-06
-2.599444e-06
-2.6502151e-06
9.0766331e-06
1.8330276e-08
8.8273736e-06
3.3039587e-08
8.5687612e-06
4.1071828e-08
8.3108332e-06
4.3136445e-08
8.0591591e-06
4.0099366e-08
7.8177396e-06
3.1412079e-08
7.5866327e-06
1.5381365e-08
7.3624222e-06
-1.0247957e-08
7.1405304e-06
-4.9347466e-08
6.9149196e-06
-1.090637e-07
6.6542321e-06
-2.0185644e-07
6.3224578e-06
-3.4574075e-07
5.8370146e-06
-5.8153081e-07
5.0387501e-06
-9.8532397e-07
3.8754728e-06
-1.5366631e-06
2.8013121e-06
-1.873536e-06
2.4539526e-06
-1.6912302e-06
2.6032033e-06
-7.5552149e-07
2.9799941e-06
7.2963301e-07
3.3515781e-06
1.9785333e-06
3.8022393e-06
2.6107998e-06
4.2596723e-06
2.8722778e-06
4.6698322e-06
2.9045971e-06
4.9590893e-06
2.825017e-06
5.0478607e-06
2.6612463e-06
4.8459143e-06
2.38633e-06
4.7050223e-06
1.4507901e-06
4.8073702e-06
1.6999352e-07
5.3060122e-06
-1.363526e-06
-3.2968299e-06
9.576899e-06
-2.9812538e-07
7.045627e-09
9.8571826e-06
-2.6456452e-07
1.212067e-08
1.0129161e-05
-2.5444645e-07
1.4477581e-08
1.0360328e-05
-2.1427328e-07
1.4609448e-08
1.054011e-05
-1.6485545e-07
1.3089997e-08
1.06739e-05
-1.2181116e-07
1.0211846e-08
1.0770145e-05
-8.8041977e-08
6.0266048e-09
1.0835591e-05
-6.2448589e-08
8.4703266e-10
1.0877448e-05
-4.399373e-08
-6.1772683e-09
1.0902723e-05
-3.3670085e-08
-1.4149575e-08
1.0922332e-05
-3.5486139e-08
-2.2499724e-08
1.0956893e-05
-5.9737297e-08
-2.8108937e-08
1.1046257e-05
-1.2898236e-07
-2.1883299e-08
1.1292002e-05
-3.1467527e-07
1.2340225e-08
1.1647112e-05
-4.6202213e-07
8.1514853e-08
1.1969151e-05
-4.4315898e-07
1.8239042e-07
1.2185804e-05
-3.2588496e-07
2.8743575e-07
1.2304838e-05
-2.4638364e-07
3.9115195e-07
1.2374137e-05
-2.632093e-07
5.0086897e-07
1.243435e-05
-3.6768628e-07
6.2008534e-07
1.2508926e-05
-5.3105486e-07
7.5092878e-07
1.2599976e-05
-7.2016738e-07
8.9673916e-07
1.2693257e-05
-9.0788001e-07
1.0600539e-06
1.2768347e-05
-1.0747186e-06
1.2370754e-06
1.2819779e-05
-1.218181e-06
1.4132877e-06
1.285718e-05
-1.3213292e-06
1.5554258e-06
1.2819298e-05
-1.2615279e-06
1.6020857e-06
1.2421395e-05
-7.9046415e-07
1.4835439e-06
1.1129181e-05
2.5503401e-07
1.1453961e-06
2.762552e-06
4.6784571e-07
9.2056036e-06
-2.2397481e-07
7.7674809e-09
9.2968557e-06
-3.3702816e-07
1.4684557e-08
9.4233581e-06
-3.5841419e-07
1.866905e-08
9.5910547e-06
-3.5874384e-07
1.9500399e-08
9.7921191e-06
-3.4409096e-07
1.7416305e-08
1.0011087e-05
-3.2256849e-07
1.2344542e-08
1.0236933e-05
-3.0230772e-07
3.8957237e-09
1.0464507e-05
-2.8817828e-07
-9.2752778e-09
1.069254e-05
-2.8453943e-07
-2.7471478e-08
1.0924769e-05
-2.9976924e-07
-5.1723179e-08
1.1175812e-05
-3.5175061e-07
-8.1448921e-08
1.1482979e-05
-4.7836668e-07
-1.1117653e-07
1.1921271e-05
-7.4935121e-07
-1.2301562e-07
1.2540581e-05
-1.225753e-06
-7.778432e-08
1.3210872e-05
-1.5460191e-06
3.6212867e-08
1.3661174e-05
-1.3816522e-06
1.2146051e-07
1.3859191e-05
-1.0783383e-06
1.2559527e-07
1.3866872e-05
-9.2927915e-07
7.9611433e-08
1.372514e-05
-9.6903113e-07
-2.4092831e-09
1.3483797e-05
-1.1272175e-06
-1.481908e-07
1.3166412e-05
-1.3420388e-06
-3.0943563e-07
1.2777698e-05
-1.5503478e-06
-4.5493497e-07
1.2311213e-05
-1.733867e-06
-5.4052013e-07
1.175539e-05
-1.8819803e-06
-5.3864521e-07
1.1150596e-05
-2.0379349e-06
-4.4537515e-07
1.0697424e-05
-2.2551985e-06
-3.2050223e-07
1.0676296e-05
-2.3706508e-06
-3.4076177e-07
1.1036353e-05
-1.8182088e-06
-6.921082e-07
1.1429039e-05
-4.3567085e-07
-1.3330078e-06
1.7998945e-06
-1.9614176e-06
9.2658241e-06
-2.0984129e-07
7.7874253e-09
9.2271544e-06
-2.7905471e-07
1.4749033e-08
9.1851026e-06
-2.9268707e-07
1.8915057e-08
9.1455101e-06
-2.9395502e-07
1.9910675e-08
9.1154939e-06
-2.8928501e-07
1.7722902e-08
9.0954319e-06
-2.8017485e-07
1.1977535e-08
9.0810027e-06
-2.7093166e-07
2.035697e-09
9.0684106e-06
-2.6612477e-07
-1.5074212e-08
9.0522786e-06
-2.7074034e-07
-4.0020774e-08
9.0273347e-06
-2.9474444e-07
-7.6349214e-08
8.9886545e-06
-3.6014699e-07
-1.2761078e-07
8.9427785e-06
-5.1860108e-07
-1.9513617e-07
8.9401944e-06
-8.9439994e-07
-2.6762258e-07
9.1454529e-06
-1.6989491e-06
-2.8358897e-07
9.2935937e-06
-2.1776367e-06
-1.1674172e-07
8.9349572e-06
-1.5662818e-06
-2.8395446e-08
8.1766301e-06
-8.627891e-07
-7.9251583e-08
7.31478e-06
-5.8812044e-07
-2.4367919e-07
6.4659138e-06
-6.0446614e-07
-5.0014042e-07
5.6825527e-06
-7.9643891e-07
-7.9654708e-07
4.9327777e-06
-9.9248271e-07
-1.0773767e-06
4.2051662e-06
-1.1692575e-06
-1.2536209e-06
3.5432151e-06
-1.4033839e-06
-1.2535377e-06
2.9372419e-06
-1.6462233e-06
-1.0712514e-06
2.4444772e-06
-1.9522438e-06
-7.8622064e-07
2.3713361e-06
-2.4231998e-06
-5.4185249e-07
3.0786961e-06
-2.8958069e-06
-7.0738207e-07
4.3760449e-06
-2.2327168e-06
-1.588552e-06
5.599006e-06
-2.2691358e-07
-2.7202577e-06
1.4552702e-06
-3.5229638e-06
9.0698822e-06
7.5589297e-09
8.8096709e-06
1.4195725e-08
8.5400417e-06
1.8013636e-08
8.2706044e-06
1.8618275e-08
8.005482e-06
1.5936472e-08
7.7472069e-06
9.5119463e-09
7.4934875e-06
-1.8310776e-09
7.2386643e-06
-2.1549409e-08
6.9704431e-06
-5.1866062e-08
6.6667193e-06
-1.0008292e-07
6.2836912e-06
-1.7897233e-07
5.7329525e-06
-3.1359968e-07
4.8159162e-06
-5.5891806e-07
3.1472921e-06
-1.0156839e-06
9.3353136e-07
-1.4901656e-06
-1.0893837e-06
-1.3933522e-06
-2.3609561e-06
-1.2734566e-06
-2.6332386e-06
-1.0627216e-06
-1.9732962e-06
-5.2513582e-07
-1.0386554e-06
2.5461329e-07
-1.7105529e-07
7.5533958e-07
5.1749469e-07
1.0164211e-06
9.2888479e-07
1.0915957e-06
1.0498402e-06
1.0583439e-06
8.2293903e-07
9.347303e-07
1.7664841e-07
6.0475236e-07
-5.9346204e-07
-6.8048653e-07
-4.3552518e-07
-2.2253601e-06
1.6794606e-06
-3.7038249e-06
-4.572468e-06
9.5739427e-06
-2.9851246e-07
5.969622e-10
9.8503776e-06
-2.6519447e-07
9.1275518e-10
1.0119025e-05
-2.5513636e-07
1.0132194e-09
1.0347555e-05
-2.148079e-07
9.4206582e-10
1.0525008e-05
-1.6503423e-07
7.3690181e-10
1.065637e-05
-1.2150495e-07
4.3566552e-10
1.0749746e-05
-8.7228521e-08
-2.8964382e-11
1.0812543e-05
-6.1128467e-08
-7.1633164e-10
1.0850979e-05
-4.3007705e-08
-1.4940939e-09
1.0874178e-05
-3.4921979e-08
-2.3071888e-09
1.0897755e-05
-4.3482384e-08
-2.4729492e-09
1.0954282e-05
-8.4942614e-08
3.9438418e-10
1.1107305e-05
-1.8773388e-07
1.2683409e-08
1.1474038e-05
-4.0197939e-07
4.6781806e-08
1.1878259e-05
-4.186654e-07
9.4904403e-08
1.217708e-05
-2.5946364e-07
1.4211927e-07
1.2357205e-05
-8.2724067e-08
1.8929187e-07
1.2459602e-05
4.1669241e-08
2.4627207e-07
1.2524852e-05
1.1477441e-07
3.1991812e-07
1.2599153e-05
1.2956273e-07
4.1512566e-07
1.2719758e-05
1.0086637e-07
5.281025e-07
1.2897509e-05
7.1069393e-08
6.4619007e-07
1.3109344e-05
9.3325021e-08
7.5269425e-07
1.3311146e-05
1.9923763e-07
8.3333016e-07
1.3441788e-05
4.01063e-07
8.7846787e-07
1.3408706e-05
7.0459429e-07
8.8067313e-07
1.3038572e-05
1.1424955e-06
8.2682047e-07
1.2046236e-05
1.7768064e-06
6.9679401e-07
9.9380457e-06
2.7732e-06
4.7845872e-07
4.6489309e-06
2.428513e-07
9.2015125e-06
-2.2406033e-07
7.7197707e-10
9.2869207e-06
-3.372437e-07
1.3271727e-09
9.4074765e-06
-3.5862259e-07
1.6024936e-09
9.5693495e-06
-3.5876715e-07
1.5913216e-09
9.7641524e-06
-3.4371396e-07
1.3004337e-09
9.9757945e-06
-3.215427e-07
7.5058838e-10
1.0193202e-05
-3.0050579e-07
-2.1997822e-10
1.0409968e-05
-2.8557317e-07
-1.5749196e-09
1.062513e-05
-2.8241105e-07
-3.1987574e-09
1.084542e-05
-3.022973e-07
-4.5949226e-09
1.1094646e-05
-3.7047509e-07
-3.6277123e-09
1.1433579e-05
-5.4064921e-07
5.6298551e-09
1.1982523e-05
-8.9965008e-07
3.9824635e-08
1.2773896e-05
-1.3877606e-06
1.1603109e-07
1.3401686e-05
-1.1938832e-06
1.8329024e-07
1.3829571e-05
-7.777949e-07
2.1178802e-07
1.410898e-05
-4.6310473e-07
2.2657212e-07
1.4292108e-05
-3.1242278e-07
2.5068941e-07
1.437346e-05
-2.5662764e-07
2.8727765e-07
1.4370672e-05
-3.5577019e-07
3.3792813e-07
1.4338113e-05
-5.7152506e-07
3.9097595e-07
1.4300847e-05
-7.7411997e-07
4.2149737e-07
1.4295773e-05
-8.6096187e-07
4.1542182e-07
1.4375071e-05
-7.9232271e-07
3.7661648e-07
1.4543232e-05
-5.2698636e-07
3.2465155e-07
1.4702688e-05
-4.9117259e-08
2.8834099e-07
1.4388522e-05
9.3100021e-07
1.9828658e-07
1.3327147e-05
2.1154706e-06
3.8355953e-08
1.1349119e-05
3.6984558e-06
-2.7808069e-07
5.7394836e-06
-6.3375899e-07
9.2617545e-06
-2.0985709e-07
7.900374e-10
9.2170452e-06
-2.7914486e-07
1.3590103e-09
9.1684505e-06
-2.9275384e-07
1.6406334e-09
9.1218708e-06
-2.9388083e-07
1.6037665e-09
9.0836508e-06
-2.8897966e-07
1.2085473e-09
9.0531865e-06
-2.7957409e-07
4.7355384e-10
9.0259696e-06
-2.700154e-07
-1.2369792e-09
8.9943151e-06
-2.6528564e-07
-3.7052663e-09
8.9511018e-06
-2.7161769e-07
-7.5971804e-09
8.8881927e-06
-3.0240493e-07
-1.3325532e-08
8.7998636e-06
-3.8946459e-07
-2.0279988e-08
8.6997098e-06
-6.1408683e-07
-2.1527331e-08
8.7097272e-06
-1.1821465e-06
4.8177187e-09
9.2102588e-06
-2.2993634e-06
1.2704864e-07
9.081707e-06
-1.4082844e-06
2.2865263e-07
8.709235e-06
-6.5126291e-07
2.2050974e-07
8.2713072e-06
-2.790763e-07
1.7758809e-07
7.6348586e-06
-5.4504909e-08
1.3809086e-07
6.8124845e-06
-6.0527445e-08
1.2997747e-07
5.7902947e-06
-2.2905468e-07
1.0478189e-07
4.6455686e-06
-5.3541823e-07
4.0780688e-08
3.564951e-06
-9.0264913e-07
-3.0424122e-08
2.8094133e-06
-1.2408871e-06
-1.0128888e-07
2.671267e-06
-1.4491575e-06
-2.6383712e-07
3.3813796e-06
-1.5348416e-06
-4.8504196e-07
4.9105814e-06
-1.339193e-06
-7.8257942e-07
6.4801079e-06
-2.9709653e-07
-1.0500925e-06
7.3637972e-06
9.4887875e-07
-1.3031136e-06
7.2136207e-06
2.7255932e-06
-1.593919e-06
4.7242268e-06
-1.7681587e-06
9.0658756e-06
7.7830227e-10
8.7995915e-06
1.3346235e-09
8.523253e-06
1.5978871e-09
8.2464642e-06
1.5259389e-09
7.9723533e-06
1.0672659e-09
7.7021962e-06
9.4577232e-11
7.4324263e-06
-2.0768046e-09
7.1513613e-06
-5.7702288e-09
6.8404291e-06
-1.2551475e-08
6.4633475e-06
-2.5405755e-08
5.9454019e-06
-5.0490414e-08
5.1179538e-06
-1.0024987e-07
3.5694282e-06
-1.9281527e-07
4.3388916e-07
-1.8222315e-07
-2.3530174e-06
-8.5908176e-08
-4.2644885e-06
-1.227742e-07
-5.5537669e-06
-2.5371304e-07
-6.2417608e-06
-4.1938989e-07
-6.2547752e-06
-5.6242406e-07
-5.5917719e-06
-6.265862e-07
-4.7232994e-06
-6.385553e-07
-3.9146173e-06
-6.8734e-07
-3.2618887e-06
-7.9752248e-07
-2.7280217e-06
-9.2380733e-07
-2.2790675e-06
-1.0504108e-06
-1.8705371e-06
-1.1442791e-06
-1.0549163e-06
-1.7979508e-06
4.4923931e-08
-2.3854485e-06
1.8230133e-06
-2.7466385e-06
-2.6660659e-06
9.573947e-06
-2.9845462e-07
-5.9131312e-09
9.8503892e-06
-2.6509745e-07
-1.0397924e-08
1.0119012e-05
-2.5501654e-07
-1.2544854e-08
1.0347423e-05
-2.1471042e-07
-1.2704359e-08
1.0524586e-05
-1.6502126e-07
-1.1343414e-08
1.0655432e-05
-1.2167689e-07
-8.6670587e-09
1.0747953e-05
-8.776528e-08
-4.7109323e-09
1.080974e-05
-6.2336238e-08
-6.6608045e-11
1.084715e-05
-4.6016226e-08
7.2361341e-09
1.0871486e-05
-4.2280317e-08
1.5819732e-08
1.0905217e-05
-6.1371273e-08
2.5480825e-08
1.0998113e-05
-1.2542844e-07
3.3496185e-08
1.1231996e-05
-2.518633e-07
3.1585211e-08
1.1642862e-05
-3.7125922e-07
7.7540744e-09
1.2044376e-05
-2.6393378e-07
-4.290753e-08
1.2353583e-05
-6.3203111e-08
-1.048089e-07
1.2590981e-05
1.2565788e-07
-1.7464817e-07
1.278852e-05
3.1138652e-07
-2.6346817e-07
1.2975932e-05
5.1026213e-07
-3.7845945e-07
1.3167459e-05
7.3953298e-07
-5.1647283e-07
1.3363436e-05
1.0096741e-06
-6.7787023e-07
1.3548594e-05
1.323627e-06
-8.6269362e-07
1.3696556e-05
1.6711016e-06
-1.0663443e-06
1.3773062e-05
2.0337996e-06
-1.2770602e-06
1.3725072e-05
2.398751e-06
-1.4727997e-06
1.3450837e-05
2.7720621e-06
-1.6183386e-06
1.2760813e-05
3.1816404e-06
-1.6667854e-06
1.1368394e-05
3.6400833e-06
-1.5535475e-06
8.7642763e-06
4.2037324e-06
-1.1244028e-06
5.3212228e-06
-4.547669e-07
9.2015416e-06
-2.2403231e-07
-6.2227581e-09
9.2869669e-06
-3.37205e-07
-1.1988958e-08
9.4074469e-06
-3.5859773e-07
-1.5293451e-08
9.5690264e-06
-3.588126e-07
-1.588193e-08
9.7631726e-06
-3.4394655e-07
-1.3914828e-08
9.9737124e-06
-3.2220562e-07
-9.2531617e-09
1.0189488e-05
-3.0201489e-07
-1.7363476e-09
1.0403656e-05
-2.8898305e-07
1.0919084e-08
1.061597e-05
-2.9043283e-07
2.8935732e-08
1.0837068e-05
-3.2158874e-07
5.3685543e-08
1.1104111e-05
-4.1690587e-07
8.5022647e-08
1.1513199e-05
-6.4486217e-07
1.1632006e-07
1.2223705e-05
-1.0550081e-06
1.3302587e-07
1.3028491e-05
-1.1756311e-06
1.156179e-07
1.3654947e-05
-7.8627113e-07
7.8786427e-08
1.4146926e-05
-4.1369362e-07
6.9689911e-08
1.4534549e-05
-1.3713843e-07
1.0003997e-07
1.4841418e-05
1.1044301e-07
1.4231944e-07
1.5090722e-05
3.4008042e-07
2.0523256e-07
1.5321515e-05
5.6034633e-07
2.8354657e-07
1.5542685e-05
8.197137e-07
3.5835699e-07
1.5734018e-05
1.1492815e-06
4.057623e-07
1.5868278e-05
1.549679e-06
4.0720535e-07
1.5909609e-05
2.0185518e-06
3.5845589e-07
1.579673e-05
2.569779e-06
2.7678422e-07
1.5386164e-05
3.2632419e-06
2.1869488e-07
1.4389923e-05
4.0738824e-06
3.1243943e-07
1.2548035e-05
4.9473932e-06
5.8037165e-07
9.4730724e-06
5.956462e-06
1.0463507e-06
7.3758598e-06
1.7460312e-06
9.2617738e-06
-2.0984853e-07
-6.2071511e-09
9.2170479e-06
-2.791385e-07
-1.1982022e-08
9.1682757e-06
-2.9276997e-07
-1.5415403e-08
9.1211642e-06
-2.9396758e-07
-1.6130099e-08
9.0817574e-06
-2.8924283e-07
-1.408856e-08
9.0491773e-06
-2.8021488e-07
-8.9371903e-09
9.0180463e-06
-2.7146784e-07
-6.5303074e-10
8.9785746e-06
-2.686902e-07
1.5473685e-08
8.9214572e-06
-2.8009531e-07
3.9183779e-08
8.8360954e-06
-3.2416378e-07
7.4616869e-08
8.7209432e-06
-4.4789868e-07
1.2588334e-07
8.6426923e-06
-7.7987257e-07
1.9177882e-07
8.951288e-06
-1.5988043e-06
2.3986263e-07
9.4935875e-06
-1.8398398e-06
2.4619032e-07
9.4100133e-06
-6.6992234e-07
1.9428051e-07
9.3031143e-06
-3.0450195e-07
2.1793746e-07
9.1010345e-06
-2.0877461e-08
2.6417067e-07
8.8637194e-06
1.3040795e-07
3.5590143e-07
8.7239877e-06
1.2368136e-07
4.8582558e-07
8.7078141e-06
9.6365521e-09
6.7086557e-07
8.8231195e-06
-1.138211e-07
8.5894748e-07
9.1707047e-06
-1.7732798e-07
9.4767917e-07
9.7458339e-06
-5.2204001e-08
9.2106704e-07
1.0489765e-05
2.0288789e-07
8.0476283e-07
1.133069e-05
6.1838424e-07
6.2435644e-07
1.1824029e-05
1.458314e-06
5.3030404e-07
1.1475153e-05
2.5744082e-06
8.0122529e-07
1.014673e-05
3.6360141e-06
1.339094e-06
7.4948781e-06
4.9887284e-06
2.0245555e-06
6.6833707e-06
2.7477838e-06
9.065883e-06
-6.0011758e-09
8.7995484e-06
-1.1469637e-08
8.5229435e-06
-1.4567553e-08
8.2454104e-06
-1.4908941e-08
7.9696599e-06
-1.2425421e-08
7.6963332e-06
-6.7939481e-09
7.4201362e-06
2.6518413e-09
7.1247418e-06
2.0933432e-08
6.7829564e-06
4.913785e-08
6.3382933e-06
9.509224e-08
5.667762e-06
1.7213839e-07
4.4809713e-06
3.0661574e-07
2.1293064e-06
5.5885399e-07
-9.614109e-07
1.0493893e-06
-3.0520045e-06
1.3314489e-06
-4.4878213e-06
1.0071845e-06
-5.4695487e-06
7.0471341e-07
-5.9527142e-06
1.8999451e-07
-5.8811211e-06
-5.1734116e-07
-5.3675673e-06
-1.1386022e-06
-4.6146698e-06
-1.5142114e-06
-3.7790944e-06
-1.7092567e-06
-2.8066634e-06
-1.8323196e-06
-1.6123631e-06
-1.927849e-06
-1.8177908e-07
-1.8711038e-06
1.2771251e-06
-1.1457141e-06
2.0313653e-06
1.8597613e-08
1.972577e-06
1.306293e-06
1.8191626e-06
2.3974027e-06
3.1588626e-06
9.5769757e-06
-2.9799566e-07
-1.5909945e-08
9.8574412e-06
-2.6440961e-07
-2.6418383e-08
1.0129677e-05
-2.5428205e-07
-3.0448555e-08
1.0361168e-05
-2.1412973e-07
-3.0009466e-08
1.0541351e-05
-1.6477116e-07
-2.6690203e-08
1.0675655e-05
-1.2182171e-07
-2.1075686e-08
1.0772569e-05
-8.8239114e-08
-1.3307591e-08
1.083857e-05
-6.3261788e-08
-2.7337802e-09
1.0882195e-05
-4.5935198e-08
9.6505784e-09
1.0911946e-05
-3.8234881e-08
2.4468423e-08
1.0942722e-05
-4.6132772e-08
4.1113214e-08
1.1004179e-05
-8.3912306e-08
5.6435645e-08
1.1149835e-05
-1.756474e-07
6.2411502e-08
1.146441e-05
-3.5328517e-07
4.7681324e-08
1.1829887e-05
-4.0359273e-07
-3.4057979e-09
1.2121671e-05
-2.7920695e-07
-1.1593606e-07
1.2303918e-05
-1.2328825e-07
-2.3201437e-07
1.2419325e-05
-5.0380962e-08
-3.2662674e-07
1.2498554e-05
-5.6378364e-08
-3.9892392e-07
1.2561967e-05
-1.1643059e-07
-4.6018519e-07
1.2626334e-05
-2.1432963e-07
-5.2351854e-07
1.2695693e-05
-3.2984978e-07
-5.9692158e-07
1.2765006e-05
-4.4868546e-07
-6.816669e-07
1.2830617e-05
-5.6478024e-07
-7.7383285e-07
1.2890668e-05
-6.6308351e-07
-8.6806797e-07
1.2910649e-05
-6.7929641e-07
-9.6023355e-07
1.2759462e-05