/*--------------------------------*- C++ -*----------------------------------*\
| =========                 |                                                 |
| \\      /  F ield         | OpenFOAM: The Open Source CFD Toolbox           |
|  \\    /   O peration     | Version:  v2012                                 |
|   \\  /    A nd           | Website:  www.openfoam.com                      |
|    \\/     M anipulation  |                                                 |
\*---------------------------------------------------------------------------*/
FoamFile
{
    version     2.0;
    format      ascii;
    class       volScalarField;
    location    "400/topAir";
    object      rho;
}
// * * * * * * * * * * * * * * * * * * * * * * * * * * * * * * * * * * * * * //

dimensions      [1 -3 0 0 0 0 0];


internalField   nonuniform List<scalar> 
1200
(
1.0737557
1.0056014
0.95098157
0.90557646
0.8665867
0.83235016
0.80192208
0.77495697
0.75150967
0.73115686
0.71367546
0.69902112
0.68749754
0.68630358
0.68820581
0.69332473
0.70104806
0.71018087
0.7194512
0.72789904
0.73498488
0.74049292
0.74440068
0.74676393
0.74764309
0.74705267
0.74489698
0.74084113
0.73409603
0.72369416
1.1566515
1.1529531
1.1479268
1.1418243
1.1348313
1.127096
1.1187527
1.1093991
1.096722
1.0801767
1.0575225
1.0279064
0.99181081
0.95494233
0.92122588
0.89338091
0.8719487
0.85631839
0.84569212
0.83932918
0.83629585
0.83543394
0.83561371
0.83586092
0.83535184
0.83330732
0.82880718
0.82047612
0.80596094
0.78325222
1.1585763
1.1584523
1.1582223
1.1578639
1.157358
1.1566887
1.1558433
1.1547992
1.1534757
1.151781
1.1494476
1.1421669
1.1229396
1.0905839
1.0499865
1.0072111
0.9673723
0.93352516
0.90629098
0.8854887
0.87044744
0.86012147
0.85330298
0.84881779
0.84562405
0.84281038
0.83950323
0.83464618
0.82645273
0.81233305
1.158618
1.1586139
1.158604
1.1585847
1.1585511
1.1584978
1.1584179
1.1583032
1.1581416
1.1579146
1.1575776
1.1568472
1.1544893
1.1408792
1.1072118
1.0639543
1.0220989
0.98484831
0.95286563
0.92633561
0.90517101
0.88891516
0.87677461
0.8678172
0.86114105
0.85594213
0.85149413
0.84701632
0.8413287
0.83253968
1.0737791
1.0063128
0.9528234
0.90887401
0.8716633
0.8395726
0.81169016
0.78751388
0.76686491
0.74979218
0.73656355
0.72756763
0.72340591
0.7331506
0.7472919
0.76421935
0.7810444
0.79507661
0.80520804
0.81179364
0.81581066
0.81806671
0.81902376
0.81882549
0.81743216
0.81470213
0.81033789
0.80356285
0.79258719
0.77634491
1.1566543
1.153025
1.1481882
1.1424305
1.1359724
1.1289981
1.1216888
1.1142418
1.1068823
1.0998825
1.0935957
1.0884419
1.0848968
1.0837062
1.0844349
1.0853211
1.0840144
1.0794445
1.072365
1.064041
1.0552616
1.0461318
1.0365377
1.0262519
1.0150415
1.0027557
0.98936895
0.97507889
0.95985249
0.93598377
1.1585764
1.1584558
1.1582377
1.1579068
1.1574524
1.1568682
1.1561532
1.1553125
1.1543587
1.1533171
1.1522286
1.1510723
1.1498412
1.1485329
1.1454866
1.1377485
1.1222977
1.0998008
1.0750984
1.0522213
1.0329064
1.0147491
0.99765351
0.98141587
0.9660002
0.95100388
0.93532083
0.91875242
0.9012934
0.88263877
1.158618
1.1586141
1.1586048
1.1585874
1.1585581
1.1585132
1.1584485
1.1583595
1.1582416
1.15809
1.1578967
1.1576263
1.1570655
1.1545922
1.1448864
1.1213057
1.0851763
1.0442382
1.0054284
0.97156557
0.94398853
0.92374154
0.90819781
0.89570575
0.88521036
0.8764147
0.86931176
0.86315527
0.85711367
0.85056355
1.0737999
1.0062233
0.95260062
0.90850619
0.87112498
0.83882026
0.81060415
0.78583111
0.76413858
0.74539253
0.72967892
0.71733804
0.70929358
0.71647562
0.72941455
0.74687758
0.76600668
0.78451198
0.80117084
0.81544187
0.82716936
0.83631486
0.84277102
0.84637542
0.84707418
0.84503998
0.84061144
0.83386092
0.82325451
0.80242095
1.1566545
1.1530138
1.1481559
1.1423712
1.1358783
1.1288532
1.1214548
1.113842
1.1061978
1.0987578
1.0918441
1.0859423
1.0817956
1.0806819
1.0823314
1.0841156
1.083765
1.0811047
1.0763303
1.069681
1.0613827
1.051385
1.0394027
1.0252431
1.0090217
0.99110092
0.97167614
0.95129068
0.93049474
0.90619098
1.1585764
1.1584553
1.158236
1.1579035
1.1574476
1.156862
1.1561453
1.1553009
1.1543398
1.153285
1.152182
1.1511127
1.1502115
1.1494412
1.1463219
1.1357326
1.1198701
1.1045415
1.0895619
1.0742098
1.0581083
1.04016
1.0195081
0.99657017
0.97272807
0.94978244
0.92839449
0.90892137
0.89081184
0.8710213
1.158618
1.158614
1.1586048
1.1585872
1.1585579
1.1585132
1.158449
1.1583611
1.1582456
1.1580986
1.1579169
1.1576934
1.1573497
1.1557956
1.1434487
1.1080938
1.0709327
1.0526928
1.0298001
0.99953033
0.97080734
0.94768357
0.92952262
0.91491733
0.90271585
0.89228164
0.88324262
0.87521651
0.86332313
0.84597519
1.0738185
1.0062138
0.95251302
0.90828972
0.87070355
0.83806984
0.80933341
0.7837811
0.76091129
0.740408
0.72215223
0.70633241
0.69391459
0.69664672
0.70178592
0.70583201
0.70730199
0.70706549
0.70685719
0.70792276
0.7108171
0.71547855
0.72142781
0.72795786
0.73439918
0.73991599
0.74250186
0.73825473
0.72411637
0.70841865
1.1566548
1.1530104
1.148139
1.1423259
1.1357817
1.1286674
1.1211166
1.1132515
1.1052005
1.0971325
1.0893268
1.0823083
1.0770298
1.0748731
1.0736911
1.0705234
1.0658354
1.060569
1.0551561
1.0493758
1.0426955
1.0343622
1.0236692
1.0102476
0.99407899
0.97516364
0.95397855
0.93353718
0.90705301
0.84464021
1.1585764
1.1584551
1.158235
1.1579005
1.1574403
1.1568469
1.1561161
1.1552475
1.1542464
1.1531292
1.1519373
1.150769
1.1497845
1.1482973
1.138557
1.1204733
1.1062189
1.0957027
1.0857677
1.0734874
1.0566984
1.0345706
1.0079122
0.97931986
0.95129116
0.92471868
0.89945519
0.88190312
0.86756848
0.84041484
1.158618
1.158614
1.1586047
1.158587
1.1585574
1.158512
1.1584465
1.1583562
1.1582363
1.1580819
1.1578872
1.1576316
1.1570252
1.1519645
1.1094445
1.0371992
1.0022521
1.0002376
1.0030685
0.99540823
0.97511698
0.95314599
0.93684687
0.92266428
0.90946971
0.89573986
0.87486692
0.8538529
0.83206558
0.81822953
1.0738368
1.0062324
0.95251959
0.90827669
0.87066373
0.83799345
0.8092083
0.78359273
0.76066474
0.74014185
0.72199584
0.70662785
0.69534436
0.70170183
0.70734922
0.70891907
0.70627969
0.70072989
0.69458757
0.68839252
0.6825999
0.67758926
0.67363672
0.67087863
0.66928356
0.66857193
0.66799882
0.66618077
0.66127414
0.65146262
1.1566552
1.1530098
1.1481338
1.142311
1.135751
1.1286126
1.1210275
1.1131162
1.1050109
1.0969032
1.0891445
1.0824313
1.0779305
1.0762711
1.0725335
1.0670791
1.0607577
1.0526149
1.0418609
1.0309248
1.021069
1.0114688
0.99990273
0.9844073
0.96412201
0.93884855
0.90736117
0.86866426
0.81935798
0.7588191
1.1585764
1.158455
1.1582346
1.1578991
1.1574371
1.1568404
1.1561042
1.1552276
1.1542155
1.1530868
1.1518949
1.1507705
1.1497973
1.1459926
1.1262363
1.1118869
1.1029585
1.0972839
1.0907867
1.0801164
1.0622062
1.0356826
1.0030766
0.97013039
0.94181648
0.92039582
0.90605822
0.88491359
0.84986591
0.79787549
1.158618
1.158614
1.1586047
1.1585869
1.1585572
1.1585114
1.1584451
1.1583535
1.1582313
1.1580726
1.1578689
1.1575623
1.1562356
1.1417304
1.0294518
0.98422439
0.97266249
0.96568252
0.95934076
0.95284773
0.94426565
0.93272253
0.92062189
0.90852748
0.89620911
0.8824743
0.86773641
0.85319338
0.82813516
0.79717219
1.0738424
1.0062422
0.95253305
0.90829515
0.87068952
0.83802862
0.80925793
0.7836695
0.76080342
0.74043311
0.72266007
0.708123
0.69805961
0.70357699
0.70617984
0.70440751
0.70076873
0.69564412
0.68975494
0.68362083
0.67768014
0.67231887
0.66784691
0.66445343
0.66214182
0.66061505
0.65912029
0.65639091
0.65071589
0.63986688
1.1566553
1.1530102
1.1481346
1.1423124
1.1357533
1.1286168
1.1210362
1.113137
1.1050662
1.0970553
1.0895553
1.0834411
1.0796929
1.0762172
1.0709061
1.0644244
1.0528893
1.0355492
1.0136787
0.98789506
0.95899812
0.92797618
0.89599107
0.86427624
0.83391773
0.80557374
0.77873787
0.75231466
0.72522916
0.69357343
1.1585764
1.158455
1.1582346
1.1578992
1.1574372
1.1568405
1.1561045
1.1552286
1.1542194
1.1531019
1.1519482
1.1509107
1.1494386
1.1373466
1.1229612
1.1134042
1.1080169
1.1016397
1.0923557
1.0793774
1.0604108
1.0357111
1.0073151
0.97554389
0.94126778
0.90547701
0.86847137
0.8295991
0.78752182
0.73890399
1.158618
1.158614
1.1586047
1.1585869
1.1585572
1.1585113
1.158445
1.1583532
1.1582306
1.1580705
1.1578577
1.1573972
1.1530764
1.0938378
0.99710838
0.9789666
0.97192343
0.96686996
0.96008478
0.9506832
0.94040009
0.92992089
0.92021722
0.912357
0.90462731
0.89164493
0.87312032
0.84322219
0.80311843
0.75860948
1.0738459
1.0062613
0.95257767
0.90837138
0.87080566
0.8381951
0.80948499
0.78396867
0.76116197
0.74078549
0.72279934
0.70755626
0.69618377
0.69968542
0.70359117
0.70475905
0.70308595
0.7002969
0.6979118
0.69685783
0.69766429
0.70039013
0.70472049
0.71012909
0.71583849
0.72038868
0.72126102
0.71595387
0.70725634
0.69235097
1.1566555
1.1530124
1.1481431
1.1423327
1.1357922
1.1286829
1.1211402
1.1132902
1.1052726
1.0972852
1.0896755
1.0831013
1.0785865
1.0764818
1.0735961
1.0688984
1.0632378
1.0572156
1.0508702
1.0438485
1.035509
1.0252404
1.0128064
0.99839109
0.98226197
0.96453368
0.94546467
0.92447097
0.87957448
0.8116299
1.1585764
1.1584551
1.1582352
1.1579008
1.1574408
1.1568477
1.1561174
1.1552499
1.154252
1.1531443
1.1519816
1.1508874
1.1498766
1.1457679
1.1314807
1.1172868
1.1075155
1.0997927
1.0905114
1.0775799
1.0599635
1.0375893
1.0116208
0.98338249
0.95342031
0.92295379
0.89606192
0.87527635
0.85149303
0.81160076
1.158618
1.158614
1.1586047
1.158587
1.1585574
1.158512
1.1584465
1.1583561
1.1582359
1.1580808
1.1578825
1.1575747
1.1560424
1.1389447
1.0775501
1.0083112
1.0015324
1.0015391
0.99886949
0.9818446
0.96186869
0.94366246
0.92755076
0.91264481
0.89670201
0.87733016
0.85661229
0.83781852
0.81912197
0.79437636
1.0738543
1.0063174
0.95272699
0.90866178
0.871311
0.83904053
0.81086366
0.78613832
0.76450778
0.74585858
0.7303261
0.71836522
0.71109617
0.7194395
0.73303035
0.74940838
0.76617516
0.78222755
0.79703059
0.81027544
0.82182221
0.83144459
0.83870183
0.8431013
0.84436379
0.84255555
0.83797474
0.83067869
0.81857338
0.79787952
1.1566559
1.1530178
1.148164
1.1423845
1.1358983
1.1288818
1.1214951
1.1138998
1.1062857
1.0989045
1.0921187
1.0864956
1.0828828
1.0823378
1.0835171
1.0835898
1.081713
1.078224
1.0730986
1.0663438
1.0578895
1.0473874
1.0344144
1.0188104
1.0007481
0.980656
0.9591215
0.93690715
0.91275578
0.88387388
1.1585764
1.1584554
1.1582363
1.1579042
1.1574486
1.1568637
1.1561477
1.1553046
1.1543459
1.1532973
1.1522116
1.1511869
1.1503431
1.149011
1.142807
1.1290374
1.1138629
1.10059
1.0869469
1.0724712
1.0565023
1.0377077
1.015529
0.99054898
0.96396364
0.93786115
0.91472538
0.89512695
0.87346978
0.84591709
1.158618
1.158614
1.1586048
1.1585872
1.158558
1.1585133
1.158449
1.158361
1.1582452
1.1580977
1.1579143
1.1576764
1.1570993
1.1525917
1.1288529
1.0835557
1.0545699
1.0473926
1.0215503
0.98977788
0.96170829
0.93987895
0.92267097
0.90853858
0.89648676
0.88638191
0.87784484
0.86981251
0.85151313
0.81741717
1.0738569
1.0064444
0.95299608
0.90908369
0.8719109
0.83986125
0.81202307
0.78788936
0.76727842
0.75024057
0.73705475
0.72816391
0.72430352
0.73477142
0.75002434
0.76801234
0.78532648
0.79924335
0.80886621
0.81481191
0.81822733
0.82000494
0.82062493
0.820225
0.81873781
0.8159415
0.81150947
0.80480353
0.79402089
0.77606078
1.1566563
1.1530307
1.1481993
1.1424487
1.1359996
1.129036
1.121739
1.1143059
1.1069614
1.0999842
1.093742
1.088692
1.0853807
1.0846156
1.0857687
1.0866867
1.0848054
1.0793974
1.0714787
1.0624192
1.0529079
1.0429671
1.0323972
1.0209048
1.008257
0.99435656
0.97932664
0.96345844
0.94636567
0.92479345
1.1585764
1.1584559
1.1582381
1.1579076
1.1574538
1.1568705
1.1561563
1.1553165
1.1543639
1.1533242
1.1522412
1.1511138
1.149943
1.1487213
1.1454427
1.136932
1.1199479
1.0964097
1.0709795
1.0478716
1.0278899
1.0089105
0.99107585
0.97446294
0.9590082
0.9431915
0.92658184
0.90976356
0.8927433
0.87435081
1.158618
1.1586141
1.1586049
1.1585874
1.1585582
1.1585133
1.1584486
1.1583595
1.1582414
1.1580894
1.157896
1.1576307
1.1571044
1.1548163
1.1447596
1.1206125
1.0863695
1.0451808
1.00478
0.96957533
0.94172826
0.92142051
0.90564417
0.89279175
0.88186768
0.87343981
0.86665634
0.86076767
0.85494656
0.84655391
1.0738479
1.0057569
0.95118449
0.90582087
0.86687215
0.83267746
0.80228757
0.77534592
0.75191798
0.73158103
0.71411274
0.69947535
0.68799294
0.68692937
0.68905001
0.69443641
0.70237651
0.71161592
0.72087426
0.72920852
0.73610127
0.74136299
0.74499718
0.74707779
0.74767203
0.74678284
0.74430471
0.73992771
0.7328667
0.72189434
1.1566538
1.1529599
1.1479402
1.1418461
1.1348638
1.1271407
1.118811
1.1095072
1.0969162
1.0805455
1.0583553
1.0293665
0.99409311
0.95791356
0.92443484
0.89622444
0.87394652
0.85732784
0.8458461
0.83884768
0.83532486
0.83401899
0.83372908
0.83344953
0.83235939
0.82971028
0.8246845
0.81613469
0.80196758
0.78022948
1.1585763
1.1584525
1.1582228
1.1578649
1.1573598
1.1566915
1.1558472
1.1548055
1.1534869
1.151803
1.1495155
1.1429276
1.1255156
1.0949779
1.055714
1.0131604
0.97302801
0.93810804
0.90953281
0.88747306
0.87139977
0.86026202
0.8527885
0.84773889
0.84402481
0.84070993
0.83694362
0.83175736
0.82350581
0.80975306
1.158618
1.1586139
1.1586041
1.1585847
1.1585512
1.1584979
1.158418
1.1583033
1.1581416
1.1579147
1.1575809
1.1568948
1.1548112
1.1438819
1.1132841
1.0708099
1.0286357
0.9901218
0.95652656
0.92852213
0.9062328
0.88918876
0.87649463
0.86711996
0.86009959
0.85460295
0.84989115
0.84519658
0.83938178
0.83065031
)
;

boundaryField
{
    maxY
    {
        type            calculated;
        value           nonuniform List<scalar> 
300
(
1.1586175
1.1586175
1.1586175
1.1586175
1.1586175
1.1586175
1.1586175
1.1586175
1.1586175
1.1586175
1.1586134
1.1586135
1.1586135
1.1586135
1.1586135
1.1586135
1.1586135
1.1586135
1.1586135
1.1586134
1.1586035
1.1586043
1.1586042
1.1586042
1.1586042
1.1586042
1.1586042
1.1586043
1.1586043
1.1586035
1.1585841
1.1585868
1.1585867
1.1585865
1.1585864
1.1585864
1.1585865
1.1585867
1.1585869
1.1585842
1.1585506
1.1585576
1.1585574
1.1585569
1.1585566
1.1585566
1.1585569
1.1585575
1.1585577
1.1585507
1.1584972
1.1585127
1.1585127
1.1585115
1.1585108
1.1585108
1.1585115
1.1585127
1.1585128
1.1584974
1.1584173
1.1584479
1.1584484
1.1584459
1.1584446
1.1584445
1.1584459
1.1584485
1.158448
1.1584175
1.1583027
1.1583589
1.1583606
1.1583557
1.158353
1.1583527
1.1583555
1.1583605
1.1583589
1.1583028
1.1581411
1.1582411
1.158245
1.1582358
1.1582308
1.15823
1.1582354
1.1582447
1.1582409
1.1581411
1.1579141
1.1580895
1.1580981
1.1580814
1.1580721
1.15807
1.1580802
1.1580971
1.1580889
1.1579142
1.157577
1.1578962
1.1579164
1.1578867
1.1578684
1.1578571
1.1578819
1.1579138
1.1578954
1.1575804
1.1568467
1.1576257
1.1576929
1.1576311
1.1575618
1.1573966
1.1575741
1.1576759
1.1576302
1.1568942
1.1544888
1.157065
1.1573492
1.1570246
1.156235
1.1530759
1.1560419
1.1570987
1.1571039
1.1548107
1.1408787
1.1545917
1.1557951
1.151964
1.1417299
1.0938373
1.1389442
1.1525911
1.1548157
1.1438813
1.1072113
1.1448859
1.1434481
1.1094441
1.0294513
0.99710799
1.0775497
1.1288524
1.1447591
1.1132836
1.0639539
1.1213052
1.1080933
1.0371988
0.98422401
0.97896622
1.0083108
1.0835552
1.120612
1.0708095
1.0220985
1.0851758
1.0709322
1.0022517
0.97266212
0.97192306
1.0015321
1.0545695
1.086369
1.0286353
0.98484793
1.0442378
1.0526924
1.0002372
0.96568215
0.96686959
1.0015387
1.0473922
1.0451804
0.99012141
0.95286528
1.005428
1.0297997
1.0030681
0.9593404
0.96008442
0.99886909
1.0215499
1.0047796
0.9565262
0.92633527
0.9715652
0.99952994
0.99540784
0.95284737
0.95068285
0.98184422
0.9897775
0.96957496
0.92852179
0.90517069
0.94398818
0.97080697
0.97511661
0.9442653
0.94039975
0.96186833
0.96170793
0.94172791
0.90623247
0.88891485
0.92374121
0.94768321
0.95314563
0.93272219
0.92992055
0.94366211
0.9398786
0.92142018
0.88918845
0.8767743
0.90819749
0.92952228
0.93684653
0.92062156
0.92021688
0.92755042
0.92267063
0.90564385
0.87649433
0.8678169
0.89570544
0.914917
0.92266394
0.90852716
0.91235667
0.91264449
0.90853826
0.89279143
0.86711967
0.86114075
0.88521006
0.90271553
0.90946939
0.89620879
0.90462699
0.89670169
0.89648645
0.88186738
0.8600993
0.85594184
0.8764144
0.89228133
0.89573955
0.88247399
0.89164462
0.87732986
0.8863816
0.87343951
0.85460267
0.85149384
0.86931147
0.88324231
0.87486662
0.86773612
0.87312002
0.856612
0.87784454
0.86665605
0.84989087
0.84701604
0.86315498
0.87521621
0.85385261
0.8531931
0.84322191
0.83781824
0.86981221
0.86076738
0.8451963
0.84132842
0.85711338
0.86332284
0.83206531
0.82813489
0.80311817
0.8191217
0.85151284
0.85494627
0.83938151
0.83253941
0.85056327
0.84597491
0.81822926
0.79717194
0.75860926
0.79437611
0.8174169
0.84655363
0.83065004
)
;
    }
    minX
    {
        type            calculated;
        value           nonuniform List<scalar> 
40
(
1.1586222
1.1586212
1.1586201
1.1586191
1.1586222
1.1586212
1.1586201
1.1586191
1.1586222
1.1586212
1.1586201
1.1586191
1.1586222
1.1586212
1.1586201
1.1586191
1.1586222
1.1586212
1.1586201
1.1586191
1.1586222
1.1586212
1.1586201
1.1586191
1.1586222
1.1586212
1.1586201
1.1586191
1.1586222
1.1586212
1.1586201
1.1586191
1.1586222
1.1586212
1.1586201
1.1586191
1.1586222
1.1586212
1.1586201
1.1586191
)
;
    }
    maxX
    {
        type            calculated;
        value           nonuniform List<scalar> 
40
(
0.72373662
0.78332233
0.81236588
0.8325288
0.77642404
0.93608957
0.88256489
0.85051719
0.80259385
0.90629432
0.8708794
0.845683
0.70835911
0.84461764
0.84042201
0.81904529
0.65140235
0.75869655
0.79778189
0.79829409
0.63976048
0.69347697
0.73870373
0.75970392
0.69226461
0.81082271
0.81139319
0.79554882
0.79774928
0.88393654
0.84607012
0.81785414
0.77607322
0.92489731
0.87453911
0.84677934
0.7219261
0.78033452
0.80984719
0.83070902
)
;
    }
    minZ
    {
        type            calculated;
        value           nonuniform List<scalar> 
120
(
1.0737557
1.1566515
1.1585763
1.158618
1.0056014
1.1529531
1.1584523
1.1586139
0.95098157
1.1479268
1.1582223
1.158604
0.90557646
1.1418243
1.1578639
1.1585847
0.8665867
1.1348313
1.157358
1.1585511
0.83235016
1.127096
1.1566887
1.1584978
0.80192208
1.1187527
1.1558433
1.1584179
0.77495697
1.1093991
1.1547992
1.1583032
0.75150967
1.096722
1.1534757
1.1581416
0.73115686
1.0801767
1.151781
1.1579146
0.71367546
1.0575225
1.1494476
1.1575776
0.69902112
1.0279064
1.1421669
1.1568472
0.68749754
0.99181081
1.1229396
1.1544893
0.68630358
0.95494233
1.0905839
1.1408792
0.68820581
0.92122588
1.0499865
1.1072118
0.69332473
0.89338091
1.0072111
1.0639543
0.70104806
0.8719487
0.9673723
1.0220989
0.71018087
0.85631839
0.93352516
0.98484831
0.7194512
0.84569212
0.90629098
0.95286563
0.72789904
0.83932918
0.8854887
0.92633561
0.73498488
0.83629585
0.87044744
0.90517101
0.74049292
0.83543394
0.86012147
0.88891516
0.74440068
0.83561371
0.85330298
0.87677461
0.74676393
0.83586092
0.84881779
0.8678172
0.74764309
0.83535184
0.84562405
0.86114105
0.74705267
0.83330732
0.84281038
0.85594213
0.74489698
0.82880718
0.83950323
0.85149413
0.74084113
0.82047612
0.83464618
0.84701632
0.73409603
0.80596094
0.82645273
0.8413287
0.72369416
0.78325222
0.81233305
0.83253968
)
;
    }
    maxZ
    {
        type            calculated;
        value           nonuniform List<scalar> 
120
(
1.0738479
1.1566538
1.1585763
1.158618
1.0057569
1.1529599
1.1584525
1.1586139
0.95118449
1.1479402
1.1582228
1.1586041
0.90582087
1.1418461
1.1578649
1.1585847
0.86687215
1.1348638
1.1573598
1.1585512
0.83267746
1.1271407
1.1566915
1.1584979
0.80228757
1.118811
1.1558472
1.158418
0.77534592
1.1095072
1.1548055
1.1583033
0.75191798
1.0969162
1.1534869
1.1581416
0.73158103
1.0805455
1.151803
1.1579147
0.71411274
1.0583553
1.1495155
1.1575809
0.69947535
1.0293665
1.1429276
1.1568948
0.68799294
0.99409311
1.1255156
1.1548112
0.68692937
0.95791356
1.0949779
1.1438819
0.68905001
0.92443484
1.055714
1.1132841
0.69443641
0.89622444
1.0131604
1.0708099
0.70237651
0.87394652
0.97302801
1.0286357
0.71161592
0.85732784
0.93810804
0.9901218
0.72087426
0.8458461
0.90953281
0.95652656
0.72920852
0.83884768
0.88747306
0.92852213
0.73610127
0.83532486
0.87139977
0.9062328
0.74136299
0.83401899
0.86026202
0.88918876
0.74499718
0.83372908
0.8527885
0.87649463
0.74707779
0.83344953
0.84773889
0.86711996
0.74767203
0.83235939
0.84402481
0.86009959
0.74678284
0.82971028
0.84070993
0.85460295
0.74430471
0.8246845
0.83694362
0.84989115
0.73992771
0.81613469
0.83175736
0.84519658
0.7328667
0.80196758
0.82350581
0.83938178
0.72189434
0.78022948
0.80975306
0.83065031
)
;
    }
    topAir_to_rightSolid
    {
        type            calculated;
        value           nonuniform List<scalar> 
130
(
0.46329043
0.4583909
0.45340296
0.44857904
0.44409374
0.44004988
0.43649773
0.43345666
0.43093304
0.42892933
0.42743747
0.42644777
0.42595339
0.4669242
0.46113605
0.45539487
0.44998775
0.44507447
0.44072649
0.43696644
0.4337877
0.43116991
0.42910181
0.42756765
0.42655259
0.42604616
0.47441002
0.46651947
0.45912789
0.45252704
0.44678425
0.44187602
0.43774409
0.43432042
0.43154419
0.42936621
0.42776033
0.42670271
0.42617603
0.48606098
0.47401716
0.46388368
0.45554797
0.44872038
0.44312941
0.43856411
0.43486317
0.43190794
0.42961423
0.42792739
0.42682079
0.4262714
0.50059478
0.48143411
0.46796574
0.45793495
0.45018231
0.44405991
0.43916819
0.43525447
0.43216056
0.42978434
0.42804383
0.42690476
0.42634063
0.50086322
0.48170863
0.46822051
0.45815858
0.4503706
0.444209
0.43928546
0.435345
0.4322318
0.42984457
0.42809829
0.42695213
0.42638362
0.48676554
0.47471944
0.46454273
0.45613696
0.44922798
0.44355912
0.43892084
0.43515136
0.43213701
0.429809
0.42809516
0.42696706
0.42640634
0.47540936
0.46748564
0.46003179
0.4533408
0.44750107
0.44250011
0.43828277
0.43478152
0.43193857
0.42970893
0.42805177
0.42695716
0.42641146
0.46811355
0.46228244
0.4564679
0.45095601
0.445931
0.44148298
0.43763223
0.43437291
0.43168518
0.42954806
0.42795311
0.42689783
0.42637061
0.46454682
0.45960469
0.45454802
0.44962678
0.44501858
0.44086794
0.43722461
0.43410371
0.43150274
0.4294208
0.42786915
0.42683981
0.42632729
)
;
    }
    topAir_to_heater
    {
        type            calculated;
        value           nonuniform List<scalar> 
40
(
0.4755135
0.47413391
0.47148268
0.46776996
0.48164673
0.47999982
0.47681076
0.47231933
0.49511476
0.4928848
0.4884687
0.48210279
0.51874204
0.51568365
0.50923905
0.49916819
0.55763944
0.55442714
0.54619565
0.53032494
0.5578561
0.55464321
0.54641571
0.53056054
0.51943985
0.51638491
0.50993601
0.49986607
0.49615657
0.49393057
0.48950411
0.48312374
0.48289645
0.48124616
0.47804411
0.47353616
0.4768221
0.4754411
0.47278299
0.46905518
)
;
    }
    topAir_to_leftSolid
    {
        type            calculated;
        value           nonuniform List<scalar> 
130
(
0.39385575
0.39388665
0.39393719
0.39400114
0.39407948
0.39417325
0.39427881
0.39438905
0.3945016
0.39460876
0.39470464
0.394771
0.39480585
0.39386943
0.3938965
0.39394418
0.39400688
0.3940855
0.39418256
0.39428916
0.3944045
0.39452315
0.39464074
0.39474745
0.39482397
0.39486587
0.39390815
0.39392811
0.39396947
0.39403488
0.39411561
0.39421146
0.39432613
0.39445073
0.39457978
0.39470929
0.39483225
0.39493271
0.39498684
0.3939678
0.39398779
0.39403065
0.39409633
0.39417975
0.39428061
0.39439777
0.39453391
0.39467486
0.39481809
0.39495443
0.39507288
0.39514598
0.3940201
0.39404401
0.39409339
0.39416622
0.39425874
0.39436686
0.39448811
0.39462318
0.39477644
0.39493407
0.39508114
0.39520515
0.39528376
0.39403942
0.39406647
0.39412173
0.39420684
0.39431531
0.3944327
0.39456017
0.39470103
0.39485775
0.39503263
0.39519055
0.39532132
0.39539857
0.39405998
0.39408624
0.39414143
0.39422579
0.39434218
0.39447134
0.39460758
0.39475513
0.39491715
0.39509302
0.395251
0.3953716
0.39544103
0.39408952
0.39411435
0.39416608
0.39424482
0.39435031
0.3944807
0.39462375
0.39477028
0.39492741
0.3950964
0.39524293
0.39535591
0.39542023
0.39412874
0.39415078
0.39419808
0.39427134
0.394371
0.39449676
0.39464406
0.39479266
0.39494784
0.39511049
0.39525208
0.39536911
0.39543484
0.39416257
0.39418167
0.39422525
0.39429412
0.39438941
0.39451182
0.3946601
0.39481568
0.39496848
0.39512274
0.39526028
0.39536489
0.39541786
)
;
    }
}


// ************************************************************************* //
