/*--------------------------------*- C++ -*----------------------------------*\
| =========                 |                                                 |
| \\      /  F ield         | OpenFOAM: The Open Source CFD Toolbox           |
|  \\    /   O peration     | Version:  v2012                                 |
|   \\  /    A nd           | Website:  www.openfoam.com                      |
|    \\/     M anipulation  |                                                 |
\*---------------------------------------------------------------------------*/
FoamFile
{
    version     2.0;
    format      ascii;
    class       volVectorField;
    location    "400/topAir";
    object      U;
}
// * * * * * * * * * * * * * * * * * * * * * * * * * * * * * * * * * * * * * //

dimensions      [0 1 -1 0 0 0 0];


internalField   nonuniform List<vector> 
1200
(
(0.10425799 -0.0023731192 0.00087637736)
(0.11734861 -0.0024788148 0.0013154394)
(0.12859875 -0.0022923241 0.0013987519)
(0.13736026 -0.0017740248 0.0012679818)
(0.14499855 -0.0009850104 0.00093851498)
(0.15212629 -9.130923e-05 0.00037077325)
(0.15897908 0.00081425918 -0.00046305168)
(0.1658255 0.0016571697 -0.0016955617)
(0.1728418 0.0025225092 -0.0035849567)
(0.18032004 0.0035802974 -0.0064323922)
(0.18843755 0.005150595 -0.010628765)
(0.19689886 0.0076168766 -0.016586013)
(0.20431712 0.011414708 -0.024583111)
(0.20921175 0.016061459 -0.034523751)
(0.21154889 0.02133706 -0.045745519)
(0.21195126 0.0264489 -0.057126875)
(0.21082342 0.030786667 -0.067446036)
(0.20841264 0.034100962 -0.075861038)
(0.20502976 0.036330592 -0.082091324)
(0.20121397 0.037477792 -0.086268483)
(0.19767613 0.03763931 -0.088718099)
(0.19505403 0.037037962 -0.089786693)
(0.19370439 0.03592554 -0.089758987)
(0.19366908 0.034526807 -0.088831941)
(0.19471584 0.033046405 -0.087107721)
(0.19631585 0.031732108 -0.084559507)
(0.19744489 0.031008572 -0.080948969)
(0.19610843 0.031750836 -0.075703401)
(0.18878012 0.035957274 -0.067817036)
(0.14745914 0.049701631 -0.05513662)
(0.098694718 -0.0037669057 0.0008521783)
(0.098445515 -0.0045913187 0.0012882296)
(0.09879278 -0.0046673323 0.0014734215)
(0.099561338 -0.0042313381 0.0015603232)
(0.10084614 -0.0034689728 0.0015772626)
(0.10268042 -0.0026205344 0.0015107369)
(0.10504165 -0.00183867 0.0013380883)
(0.10804012 -0.0012228207 0.001006621)
(0.1121578 -0.00046237092 0.00039686753)
(0.11787381 0.0007976715 -0.00065301021)
(0.12609206 0.0033662797 -0.002451285)
(0.13715913 0.0083131166 -0.0053850683)
(0.15081523 0.016565371 -0.0099823694)
(0.16534531 0.027213103 -0.016432025)
(0.17879729 0.03947173 -0.024360562)
(0.18972146 0.051703189 -0.032763208)
(0.19727168 0.062813632 -0.040562742)
(0.20115952 0.072276414 -0.047143585)
(0.20175986 0.079617717 -0.052372691)
(0.20008297 0.084450757 -0.056332968)
(0.19744985 0.086767309 -0.059143837)
(0.19495939 0.087045867 -0.060865328)
(0.19320621 0.085901937 -0.061554527)
(0.19237096 0.083874891 -0.061281797)
(0.19236609 0.081369568 -0.060076494)
(0.19287594 0.078791813 -0.057813888)
(0.19320591 0.076884253 -0.054042183)
(0.19197926 0.077233418 -0.047701125)
(0.18774613 0.083148526 -0.036601849)
(0.15949936 0.099779818 -0.016226651)
(0.098830979 -0.0028648727 0.00087880699)
(0.098010782 -0.0041513922 0.001335755)
(0.096402672 -0.0045555632 0.0015416866)
(0.094362359 -0.0046429129 0.0016664567)
(0.092353428 -0.0046003671 0.0017626935)
(0.090558153 -0.0045121201 0.0018425346)
(0.088968349 -0.0044757929 0.001922534)
(0.087511753 -0.0045666819 0.0020395811)
(0.086220118 -0.0046105799 0.0022601012)
(0.085373405 -0.0045069398 0.0026265241)
(0.085472811 -0.0039991738 0.0030662176)
(0.088442317 -0.001607337 0.003189821)
(0.097642602 0.0057917295 0.002312665)
(0.11227768 0.019409274 0.00020961356)
(0.12985784 0.037001596 -0.0031074706)
(0.14711512 0.05537001 -0.0065995612)
(0.16187047 0.072003933 -0.0094225217)
(0.17268845 0.085449932 -0.011427265)
(0.17937408 0.095586694 -0.012869068)
(0.1828333 0.10246147 -0.014168165)
(0.1844812 0.10623514 -0.015580707)
(0.18544428 0.1072619 -0.017007294)
(0.18620358 0.10609804 -0.018051885)
(0.18680931 0.10332346 -0.018451884)
(0.18709706 0.099424611 -0.01813742)
(0.18685591 0.094848697 -0.01690967)
(0.18578826 0.090297535 -0.014381824)
(0.18334741 0.087361972 -0.0097698419)
(0.1797261 0.089636222 -0.0017043593)
(0.15945164 0.10349043 0.012664623)
(0.096868628 -0.0015417138 0.00084442056)
(0.094671996 -0.0022760394 0.0012631099)
(0.090981837 -0.0025002995 0.0014301257)
(0.086451789 -0.002532704 0.0015140054)
(0.081896845 -0.0024733426 0.0015709423)
(0.077562055 -0.0023519676 0.0016168914)
(0.073411891 -0.0022071838 0.0016746125)
(0.069349814 -0.0020799992 0.0017874255)
(0.065245217 -0.0020021289 0.0020298963)
(0.060879025 -0.0021280564 0.0025219584)
(0.055838003 -0.0029188949 0.0034638496)
(0.049697829 -0.0044165917 0.0052871187)
(0.041676633 -0.0046381147 0.0086579647)
(0.037551448 0.0027296351 0.013287459)
(0.044014809 0.018901256 0.018424021)
(0.058566127 0.03654874 0.023741896)
(0.075293697 0.051223114 0.029133552)
(0.090942055 0.062491434 0.034447181)
(0.10440747 0.070949682 0.039276104)
(0.11578016 0.07691431 0.042854361)
(0.125637 0.080481246 0.045048515)
(0.13439233 0.081668826 0.046119319)
(0.14207797 0.080756985 0.046320208)
(0.1484208 0.078173503 0.04596947)
(0.15310505 0.074376016 0.045360178)
(0.15596996 0.069836049 0.044817775)
(0.15717257 0.065154968 0.044700104)
(0.15742194 0.061566798 0.045380969)
(0.16028613 0.061887279 0.046706264)
(0.17432734 0.072058203 0.047773337)
(0.10551898 -0.0023730418 0.0010171064)
(0.11946365 -0.0024872116 0.0014281742)
(0.13196472 -0.0023857849 0.0014401601)
(0.14207016 -0.0020458819 0.0012255093)
(0.15086641 -0.0015348534 0.0008064441)
(0.15890525 -0.0010247784 0.00014408571)
(0.16622049 -0.0006535867 -0.00081238073)
(0.17272958 -0.00049518902 -0.0022130135)
(0.17839892 -0.00061114602 -0.0043021165)
(0.18321202 -0.0010683629 -0.0073564697)
(0.18710591 -0.0019867104 -0.01172111)
(0.18998398 -0.0034838806 -0.017704619)
(0.19133326 -0.0056406177 -0.025393982)
(0.19089656 -0.0090081461 -0.034330928)
(0.19012775 -0.012978393 -0.043513659)
(0.19038223 -0.016876613 -0.051679414)
(0.19173517 -0.019809075 -0.058077394)
(0.19332419 -0.02127183 -0.06278886)
(0.1942474 -0.02153919 -0.066218308)
(0.19418937 -0.0213131 -0.068688195)
(0.19347618 -0.021159317 -0.07033864)
(0.19274632 -0.021197587 -0.07123931)
(0.1925426 -0.021345471 -0.07142311)
(0.19316093 -0.021501374 -0.070890569)
(0.19469022 -0.021576455 -0.069608462)
(0.1971106 -0.021399159 -0.067474771)
(0.20028967 -0.020494505 -0.06422675)
(0.20383349 -0.017569721 -0.059361764)
(0.20677282 -0.0090377711 -0.052246816)
(0.19623187 0.015102 -0.041956629)
(0.099985687 -0.0037769288 0.0010738692)
(0.1006788 -0.0046350941 0.0016357177)
(0.10241206 -0.0048434751 0.0018486233)
(0.10474336 -0.0046559402 0.0019091744)
(0.10750537 -0.0042616636 0.0018615618)
(0.11064319 -0.0039015192 0.001686281)
(0.11406808 -0.003760949 0.0013438202)
(0.11769906 -0.0039554846 0.00076256131)
(0.12153252 -0.0045988457 -0.00017578379)
(0.12551796 -0.0058415407 -0.0016264184)
(0.12964629 -0.0079143196 -0.0037732205)
(0.13398464 -0.011020889 -0.0068466602)
(0.13866004 -0.015341939 -0.01104231)
(0.14368633 -0.021427922 -0.016054687)
(0.14923297 -0.028299662 -0.020940067)
(0.15533635 -0.034279117 -0.024421724)
(0.16141006 -0.037374647 -0.026079502)
(0.16640683 -0.03682877 -0.026848433)
(0.16948628 -0.033585102 -0.027775063)
(0.17060015 -0.029430307 -0.029283145)
(0.17049108 -0.025857856 -0.031177019)
(0.17007484 -0.023248401 -0.033104171)
(0.16985152 -0.02141572 -0.034681003)
(0.17001091 -0.020164878 -0.035492494)
(0.17075142 -0.019543691 -0.035084698)
(0.17255888 -0.019591996 -0.032969611)
(0.17646209 -0.020156444 -0.028581443)
(0.18472102 -0.020422433 -0.020942161)
(0.20292382 -0.018339163 -0.008307061)
(0.26013377 -0.0075931686 0.0078431535)
(0.10013195 -0.0028925786 0.0010943796)
(0.10026823 -0.0042034539 0.0016826432)
(0.10010638 -0.0046494946 0.0019418157)
(0.09977059 -0.0048121417 0.0020763091)
(0.099473468 -0.0048828752 0.0021477395)
(0.099330763 -0.0049461 0.0021588265)
(0.099356047 -0.0050844993 0.0021085817)
(0.099528365 -0.0053896139 0.0020060703)
(0.099840594 -0.0059798454 0.0018746596)
(0.10029275 -0.007072115 0.0016988857)
(0.10097262 -0.0089658998 0.0013494398)
(0.10207811 -0.012035026 0.00057400966)
(0.10383824 -0.016801452 -0.00066176701)
(0.10635566 -0.023827461 -0.0018788273)
(0.10992528 -0.032147344 -0.0019209622)
(0.11457487 -0.039405184 0.0015180325)
(0.12056997 -0.042232803 0.0091040248)
(0.12723115 -0.039603031 0.017792116)
(0.13306933 -0.033820151 0.025128009)
(0.13711676 -0.02791159 0.029921331)
(0.13953615 -0.023694435 0.032379857)
(0.14105424 -0.020341024 0.034572356)
(0.14318391 -0.018246415 0.036624305)
(0.14612867 -0.017328041 0.038833891)
(0.14962037 -0.017514312 0.041277536)
(0.15262125 -0.01896265 0.043388426)
(0.15547991 -0.021134508 0.045539283)
(0.15929478 -0.023793405 0.048042814)
(0.16697538 -0.027053467 0.052753013)
(0.19176587 -0.030555331 0.061510099)
(0.098113314 -0.0015685504 0.0010690753)
(0.096815053 -0.0023320088 0.001638351)
(0.094499898 -0.0025887499 0.0018832359)
(0.091594715 -0.0026657832 0.0020004739)
(0.088669656 -0.0026665061 0.0020514351)
(0.085915194 -0.0026230889 0.002042982)
(0.083330435 -0.0025759751 0.0019814788)
(0.08088521 -0.0025773441 0.0018850727)
(0.078544099 -0.0026983362 0.001791788)
(0.07622912 -0.0030646944 0.0017700646)
(0.073849844 -0.0039045588 0.0019350876)
(0.071252013 -0.0056099215 0.002476749)
(0.068048091 -0.0086381781 0.0035839943)
(0.064022205 -0.012863646 0.0056753729)
(0.059841663 -0.016541847 0.010765098)
(0.05742052 -0.015895136 0.02266246)
(0.060048562 -0.0080552193 0.044080451)
(0.06553794 0.0034200983 0.065796267)
(0.071504003 0.015239123 0.083287874)
(0.077418668 0.025152237 0.095711897)
(0.084376848 0.032329064 0.10372534)
(0.092752076 0.035639937 0.10728233)
(0.1008299 0.035968453 0.10827395)
(0.10789234 0.034077234 0.10762629)
(0.11351265 0.030815678 0.10578426)
(0.11771685 0.026442037 0.10253597)
(0.12115113 0.021020788 0.097310209)
(0.12424954 0.015276906 0.091055411)
(0.12953746 0.0098425316 0.085907569)
(0.15145242 0.0061073917 0.081888719)
(0.10539307 -0.0023922204 0.00036984558)
(0.11913796 -0.0025043169 0.0006082933)
(0.13154975 -0.0023768932 0.00070801501)
(0.14167745 -0.0019892165 0.0007131501)
(0.15054621 -0.0014189207 0.00065038718)
(0.1586291 -0.00084862799 0.00052429298)
(0.16593753 -0.00038867951 0.00030936603)
(0.17245503 -6.5487706e-05 -1.6069384e-05)
(0.1782006 9.5836561e-05 -0.00046690861)
(0.18314714 5.5983617e-05 -0.0010664185)
(0.1872185 -0.00024405609 -0.0018399593)
(0.19027402 -0.00090010018 -0.0027934686)
(0.19163551 -0.0020677481 -0.0038703049)
(0.19080786 -0.0046005952 -0.0049650822)
(0.18925298 -0.0081735158 -0.0057730215)
(0.18828085 -0.012300445 -0.0061076013)
(0.1876958 -0.016353879 -0.0064558341)
(0.18666452 -0.020145204 -0.0075629339)
(0.18487264 -0.023664661 -0.0097506649)
(0.1825574 -0.026905012 -0.012806917)
(0.18020502 -0.029868798 -0.016229908)
(0.17830405 -0.032523298 -0.019526605)
(0.17719199 -0.034747171 -0.022335743)
(0.17697216 -0.036402049 -0.02443738)
(0.17754384 -0.037421239 -0.025720595)
(0.17881454 -0.037895569 -0.026061766)
(0.18090608 -0.03801047 -0.025319306)
(0.1845288 -0.037301222 -0.023915445)
(0.19096129 -0.032317921 -0.024365231)
(0.19725763 -0.012622165 -0.028002847)
(0.099863688 -0.0037881235 0.00037082978)
(0.10032771 -0.0046336366 0.00063404952)
(0.10193933 -0.0048002244 0.00075918457)
(0.10426642 -0.0045442214 0.00078364987)
(0.10705996 -0.0040644211 0.00072259601)
(0.1102052 -0.0036072872 0.00056172359)
(0.11358263 -0.0033149045 0.00027005689)
(0.11709454 -0.0032353585 -0.00019273152)
(0.12068142 -0.0034359344 -0.00087617586)
(0.12430853 -0.0040246537 -0.0018710181)
(0.12796362 -0.0051544016 -0.0032684219)
(0.13168032 -0.0071058307 -0.0051559948)
(0.13559952 -0.01033761 -0.0075412634)
(0.13973127 -0.016006965 -0.010206644)
(0.14401361 -0.023350607 -0.012699341)
(0.148038 -0.030061709 -0.015162883)
(0.15071255 -0.034477296 -0.018569191)
(0.15126398 -0.037101046 -0.02323956)
(0.15005756 -0.038598479 -0.028688937)
(0.14775044 -0.039445482 -0.034340537)
(0.14492142 -0.040100983 -0.03952796)
(0.14199887 -0.040882529 -0.043756238)
(0.13926323 -0.041767485 -0.046707381)
(0.13682615 -0.042572213 -0.048177006)
(0.13462355 -0.043250446 -0.048004053)
(0.1328419 -0.044283922 -0.04582306)
(0.13219182 -0.046564313 -0.041371337)
(0.13653736 -0.049673265 -0.035628962)
(0.15331065 -0.048448106 -0.036097892)
(0.20764041 -0.0329249 -0.050128815)
(0.10001441 -0.0028871933 0.00037608611)
(0.099933162 -0.0041913292 0.00064631314)
(0.099658259 -0.0046169597 0.00078716051)
(0.099330561 -0.0047471463 0.00083285592)
(0.099092964 -0.0047727154 0.00079623155)
(0.099014743 -0.0047703552 0.00066245411)
(0.099085825 -0.0048042257 0.00040155251)
(0.099262984 -0.0049402302 -3.0822161e-05)
(0.09951013 -0.0052725987 -0.00069715081)
(0.099823577 -0.005949792 -0.001688859)
(0.10015441 -0.0072145416 -0.0031125585)
(0.10042905 -0.0095279638 -0.0051578347)
(0.10067125 -0.013689364 -0.0079973469)
(0.10100886 -0.020892339 -0.011574031)
(0.10118061 -0.030238931 -0.015268362)
(0.10044022 -0.036936976 -0.018952482)
(0.098061334 -0.038640407 -0.022858844)
(0.094576247 -0.037907772 -0.025413542)
(0.091135573 -0.036459913 -0.027282656)
(0.087312987 -0.035518581 -0.030654027)
(0.082997371 -0.03582111 -0.034584294)
(0.078419725 -0.037270057 -0.037455549)
(0.074224519 -0.039350058 -0.038418361)
(0.071139821 -0.041540249 -0.037121926)
(0.069262214 -0.043872062 -0.033123153)
(0.06980057 -0.046793505 -0.02523907)
(0.071909066 -0.051896699 -0.014602494)
(0.079841945 -0.058971718 -0.004148107)
(0.095126892 -0.064108732 -0.0088454379)
(0.1369106 -0.05956973 -0.039223945)
(0.097998325 -0.0015634388 0.0003667312)
(0.096486395 -0.0023215672 0.00062548)
(0.094060625 -0.0025699036 0.00075643715)
(0.091163782 -0.0026363714 0.0007934436)
(0.088298406 -0.0026235221 0.00074953134)
(0.085608841 -0.0025607579 0.00061035767)
(0.083071246 -0.0024836547 0.00034593032)
(0.080635113 -0.0024353321 -8.9113434e-05)
(0.078251139 -0.0024700847 -0.0007580682)
(0.07586879 -0.0026752507 -0.0017539314)
(0.073320102 -0.0032245612 -0.0032082489)
(0.070276903 -0.0044803081 -0.0054193167)
(0.066191536 -0.0072573016 -0.0089687136)
(0.060150752 -0.013294141 -0.01499303)
(0.050285604 -0.021862897 -0.024168856)
(0.036718476 -0.024986868 -0.032667329)
(0.02542713 -0.020436464 -0.030616904)
(0.027964446 -0.014688826 -0.0039153807)
(0.035790714 -0.0054143886 0.033119019)
(0.040218027 0.0045492298 0.058811608)
(0.046094513 0.012193143 0.073709758)
(0.053267543 0.016375926 0.08096305)
(0.060275885 0.017467104 0.083537878)
(0.066144103 0.016008352 0.083082189)
(0.069820034 0.012281762 0.080219939)
(0.070076617 0.0061193542 0.074767418)
(0.067990368 -0.0030453918 0.06646094)
(0.069811491 -0.014350705 0.056628114)
(0.069802055 -0.022356348 0.026237025)
(0.097787515 -0.015866789 -0.029085764)
(0.10536299 -0.0023933458 0.00020512473)
(0.1190281 -0.0025012052 0.00036743056)
(0.13135362 -0.0023606072 0.00046424065)
(0.1414159 -0.0019450203 0.00049897894)
(0.15024712 -0.0013226505 0.00047972626)
(0.15833076 -0.0006634709 0.00040947509)
(0.16571676 -6.2568867e-05 0.00028922113)
(0.17240472 0.00045997832 0.00012973406)
(0.17844916 0.00091452311 -7.087891e-05)
(0.18392903 0.0013074575 -0.00030635996)
(0.18893002 0.0016269465 -0.00053859176)
(0.19355728 0.0018232495 -0.00065987261)
(0.19741827 0.0017705542 -0.00041183466)
(0.20036109 0.00072187438 0.00061050737)
(0.20405456 -6.0182202e-05 0.0030934996)
(0.20899691 0.00035051097 0.0069883984)
(0.21368046 0.0013130414 0.011455954)
(0.21689601 0.0018268836 0.015845089)
(0.21854382 0.001468288 0.019867464)
(0.21917214 0.00023648787 0.023407256)
(0.21932674 -0.0016802305 0.026437651)
(0.21930301 -0.0040524398 0.029036333)
(0.21912798 -0.0066565587 0.031351761)
(0.2186846 -0.009283715 0.033495555)
(0.21788597 -0.011775235 0.035420524)
(0.21690522 -0.013763823 0.036858837)
(0.21600405 -0.01385022 0.03716063)
(0.2144977 -0.0093827842 0.035338896)
(0.2077663 0.0028244154 0.029413442)
(0.14598427 0.033723111 0.010821678)
(0.099834634 -0.0037892841 0.00020984886)
(0.10020204 -0.0046290205 0.00038837265)
(0.10168813 -0.0047759396 0.00049770977)
(0.10389621 -0.0044782704 0.00053400322)
(0.10657674 -0.0039221965 0.00050086992)
(0.10960308 -0.003336453 0.00039392396)
(0.11284987 -0.0028403635 0.00020015641)
(0.11621595 -0.0024668468 -9.8873995e-05)
(0.11965253 -0.002230174 -0.00053263801)
(0.12316035 -0.0021868503 -0.0011319362)
(0.12681355 -0.0024851311 -0.0019089283)
(0.13084092 -0.0034526524 -0.0027992786)
(0.1357371 -0.0057116324 -0.0035463852)
(0.14193167 -0.010333811 -0.0035391088)
(0.14938538 -0.01396605 -0.0020794965)
(0.15682635 -0.013353765 -0.00021090451)
(0.16205771 -0.010724742 0.00050713888)
(0.16430198 -0.0091196344 -0.00066982912)
(0.16413221 -0.0096008728 -0.0036990249)
(0.16248995 -0.01176787 -0.0080762701)
(0.15998468 -0.0148823 -0.01308652)
(0.15694969 -0.018320263 -0.01775639)
(0.15334242 -0.021688795 -0.021176074)
(0.14912457 -0.024745145 -0.022777871)
(0.14425144 -0.027712109 -0.022345523)
(0.13953644 -0.030828669 -0.020106757)
(0.13752506 -0.031801813 -0.019585893)
(0.14266449 -0.023928467 -0.026169618)
(0.15993258 -0.00070672201 -0.039257663)
(0.17490365 0.042471431 -0.053650709)
(0.099986534 -0.002884431 0.0002112283)
(0.099811953 -0.0041855472 0.00039059119)
(0.099410113 -0.0046023282 0.0005040143)
(0.098953384 -0.004714548 0.00054476969)
(0.098583302 -0.0047090407 0.0005123539)
(0.098353664 -0.0046547022 0.00039742996)
(0.098239097 -0.0046037344 0.00017978973)
(0.098183747 -0.0046065823 -0.00016857582)
(0.098135303 -0.0047334193 -0.00069142219)
(0.0980412 -0.0051239151 -0.0014531738)
(0.097859601 -0.0060754019 -0.0025459349)
(0.097643176 -0.0082259018 -0.0040134799)
(0.097819923 -0.01284492 -0.0057290422)
(0.098918405 -0.021508093 -0.0070100752)
(0.10008013 -0.028246503 -0.006365799)
(0.10072806 -0.02641646 -0.0044699559)
(0.098013147 -0.021061494 -0.0037013189)
(0.090086841 -0.016773743 -0.0062580774)
(0.079932198 -0.015655481 -0.011767968)
(0.070556629 -0.018144715 -0.017534859)
(0.062381814 -0.022727794 -0.022085125)
(0.055051767 -0.02754902 -0.024539069)
(0.047676136 -0.03213168 -0.02404793)
(0.041005828 -0.036053683 -0.020533962)
(0.035311555 -0.040146852 -0.013558406)
(0.032444582 -0.0457951 -0.0030400439)
(0.034269065 -0.050153885 -0.0076123494)
(0.047389723 -0.040527034 -0.033740379)
(0.073488125 -0.016604757 -0.059958963)
(0.099420575 0.026092073 -0.087186369)
(0.097970946 -0.0015650594 0.00020577171)
(0.096368108 -0.0023252927 0.00037774115)
(0.093818177 -0.0025734176 0.00048358105)
(0.090793286 -0.0026361012 0.00051632824)
(0.087794083 -0.0026145714 0.00047462561)
(0.084946169 -0.0025355839 0.00034765006)
(0.082201748 -0.0024313822 0.00011171043)
(0.079484695 -0.0023421055 -0.00026969489)
(0.076700275 -0.0023202998 -0.00086053977)
(0.073680009 -0.0024622352 -0.0017740329)
(0.070105641 -0.0029888365 -0.0032263215)
(0.065365727 -0.0044631904 -0.0055869706)
(0.0582039 -0.0084367464 -0.0096607243)
(0.04682294 -0.018097563 -0.017035277)
(0.024652811 -0.023405777 -0.027526428)
(-0.0036495107 -0.01186686 -0.032002383)
(-0.02642772 6.4151924e-06 -0.02870046)
(-0.036030083 0.00045744111 -0.02080497)
(-0.030461758 -0.0024249728 -0.0032898823)
(-0.016118388 -0.0028953226 0.020662187)
(-0.0074303148 -0.0015649193 0.034839792)
(0.0033250447 -0.00067030322 0.041935486)
(0.010204061 -0.0022655926 0.043678817)
(0.014165276 -0.0054539917 0.043404198)
(0.014073051 -0.010844501 0.041882852)
(0.010343219 -0.019932065 0.037873665)
(-0.0041687721 -0.031044934 0.0039820253)
(-0.016010371 -0.018213196 -0.0515884)
(0.00027327964 0.017770936 -0.094837367)
(0.064910876 0.046627193 -0.11705695)
(0.10534543 -0.0023967487 6.3760553e-05)
(0.11896742 -0.0025076891 0.00011097956)
(0.1312423 -0.0023692954 0.00013435051)
(0.14125911 -0.0019543665 0.00013461503)
(0.15005235 -0.0013302347 0.00011445749)
(0.15810129 -0.00066716273 7.4777124e-05)
(0.16545034 -6.1465343e-05 1.3798809e-05)
(0.17210047 0.00046631434 -7.2782532e-05)
(0.17810103 0.000917142 -0.00018644294)
(0.18352905 0.0012858854 -0.00033104976)
(0.1884956 0.0015383537 -0.00049277706)
(0.1931807 0.0015834081 -0.00059689067)
(0.19729022 0.0012639553 -0.00040670266)
(0.20101342 -1.8663982e-05 0.00050611917)
(0.20616454 -3.0526971e-05 0.0023103346)
(0.21220037 0.0010602066 0.0044794172)
(0.2175848 0.00232657 0.0066185237)
(0.22177075 0.0034564532 0.0088936121)
(0.22505259 0.0045196946 0.01175356)
(0.2281479 0.0054235069 0.015584908)
(0.23170181 0.0060083567 0.020527615)
(0.23607578 0.0064169982 0.026473667)
(0.24110012 0.0069798949 0.033108613)
(0.24607826 0.0079929452 0.039950288)
(0.24998009 0.0095540138 0.046359132)
(0.25149033 0.011544937 0.051413229)
(0.24859076 0.014894093 0.053647285)
(0.23796918 0.021381099 0.051029255)
(0.21553919 0.034392051 0.04125693)
(0.12316866 0.065670284 0.02273226)
(0.099817256 -0.0037928383 6.5725914e-05)
(0.10013358 -0.0046356018 0.00011776293)
(0.10155148 -0.004783458 0.00014325461)
(0.10369162 -0.0044835415 0.00013984666)
(0.10630584 -0.0039211104 0.00010825067)
(0.10925942 -0.003325402 4.6592589e-05)
(0.11242097 -0.0028177321 -5.0520661e-05)
(0.1156835 -0.0024313832 -0.0001894289)
(0.11899131 -0.0021976479 -0.00038099023)
(0.1223583 -0.002202824 -0.00063075763)
(0.12591853 -0.0026647513 -0.00091118431)
(0.13005739 -0.0040513667 -0.0010913819)
(0.13558515 -0.0071112149 -0.00078874779)
(0.14297459 -0.011950402 0.00064020022)
(0.15202368 -0.011233945 0.0029153387)
(0.15985479 -0.0073583359 0.0043796762)
(0.16531467 -0.0037335767 0.0046335417)
(0.16918959 -0.0016192267 0.0043060551)
(0.17242132 -0.0010396785 0.0040257474)
(0.17472604 -0.0016077879 0.0039249939)
(0.17602325 -0.0027162693 0.0038487599)
(0.17693501 -0.0036185928 0.0037234265)
(0.17836578 -0.003500512 0.0037530327)
(0.18128957 -0.001705707 0.0042915369)
(0.18663661 0.0025339589 0.0056740298)
(0.19529618 0.010587151 0.0078699901)
(0.2016879 0.022180408 0.0084479006)
(0.20198264 0.038095787 0.0042826544)
(0.19592294 0.062853259 -0.007216095)
(0.15122133 0.10378174 -0.025640945)
(0.099969085 -0.0028846854 6.5653374e-05)
(0.099743461 -0.0041869012 0.00011713664)
(0.099270593 -0.0046034192 0.00014242379)
(0.098737546 -0.0047132095 0.00013760874)
(0.098285681 -0.0047031672 0.0001008607)
(0.097958058 -0.0046423981 2.6691784e-05)
(0.097720852 -0.0045840245 -9.5439641e-05)
(0.097500248 -0.0045813483 -0.00027972575)
(0.097212516 -0.0047216521 -0.00055730386)
(0.096781812 -0.0051881874 -0.00096877896)
(0.09616648 -0.0063977085 -0.0015512389)
(0.095539514 -0.0092837666 -0.0022635936)
(0.095812367 -0.015685314 -0.002730071)
(0.096540917 -0.026561657 -0.0020177285)
(0.099307991 -0.024184833 0.0013108642)
(0.10081685 -0.017539651 0.0032693341)
(0.097565324 -0.011247417 0.0020938718)
(0.092116633 -0.0061532855 -0.00045329945)
(0.084151426 -0.0034857459 -0.0036046276)
(0.073878663 -0.0048609883 -0.0075810939)
(0.061618971 -0.0096690104 -0.012277178)
(0.048823786 -0.015541156 -0.016576705)
(0.037960819 -0.020161836 -0.019523654)
(0.03306553 -0.022319063 -0.021420618)
(0.037763375 -0.021358974 -0.023410897)
(0.049816091 -0.014750644 -0.026995054)
(0.079415867 1.3183347e-05 -0.030945102)
(0.10101056 0.023443117 -0.038789622)
(0.11536128 0.05714251 -0.052159329)
(0.10174194 0.10302105 -0.067040581)
(0.097953561 -0.0015649382 6.3897446e-05)
(0.096300029 -0.0023251839 0.00011294984)
(0.093678797 -0.0025726979 0.00013542708)
(0.090575004 -0.0026340411 0.00012684584)
(0.08748801 -0.0026107144 8.4086075e-05)
(0.084530426 -0.0025297316 -6.355138e-07)
(0.081640063 -0.0024236644 -0.00014225949)
(0.078706046 -0.0023358248 -0.0003665751)
(0.07556775 -0.0023299284 -0.0007331338)
(0.071955038 -0.0025355808 -0.0013528811)
(0.06733794 -0.0032791169 -0.0024425402)
(0.060587712 -0.0054743633 -0.0044461728)
(0.049248968 -0.011787842 -0.008304615)
(0.030101759 -0.025502462 -0.014493061)
(-0.019568789 -0.0094248551 -0.019489022)
(-0.045519685 0.0032650842 -0.016144425)
(-0.065895811 0.0052799629 -0.016012496)
(-0.078796486 0.0041238682 -0.015670279)
(-0.083139474 0.00036807026 -0.01340106)
(-0.078227961 -0.0046958429 -0.0088229456)
(-0.067655862 -0.0090373944 -0.0035382788)
(-0.057138155 -0.012450044 -0.0012629338)
(-0.048254839 -0.01557936 -0.0019481145)
(-0.040822394 -0.018341927 -0.0046761903)
(-0.03481044 -0.02007459 -0.0099869054)
(-0.031127842 -0.017461524 -0.020714793)
(-0.024692262 -0.0019350415 -0.04339512)
(-0.011808901 0.023452573 -0.062827548)
(0.014370613 0.059761652 -0.083024272)
(0.065052889 0.09803974 -0.094996361)
(0.10534501 -0.0023962256 -4.3066469e-05)
(0.11896631 -0.0025067734 -7.7227576e-05)
(0.13124041 -0.0023680191 -9.4434215e-05)
(0.1412554 -0.0019529435 -9.4475339e-05)
(0.15004437 -0.0013291591 -7.954722e-05)
(0.15808526 -0.00066725089 -5.0411581e-05)
(0.16542029 -6.3966376e-05 -5.1776058e-06)
(0.17204819 0.00045954129 6.0292931e-05)
(0.17801404 0.00089727316 0.0001465387)
(0.18339666 0.0012317371 0.0002634641)
(0.18833996 0.0014023831 0.00042206416)
(0.19315788 0.0012807147 0.00063076409)
(0.19791504 0.0007989751 0.00088718984)
(0.20306949 0.00015630875 0.0012106829)
(0.20960469 0.00086637297 0.0014270047)
(0.21666118 0.0021790853 0.0015093501)
(0.22287015 0.0036437896 0.001587051)
(0.22830286 0.0054706189 0.0016644668)
(0.23357064 0.0078795792 0.0016716969)
(0.23902217 0.010935901 0.0015283868)
(0.2446544 0.014588605 0.0010609393)
(0.25017101 0.018699221 1.5909581e-06)
(0.25504177 0.023046922 -0.001920844)
(0.25858258 0.027412183 -0.0048258144)
(0.25995145 0.031692986 -0.008539363)
(0.25788783 0.036067052 -0.012504433)
(0.25015076 0.041130745 -0.015853131)
(0.23312813 0.047715091 -0.017391356)
(0.20308201 0.058032821 -0.014399074)
(0.097505344 0.081703912 -0.0048447231)
(0.099817395 -0.0037921768 -4.0205637e-05)
(0.10013399 -0.0046345165 -7.3762117e-05)
(0.10155169 -0.0047821787 -8.929446e-05)
(0.10369003 -0.0044827055 -8.470054e-05)
(0.10629932 -0.0039220623 -6.074992e-05)
(0.10924355 -0.0033306417 -1.5797613e-05)
(0.1123902 -0.0028316139 5.5376919e-05)
(0.11562857 -0.0024638008 0.00015837882)
(0.11890292 -0.0022768503 0.00030573661)
(0.12224721 -0.0023960265 0.00051671808)
(0.12587303 -0.0031251818 0.00081451162)
(0.13038313 -0.0050565033 0.0012209308)
(0.13685754 -0.0086004545 0.0017325669)
(0.145745 -0.010370002 0.0022394329)
(0.15560588 -0.0070835963 0.0023578411)
(0.16375645 -0.0027627327 0.0025960836)
(0.1708366 0.0008714004 0.0031172861)
(0.17773707 0.004032789 0.003909969)
(0.1847808 0.0073565097 0.0049355198)
(0.19252276 0.01142116 0.0061719128)
(0.20120215 0.016776538 0.0074732041)
(0.21069751 0.023748419 0.0083824306)
(0.22054978 0.032196055 0.0083500915)
(0.23002912 0.041745476 0.0070329702)
(0.23807357 0.052256005 0.0045804316)
(0.24283892 0.064160798 0.0018980557)
(0.24088995 0.077861497 -0.00022530872)
(0.22734594 0.093383391 -0.0011211874)
(0.20047746 0.11152947 0.0010850713)
(0.10336761 0.13957853 0.0094503574)
(0.099969179 -0.0028844945 -3.954614e-05)
(0.099743656 -0.0041867031 -7.218892e-05)
(0.099270008 -0.0046035588 -8.7298272e-05)
(0.098733593 -0.0047144699 -8.2050761e-05)
(0.098273224 -0.0047071942 -5.5985108e-05)
(0.097929219 -0.0046523859 -5.8579949e-06)
(0.097661777 -0.0046060829 7.5637678e-05)
(0.097382539 -0.0046316717 0.00019466279)
(0.096987406 -0.0048408524 0.00037118886)
(0.096383058 -0.0054821652 0.00063550031)
(0.095571343 -0.0071394475 0.0010332938)
(0.095067103 -0.011130441 0.0016406309)
(0.096007066 -0.019491046 0.0026228282)
(0.098139101 -0.0236234 0.0042903871)
(0.10500642 -0.017660948 0.0041788089)
(0.10624033 -0.011357994 0.004255865)
(0.10511568 -0.0055879106 0.0047052224)
(0.10216895 -0.00014096485 0.0055576867)
(0.10036496 0.0039829497 0.0072038591)
(0.10087707 0.0064151595 0.0098956976)
(0.10284288 0.0079267858 0.012726106)
(0.10738239 0.0099494327 0.014479947)
(0.11657734 0.014129242 0.014724967)
(0.12948311 0.021337706 0.012983597)
(0.14498025 0.031849558 0.0092277724)
(0.16051331 0.04634979 0.004424397)
(0.16989552 0.063207614 0.00061109184)
(0.16664631 0.083467072 -0.00019284386)
(0.15139139 0.10975445 0.0024845994)
(0.070872367 0.14861151 0.010236075)
(0.097953591 -0.001564882 -3.8133014e-05)
(0.096299939 -0.0023251438 -6.867098e-05)
(0.093677356 -0.0025728228 -8.1367603e-05)
(0.090568722 -0.0026346727 -7.3239723e-05)
(0.087469952 -0.0026125983 -4.3395145e-05)
(0.084488785 -0.0025343419 1.2017863e-05)
(0.081550191 -0.0024343159 0.00010060075)
(0.07851319 -0.0023616983 0.00023001033)
(0.075153047 -0.0023958368 0.00042496514)
(0.071060137 -0.0027174156 0.00072549498)
(0.065385288 -0.0038184546 0.0012003055)
(0.056277373 -0.007214064 0.0020015236)
(0.041690308 -0.016736609 0.0036856296)
(0.0083304317 -0.019340236 0.01060256)
(-0.03239417 0.0027300857 0.015691532)
(-0.050327166 0.0056429441 0.010202351)
(-0.066815918 0.0054681212 0.0051585247)
(-0.075390165 0.0025746025 -0.0012548045)
(-0.077815282 -0.002105442 -0.0084047044)
(-0.074433441 -0.0068288391 -0.015662428)
(-0.066181441 -0.010662267 -0.020941665)
(-0.056299701 -0.013344258 -0.024778585)
(-0.045396611 -0.014099465 -0.028078218)
(-0.031336701 -0.011757553 -0.030196712)
(-0.013638736 -0.0060401518 -0.029586977)
(0.0058668087 0.010113681 -0.021460796)
(0.028315896 0.037326146 -0.017736426)
(0.030037404 0.061276019 -0.013679434)
(0.037257983 0.093848305 -0.0048861049)
(0.038591194 0.1368423 0.0060688401)
(0.10536146 -0.0023922057 -0.00018677289)
(0.11902447 -0.0024996732 -0.00033801697)
(0.13134949 -0.0023588207 -0.00042982342)
(0.14141228 -0.0019431087 -0.00046379186)
(0.15024438 -0.0013208492 -0.00044620648)
(0.15832941 -0.00066191478 -0.00037811344)
(0.16571782 -6.1548248e-05 -0.00025850932)
(0.17240608 0.00045728071 -9.4333886e-05)
(0.17845188 0.0009046953 0.00012065143)
(0.18394598 0.0012795342 0.00038606402)
(0.18899647 0.0015555434 0.00066707122)
(0.19377152 0.001656599 0.00084151734)