/*--------------------------------*- C++ -*----------------------------------*\
| =========                 |                                                 |
| \\      /  F ield         | OpenFOAM: The Open Source CFD Toolbox           |
|  \\    /   O peration     | Version:  v2012                                 |
|   \\  /    A nd           | Website:  www.openfoam.com                      |
|    \\/     M anipulation  |                                                 |
\*---------------------------------------------------------------------------*/
FoamFile
{
    version     2.0;
    format      ascii;
    class       volScalarField;
    location    "170/bottomWater";
    object      p;
}
// * * * * * * * * * * * * * * * * * * * * * * * * * * * * * * * * * * * * * //

dimensions      [1 -1 -2 0 0 0 0];


internalField   nonuniform List<scalar> 
1460
(
353.39335
353.39446
353.39579
353.40058
353.40445
353.40005
353.40339
353.40576
353.39665
353.39758
353.39122
353.39241
353.39851
353.39898
353.40095
353.41212
353.40583
353.41571
353.41672
353.41196
353.41398
353.41004
353.41344
353.41888
353.41358
353.42764
353.42121
353.43005
353.42211
353.42521
274.49469
274.50472
274.5151
274.52074
274.50609
274.48084
274.46897
274.50886
274.47088
274.46323
274.47092
274.4786
274.50566
274.51799
274.52435
274.53045
274.50874
274.52586
274.49851
274.45479
274.44992
274.45449
274.48097
274.50828
274.46904
274.52312
274.51888
274.50555
274.45948
274.44631
196.25559
196.24061
196.25638
196.24265
196.24015
196.26234
196.26658
196.21284
196.24032
196.25282
196.25158
196.24382
196.25029
196.25339
196.25735
196.24963
196.25766
196.22484
196.22435
196.24056
196.26923
196.26716
196.25014
196.25886
196.29074
196.25287
196.25456
196.23619
196.2308
196.26346
117.64985
117.65498
117.67145
117.69849
117.70833
117.68107
117.69802
117.69049
117.67798
117.68589
117.67159
117.67392
117.67924
117.67693
117.68233
117.70294
117.68205
117.65598
117.66935
117.64874
117.68914
117.66947
117.67456
117.67198
117.68924
117.70729
117.68648
117.67398
117.66055
117.68067
39.256221
39.237054
39.218657
39.229682
39.227165
39.219149
39.233332
39.239455
39.241511
39.24163
39.236945
39.226561
39.227421
39.230864
39.228501
39.232264
39.218006
39.24102
39.251308
39.255973
39.260549
39.249382
39.245382
39.250572
39.232473
39.236709
39.228657
39.233704
39.245692
39.246075
353.39359
353.38789
353.40327
353.38936
353.39293
353.40502
353.41001
353.3999
353.40136
353.40311
353.39907
353.39703
353.39833
353.40601
353.40619
353.40769
353.40545
353.40775
353.41192
353.41549
353.41657
353.41501
353.41037
353.42165
353.42655
353.42924
353.42923
353.42671
353.42429
353.42929
274.47144
274.47749
274.50496
274.48297
274.48255
274.51216
274.5044
274.45663
274.45392
274.45432
274.45771
274.45466
274.46618
274.50516
274.51794
274.50228
274.48655
274.45654
274.44621
274.43982
274.44076
274.44312
274.44998
274.48127
274.48551
274.50064
274.49828
274.46778
274.43239
274.43962
196.2595
196.23894
196.22323
196.25935
196.25126
196.22045
196.21268
196.23094
196.25073
196.27633
196.26371
196.24308
196.22907
196.22777
196.23126
196.25365
196.26022
196.24241
196.26293
196.27203
196.2874
196.26925
196.2524
196.2299
196.25087
196.23842
196.23144
196.22638
196.24295
196.28525
117.67527
117.6461
117.65059
117.6592
117.67309
117.66047
117.66991
117.66921
117.68518
117.68792
117.67916
117.66408
117.63558
117.64966
117.64625
117.66377
117.67494
117.64088
117.65841
117.68081
117.69711
117.68498
117.65208
117.6588
117.67731
117.68188
117.66208
117.65304
117.65406
117.68365
39.22812
39.237395
39.237848
39.228072
39.219115
39.228287
39.232565
39.237288
39.244877
39.254016
39.243455
39.234935
39.237338
39.244494
39.2366
39.224362
39.232912
39.241809
39.2475
39.258708
39.272813
39.260837
39.2625
39.254185
39.236903
39.231986
39.232527
39.24578
39.250945
39.258632
353.39071
353.38902
353.38662
353.39053
353.39042
353.38894
353.38985
353.39183
353.39757
353.38897
353.39831
353.40058
353.40591
353.40061
353.40354
353.41334
353.40093
353.41271
353.40338
353.4067
353.40196
353.41025
353.41125
353.41247
353.40909
353.40994
353.41369
353.41724
353.42366
353.42342
274.46851
274.46049
274.48105
274.46551
274.46408
274.48153
274.47754
274.46249
274.45891
274.47742
274.478
274.4589
274.45309
274.45159
274.48455
274.49151
274.45372
274.44179
274.45175
274.46448
274.45662
274.44349
274.44383
274.45244
274.44643
274.45405
274.45776
274.44258
274.42614
274.43656
196.29501
196.2727
196.25202
196.27149
196.25731
196.25998
196.25761
196.26749
196.27146
196.26907
196.24445
196.28247
196.27599
196.24822
196.24543
196.23517
196.269
196.26593
196.27617
196.2747
196.26916
196.27764
196.28245
196.28958
196.28422
196.27351
196.26896
196.26978
196.28704
196.32377
117.68815
117.68683
117.65159
117.69191
117.69288
117.65564
117.65332
117.68453
117.69645
117.65763
117.67705
117.68742
117.68649
117.65505
117.65205
117.65709
117.66174
117.69842
117.67842
117.64658
117.65052
117.68215
117.69115
117.67564
117.66715
117.6556
117.65119
117.66385
117.68262
117.69251
39.257436
39.252776
39.258845
39.248592
39.236379
39.255877
39.264377
39.246204
39.252113
39.265256
39.260977
39.255116
39.260481
39.255143
39.253298
39.235583
39.229465
39.241093
39.238469
39.259675
39.274817
39.252815
39.256571
39.245253
39.252887
39.258822
39.268328
39.256213
39.26583
39.269068
353.3897
353.38679
353.38423
353.38444
353.38646
353.38987
353.3957
353.39784
353.40376
353.39236
353.4146
353.40066
353.41008
353.40384
353.40141
353.39932
353.3988
353.39977
353.40972
353.415
353.41733
353.41769
353.41451
353.42144
353.42483
353.42419
353.42176
353.42262
353.42492
353.42392
274.4706
274.46346
274.48359
274.48514
274.48126
274.48874
274.46777
274.46025
274.45837
274.46776
274.49013
274.46395
274.45192
274.45654
274.45027
274.47363
274.48213
274.47963
274.49514
274.50401
274.49807
274.47244
274.45022
274.43556
274.43039
274.43015
274.42683
274.44581
274.44164
274.42962
196.28668
196.26079
196.25141
196.25638
196.2576
196.24975
196.2471
196.27952
196.26566
196.26496
196.22912
196.2564
196.28027
196.29144
196.26808
196.25842
196.26251
196.26401
196.25258
196.24505
196.23247
196.22155
196.23389
196.26002
196.28741
196.27734
196.25618
196.27863
196.2647
196.28213
117.68428
117.67663
117.64926
117.65256
117.66601
117.65143
117.66382
117.67654
117.70541
117.6583
117.66615
117.6434
117.69227
117.67678
117.65909
117.64272
117.6425
117.64968
117.66319
117.68073
117.66621
117.66418
117.65509
117.67965
117.69288
117.69317
117.67944
117.64637
117.64292
117.68027
39.252261
39.247911
39.253746
39.258273
39.233138
39.257593
39.246688
39.252994
39.252956
39.247342
39.256282
39.263011
39.259846
39.263396
39.250646
39.246106
39.256141
39.244833
39.224299
39.234085
39.238498
39.237359
39.250462
39.25651
39.264667
39.260348
39.241679
39.255735
39.264134
39.252368
353.39068
353.38435
353.39617
353.40208
353.39899
353.4005
353.3966
353.39194
353.40558
353.39466
353.40833
353.40763
353.40652
353.42109
353.42127
353.42237
353.41842
353.42236
353.41984
353.41426
353.41723
353.41591
353.41684
353.42405
353.42641
353.42048
274.47141
274.47401
274.50611
274.5206
274.51109
274.50821
274.48067
274.45805
274.45499
274.46832
274.4966
274.49642
274.46144
274.45604
274.48908
274.52477
274.52382
274.52252
274.49582
274.45566
274.44456
274.46083
274.4715
274.49915
274.4956
274.46548
196.25433
196.22981
196.22454
196.23413
196.2313
196.23091
196.21955
196.24711
196.25954
196.27124
196.2399
196.23638
196.26718
196.26667
196.22534
196.25344
196.24855
196.25313
196.2162
196.26089
196.26436
196.25647
196.23583
196.24978
196.2491
196.27094
117.6842
117.66953
117.67366
117.6917
117.68812
117.66747
117.65542
117.66641
117.69666
117.66728
117.67272
117.6551
117.66876
117.67451
117.65015
117.67576
117.68237
117.68684
117.66159
117.66001
117.67933
117.65095
117.66409
117.67105
117.66362
117.66147
39.239263
39.238801
39.224856
39.228506
39.226251
39.22553
39.242572
39.237879
39.252046
39.22813
39.230393
39.233999
39.234661
39.245311
39.247142
39.240812
39.234346
39.231436
39.241023
39.242503
39.251088
39.25114
39.235443
39.2275
39.229614
39.231933
353.40334
353.40357
353.40898
353.40754
353.41276
353.40951
353.41249
353.40783
353.41303
353.41126
353.41833
353.41475
353.40755
353.41103
353.40684
353.42092
353.41496
353.4227
353.42438
353.4249
353.42103
353.42335
353.42721
353.43178
353.43656
353.43746
274.46772
274.48395
274.52026
274.53223
274.5351
274.52765
274.51846
274.48256
274.44801
274.47393
274.4969
274.50192
274.46863
274.45175
274.4442
274.49019
274.49912
274.49874
274.49007
274.45791
274.45375
274.4842
274.5145
274.51237
274.51189
274.5102
196.25981
196.22946
196.23403
196.25682
196.24458
196.25083
196.21671
196.22329
196.23716
196.26927
196.23927
196.25722
196.28759
196.27393
196.23504
196.21295
196.23039
196.23224
196.23257
196.25705
196.25307
196.22217
196.23735
196.24615
196.24901
196.24211
117.67925
117.66593
117.67289
117.68121
117.7085
117.68616
117.66978
117.65937
117.68955
117.65645
117.67558
117.67338
117.69291
117.68644
117.65377
117.65525
117.67026
117.68743
117.67318
117.65821
117.67678
117.66404
117.68199
117.69601
117.69627
117.68752
39.24599
39.24735
39.236745
39.226635
39.235922
39.223811
39.237954
39.242773
39.247607
39.245291
39.22679
39.217876
39.232389
39.25808
39.254481
39.247711
39.226935
39.226176
39.226167
39.237348
39.234399
39.24486
39.227763
39.225896
39.230573
39.235771
353.4011
353.39725
353.39993
353.40818
353.40552
353.40887
353.41245
353.40344
353.40889
353.40567
353.4061
353.41528
353.40938
353.418
353.41299
353.4281
353.41278
353.41632
353.4125
353.40732
353.40424
353.40382
353.40304
353.40721
353.40931
353.39788
353.40959
353.39539
353.39533
353.39348
274.46053
274.45103
274.4718
274.51421
274.51178
274.50377
274.47979
274.45167
274.44754
274.4594
274.46458
274.51488
274.50027
274.51052
274.50969
274.50507
274.46083
274.44136
274.4411
274.45481
274.46384
274.46221
274.47243
274.45585
274.45111
274.45972
274.48108
274.4727
274.46785
274.47291
196.28724
196.24902
196.24044
196.22304
196.2463
196.24451
196.21685
196.25077
196.27104
196.26953
196.24667
196.23423
196.25532
196.25595
196.25513
196.23391
196.24125
196.26654
196.28396
196.26534
196.26071
196.28011
196.25579
196.27322
196.2655
196.24916
196.22395
196.26192
196.25876
196.26324
117.68061
117.66311
117.64623
117.64873
117.674
117.6793
117.64895
117.65775
117.67564
117.66814
117.64415
117.64646
117.65648
117.69321
117.68002
117.67449
117.64828
117.69026
117.68313
117.63634
117.64721
117.66611
117.64817
117.65739
117.68059
117.66528
117.66185
117.65103
117.64305
117.6366
39.25463
39.247505
39.246243
39.234361
39.226398
39.227122
39.240315
39.242141
39.255694
39.25025
39.24456
39.237074
39.21921
39.228468
39.225623
39.229852
39.243488
39.253229
39.255014
39.256616
39.248325
39.22218
39.260882
39.236451
39.238588
39.235109
39.23384
39.233295
39.232924
39.246721
353.40641
353.40551
353.40222
353.40102
353.40605
353.40225
353.40651
353.40816
353.41566
353.41147
353.40877
353.42438
353.40815
353.41588
353.40812
353.41413
353.40974
353.41625
353.41328
353.41143
353.40946
353.41165
353.41314
353.43462
353.41252
353.41551
353.40953
353.41417
353.41669
353.41366
274.45611
274.44453
274.45375
274.47768
274.48643
274.4671
274.45346
274.4419
274.44247
274.44497
274.45865
274.4936
274.46133
274.44386
274.46325
274.45685
274.43933
274.43393
274.43846
274.43816
274.44281
274.45266
274.47887
274.49201
274.45681
274.44025
274.44778
274.44197
274.44238
274.4461
196.3248
196.29856
196.26829
196.27124
196.26343
196.27379
196.2501
196.27826
196.30944
196.28438
196.26335
196.23556
196.27944
196.27905
196.28906
196.27947
196.26861
196.31724
196.31071
196.2823
196.26687
196.26319
196.25923
196.22033
196.2611
196.25948
196.27532
196.2641
196.26594
196.27991
117.69794
117.68176
117.66649
117.64306
117.6638
117.66247
117.6532
117.66822
117.69294
117.68474
117.63923
117.66272
117.65689
117.68699
117.64723
117.6551
117.66098
117.68975
117.693
117.68037
117.67377
117.68173
117.66184
117.65743
117.65756
117.70451
117.67886
117.7009
117.69829
117.6968
39.27576
39.267133
39.257148
39.256021
39.243386
39.243294
39.248799
39.25531
39.275635
39.267378
39.266777
39.267077
39.252845
39.230672
39.268514
39.269148
39.247099
39.270621
39.266988
39.255266
39.24794
39.233069
39.255695
39.249858
39.245175
39.244609
39.247659
39.251267
39.250391
39.25499
353.40356
353.39967
353.40095
353.40164
353.401
353.41217
353.41162
353.40703
353.4117
353.41139
353.40725
353.40698
353.40707
353.41131
353.40538
353.42406
353.41441
353.41432
353.41565
353.41068
353.41247
353.41174
353.41741
353.41419
353.41028
353.41126
353.41018
353.40608
353.4051
353.40773
274.45505
274.44911
274.47141
274.47525
274.47163
274.50515
274.4893
274.448
274.44229
274.44336
274.43642
274.46096
274.46817
274.46066
274.46084
274.48954
274.46663
274.43892
274.44125
274.45145
274.4759
274.4837
274.49457
274.47409
274.44964
274.4391
274.44114
274.45922
274.45516
274.44528
196.29429
196.26611
196.26646
196.26396
196.27453
196.23294
196.23098
196.2469
196.28096
196.30351
196.26524
196.26206
196.27046
196.26403
196.27021
196.23682
196.24952
196.26233
196.28731
196.25936
196.24136
196.25379
196.24921
196.24405
196.25482
196.28583
196.2778
196.28375
196.27761
196.28466
117.67224
117.65507
117.63422
117.65182
117.66088
117.66023
117.64427
117.64837
117.68237
117.68578
117.66054
117.64231
117.63727
117.66898
117.65541
117.65418
117.6357
117.67698
117.67885
117.64128
117.64613
117.65559
117.66827
117.6612
117.6448
117.69163
117.68196
117.64665
117.64185
117.68203
39.253294
39.24781
39.252243
39.23803
39.226605
39.237147
39.246194
39.253225
39.260977
39.268311
39.25204
39.261929
39.259368
39.235883
39.235411
39.248023
39.253631
39.25583
39.26231
39.248602
39.245783
39.225971
39.222975
39.227687
39.238047
39.247708
39.243712
39.269511
39.27167
39.257809
353.40478
353.40481
353.41134
353.41038
353.41785
353.41018
353.41608
353.40635
353.41311
353.40647
353.40598
353.42361
353.41442
353.42267
353.42268
353.41622
353.41993
353.41529
353.41355
353.41345
353.42117
353.4077
353.42575
353.41319
353.41634
353.41592
353.4109
353.4261
353.42901
353.41645
274.47058
274.48753
274.51851
274.52095
274.52707
274.52411
274.50472
274.46056
274.45013
274.45167
274.46248
274.51769
274.50691
274.51594
274.51509
274.49879
274.49606
274.47179
274.44177
274.47831
274.50666
274.49836
274.50038
274.45461
274.44592
274.44957
274.45217
274.49726
274.50825
274.48262
196.2596
196.23054
196.23197
196.25016
196.24166
196.2531
196.22388
196.23981
196.25947
196.25783
196.22944
196.21717
196.24852
196.24225
196.24807
196.27335
196.23792
196.26789
196.24166
196.24958
196.22866
196.25866
196.24036
196.25851
196.27133
196.27665
196.25667
196.24536
196.25085
196.26727
117.67541
117.66793
117.6689
117.68765
117.70844
117.68363
117.66282
117.65081
117.68887
117.68403
117.65696
117.66507
117.67352
117.69958
117.70187
117.66917
117.66294
117.63871
117.68372
117.64283
117.66283
117.66076
117.70174
117.68408
117.69862
117.71223
117.67678
117.68259
117.66987
117.66067
39.24349
39.243611
39.231461
39.226242
39.233278
39.221547
39.235297
39.24887
39.251017
39.251868
39.245784
39.240169
39.216864
39.228951
39.232372
39.22356
39.23957
39.259333
39.251616
39.255943
39.242128
39.218453
39.229826
39.228681
39.230415
39.240821
39.239464
39.245142
39.241945
39.251125
)
;

boundaryField
{
    minX
    {
        type            calculated;
        value           nonuniform List<scalar> 
50
(
353.39335
274.49469
196.25559
117.64985
39.256221
353.39359
274.47144
196.2595
117.67527
39.22812
353.39071
274.46851
196.29501
117.68815
39.257436
353.3897
274.4706
196.28668
117.68428
39.252261
353.39068
274.47141
196.25433
117.6842
39.239263
353.40334
274.46772
196.25981
117.67925
39.24599
353.4011
274.46053
196.28724
117.68061
39.25463
353.40641
274.45611
196.3248
117.69794
39.27576
353.40356
274.45505
196.29429
117.67224
39.253294
353.40478
274.47058
196.2596
117.67541
39.24349
)
;
    }
    maxX
    {
        type            calculated;
        value           nonuniform List<scalar> 
50
(
353.42521
274.44631
196.26346
117.68067
39.246075
353.42929
274.43962
196.28525
117.68365
39.258632
353.42342
274.43656
196.32377
117.69251
39.269068
353.42392
274.42962
196.28213
117.68027
39.252368
353.42048
274.46548
196.27094
117.66147
39.231933
353.43746
274.5102
196.24211
117.68752
39.235771
353.39348
274.47291
196.26324
117.6366
39.246721
353.41366
274.4461
196.27991
117.6968
39.25499
353.40773
274.44528
196.28466
117.68203
39.257809
353.41645
274.48262
196.26727
117.66067
39.251125
)
;
    }
    minY
    {
        type            calculated;
        value           nonuniform List<scalar> 
292
(
392.4
392.4
392.4
392.4
392.4
392.4
392.4
392.4
392.4
392.4
392.4
392.4
392.4
392.4
392.4
392.4
392.4
392.4
392.4
392.4
392.4
392.4
392.4
392.4
392.4
392.4
392.4
392.4
392.4
392.4
392.4
392.4
392.4
392.4
392.4
392.4
392.4
392.4
392.4
392.4
392.4
392.4
392.4
392.4
392.4
392.4
392.4
392.4
392.4
392.4
392.4
392.4
392.4
392.4
392.4
392.4
392.4
392.4
392.4
392.4
392.4
392.4
392.4
392.4
392.4
392.4
392.4
392.4
392.4
392.4
392.4
392.4
392.4
392.4
392.4
392.4
392.4
392.4
392.4
392.4
392.4
392.4
392.4
392.4
392.4
392.4
392.4
392.4
392.4
392.4
392.4
392.4
392.4
392.4
392.4
392.4
392.4
392.4
392.4
392.4
392.4
392.4
392.4
392.4
392.4
392.4
392.4
392.4
392.4
392.4
392.4
392.4
392.4
392.4
392.4
392.4
392.4
392.4
392.4
392.4
392.4
392.4
392.4
392.4
392.4
392.4
392.4
392.4
392.4
392.4
392.4
392.4
392.4
392.4
392.4
392.4
392.4
392.4
392.4
392.4
392.4
392.4
392.4
392.4
392.4
392.4
392.4
392.4
392.4
392.4
392.4
392.4
392.4
392.4
392.4
392.4
392.4
392.4
392.4
392.4
392.4
392.4
392.4
392.4
392.4
392.4
392.4
392.4
392.4
392.4
392.4
392.4
392.4
392.4
392.4
392.4
392.4
392.4
392.4
392.4
392.4
392.4
392.4
392.4
392.4
392.4
392.4
392.4
392.4
392.4
392.4
392.4
392.4
392.4
392.4
392.4
392.4
392.4
392.4
392.4
392.4
392.4
392.4
392.4
392.4
392.4
392.4
392.4
392.4
392.4
392.4
392.4
392.4
392.4
392.4
392.4
392.4
392.4
392.4
392.4
392.4
392.4
392.4
392.4
392.4
392.4
392.4
392.4
392.4
392.4
392.4
392.4
392.4
392.4
392.4
392.4
392.4
392.4
392.4
392.4
392.4
392.4
392.4
392.4
392.4
392.4
392.4
392.4
392.4
392.4
392.4
392.4
392.4
392.4
392.4
392.4
392.4
392.4
392.4
392.4
392.4
392.4
392.4
392.4
392.4
392.4
392.4
392.4
392.4
392.4
392.4
392.4
392.4
392.4
392.4
392.4
392.4
392.4
392.4
392.4
392.4
392.4
392.4
392.4
392.4
392.4
392.4
392.4
392.4
392.4
392.4
392.4
)
;
    }
    minZ
    {
        type            calculated;
        value           nonuniform List<scalar> 
150
(
353.39335
274.49469
196.25559
117.64985
39.256221
353.39446
274.50472
196.24061
117.65498
39.237054
353.39579
274.5151
196.25638
117.67145
39.218657
353.40058
274.52074
196.24265
117.69849
39.229682
353.40445
274.50609
196.24015
117.70833
39.227165
353.40005
274.48084
196.26234
117.68107
39.219149
353.40339
274.46897
196.26658
117.69802
39.233332
353.40576
274.50886
196.21284
117.69049
39.239455
353.39665
274.47088
196.24032
117.67798
39.241511
353.39758
274.46323
196.25282
117.68589
39.24163
353.39122
274.47092
196.25158
117.67159
39.236945
353.39241
274.4786
196.24382
117.67392
39.226561
353.39851
274.50566
196.25029
117.67924
39.227421
353.39898
274.51799
196.25339
117.67693
39.230864
353.40095
274.52435
196.25735
117.68233
39.228501
353.41212
274.53045
196.24963
117.70294
39.232264
353.40583
274.50874
196.25766
117.68205
39.218006
353.41571
274.52586
196.22484
117.65598
39.24102
353.41672
274.49851
196.22435
117.66935
39.251308
353.41196
274.45479
196.24056
117.64874
39.255973
353.41398
274.44992
196.26923
117.68914
39.260549
353.41004
274.45449
196.26716
117.66947
39.249382
353.41344
274.48097
196.25014
117.67456
39.245382
353.41888
274.50828
196.25886
117.67198
39.250572
353.41358
274.46904
196.29074
117.68924
39.232473
353.42764
274.52312
196.25287
117.70729
39.236709
353.42121
274.51888
196.25456
117.68648
39.228657
353.43005
274.50555
196.23619
117.67398
39.233704
353.42211
274.45948
196.2308
117.66055
39.245692
353.42521
274.44631
196.26346
117.68067
39.246075
)
;
    }
    maxZ
    {
        type            calculated;
        value           nonuniform List<scalar> 
150
(
353.40478
274.47058
196.2596
117.67541
39.24349
353.40481
274.48753
196.23054
117.66793
39.243611
353.41134
274.51851
196.23197
117.6689
39.231461
353.41038
274.52095
196.25016
117.68765
39.226242
353.41785
274.52707
196.24166
117.70844
39.233278
353.41018
274.52411
196.2531
117.68363
39.221547
353.41608
274.50472
196.22388
117.66282
39.235297
353.40635
274.46056
196.23981
117.65081
39.24887
353.41311
274.45013
196.25947
117.68887
39.251017
353.40647
274.45167
196.25783
117.68403
39.251868
353.40598
274.46248
196.22944
117.65696
39.245784
353.42361
274.51769
196.21717
117.66507
39.240169
353.41442
274.50691
196.24852
117.67352
39.216864
353.42267
274.51594
196.24225
117.69958
39.228951
353.42268
274.51509
196.24807
117.70187
39.232372
353.41622
274.49879
196.27335
117.66917
39.22356
353.41993
274.49606
196.23792
117.66294
39.23957
353.41529
274.47179
196.26789
117.63871
39.259333
353.41355
274.44177
196.24166
117.68372
39.251616
353.41345
274.47831
196.24958
117.64283
39.255943
353.42117
274.50666
196.22866
117.66283
39.242128
353.4077
274.49836
196.25866
117.66076
39.218453
353.42575
274.50038
196.24036
117.70174
39.229826
353.41319
274.45461
196.25851
117.68408
39.228681
353.41634
274.44592
196.27133
117.69862
39.230415
353.41592
274.44957
196.27665
117.71223
39.240821
353.4109
274.45217
196.25667
117.67678
39.239464
353.4261
274.49726
196.24536
117.68259
39.245142
353.42901
274.50825
196.25085
117.66987
39.241945
353.41645
274.48262
196.26727
117.66067
39.251125
)
;
    }
    bottomWater_to_rightSolid
    {
        type            calculated;
        value           nonuniform List<scalar> 
130
(
0.0010199043
0.011307643
0.015972736
0.020549006
0.0093815254
0.005381653
0.010572322
-0.0075271092
-0.0032905763
-0.011343104
-0.0062962381
0.0056920269
0.0060746317
0.0018085749
0.0075001682
0.018708167
0.032813031
0.020836914
0.022500065
0.014184521
-0.0030966984
-0.0080138361
-0.0074731103
0.005779519
0.010945099
0.018631729
0.0010927561
-0.0015310835
0.019675117
0.034817219
0.012814795
0.016570654
0.0052531916
0.012887017
0.018822321
0.028327996
0.016213335
0.02582962
0.029067839
0.0048330929
-0.015700664
-0.0059153242
-0.0015022707
-0.0026407629
0.010461528
0.016509976
0.024667129
0.020348116
0.0016788512
0.015734695
0.024134129
0.012367614
0.0053106054
0.0071418897
0.00081199326
-0.0056537749
-0.0085642486
0.0010234667
0.0025034447
0.0110876
0.011140323
-0.0045573515
-0.012499867
-0.010385644
-0.0080665374
0.01808024
0.01448058
0.0077109998
-0.013065309
-0.013823776
-0.013833367
-0.0026522403
-0.0056010115
0.004860385
-0.012236624
-0.01410394
-0.0094268474
-0.0042290061
0.013228645
0.015014062
0.016615782
0.0083246498
-0.01782029
0.020882396
-0.0035492731
-0.001411766
-0.004891303
-0.0061603858
-0.0067053398
-0.0070761523
0.0067207698
0.030620867
0.026988082
0.015266176
0.0079403112
-0.0069308438
0.015695
0.0098575043
0.005174538
0.0046092015
0.0076591117
0.0112668
0.010391325
0.014990386
0.015830491
0.022309505
0.0086023471
0.0057833551
-0.01402877
-0.017025176
-0.012313364
-0.0019533206
0.007708149
0.0037116042
0.029511239
0.031670347
0.017808593
0.019333455
0.011615579
0.01594334
0.0021277689
-0.021546579
-0.010174262
-0.01131901
-0.0095846428
0.00082072097
-0.00053642039
0.0051422118
0.0019451693
0.011124705
)
;
    }
    bottomWater_to_leftSolid
    {
        type            calculated;
        value           nonuniform List<scalar> 
130
(
0.016220683
-0.0029457201
-0.021343144
-0.010317743
-0.012835358
-0.020851261
-0.0066678994
-0.00054519565
0.0015105492
0.0016303315
-0.0030553499
-0.01343941
-0.012578737
-0.01188011
-0.0026047305
-0.0021520633
-0.011927768
-0.020884988
-0.011712877
-0.0074354048
-0.0027124783
0.0048765861
0.014016127
0.0034545537
-0.0050652166
-0.002661682
0.017435899
0.012776407
0.018844725
0.0085922595
-0.0036206425
0.015877311
0.024377196
0.0062043941
0.012113256
0.025255942
0.020977162
0.015116148
0.020480907
0.012260719
0.0079109769
0.013745614
0.018272954
-0.0068615484
0.017593491
0.0066880059
0.012993635
0.012956081
0.0073423052
0.016281914
0.023010929
0.019845732
-0.00073744763
-0.0011993146
-0.015144281
-0.01149435
-0.01374877
-0.014469863
0.0025720404
-0.0021209506
0.012045535
-0.011869745
-0.0096072818
-0.0060010381
-0.0053386185
0.0059903983
0.0073503037
-0.0032547061
-0.013364557
-0.0040784916
-0.016188672
-0.002046086
0.0027734733
0.0076071106
0.0052905653
-0.013209556
-0.022124308
-0.0076112596
0.014629564
0.0075052288
0.0062433225
-0.0056389373
-0.013601678
-0.012877625
0.00031483996
0.0021413733
0.015693595
0.010250251
0.0045596976
-0.0029256233
-0.02078964
0.035760285
0.027132886
0.017147539
0.016021263
0.0033857747
0.0032939942
0.0087988029
0.015309933
0.035634943
0.027377934
0.026776916
0.027076634
0.012845232
0.013294442
0.0078102163
0.012243135
-0.0019699678
-0.013395254
-0.0028530651
0.0061935672
0.013224695
0.020977136
0.028311162
0.012039823
0.021928877
0.01936805
0.0034903954
0.0036111332
-0.0085385123
-0.013757607
-0.0067224608
-0.018453377
-0.0047034947
0.0088704659
0.011017399
0.011867985
0.0057838933
0.00016898463
-0.02313602
)
;
    }
    bottomWater_to_heater
    {
        type            calculated;
        value           nonuniform List<scalar> 
92
(
-0.0091361119
-0.011499116
-0.0077360213
-0.021994081
0.0044943563
-0.0033996542
-0.015637728
-0.0070879401
0.015143427
0.013298452
-0.0044169723
-0.010534586
353.40384
353.40141
353.39932
353.3988
274.45654
274.45027
274.47363
274.48213
196.29144
196.26808
196.25842
196.26251
117.67678
117.65909
117.64272
117.6425
0.023396498
39.263396
0.01064561
39.250646
0.0061060541
39.246106
0.016140724
39.256141
353.40652
353.42109
274.46144
274.45604
196.26718
196.26667
117.66876
117.67451
39.234661
39.245311
353.40755
353.418
353.41299
353.4281
353.41103
353.41278
274.46863
274.51052
274.50969
274.50507
274.45175
274.46083
196.28759
196.25595
196.25513
196.23391
196.27393
196.24125
117.69291
117.69321
117.68002
117.67449
117.68644
117.64828
39.232389
39.228468
39.225623
39.229852
39.25808
39.243488
-0.011531534
-0.014377004
-0.010147721
0.0034876104
-0.0093283829
0.028513872
0.029148128
0.0070985572
-0.0041171949
-0.0045888057
0.0080229186
0.013630932
-0.011049288
-0.0076282667
-0.016440364
-0.00043002429
)
;
    }
}


// ************************************************************************* //
