/*--------------------------------*- C++ -*----------------------------------*\
| =========                 |                                                 |
| \\      /  F ield         | OpenFOAM: The Open Source CFD Toolbox           |
|  \\    /   O peration     | Version:  v2012                                 |
|   \\  /    A nd           | Website:  www.openfoam.com                      |
|    \\/     M anipulation  |                                                 |
\*---------------------------------------------------------------------------*/
FoamFile
{
    version     2.0;
    format      ascii;
    class       volScalarField;
    location    "170/bottomWater";
    object      p_rgh;
}
// * * * * * * * * * * * * * * * * * * * * * * * * * * * * * * * * * * * * * //

dimensions      [1 -1 -2 0 0 0 0];


internalField   nonuniform List<scalar> 
1460
(
0.23335011
0.23446174
0.23579204
0.24057885
0.2444529
0.24004643
0.24339455
0.24576296
0.23665382
0.23757654
0.23122037
0.23241448
0.23850889
0.23897933
0.24095205
0.25211654
0.245828
0.25570966
0.2567201
0.25195579
0.25398411
0.25003738
0.25344076
0.25888115
0.25357637
0.26763931
0.26121099
0.27004899
0.26210675
0.26520692
-0.18531268
-0.17527895
-0.16490126
-0.15926178
-0.17391076
-0.19915556
-0.21103443
-0.17114038
-0.20911633
-0.21676764
-0.20907865
-0.20140051
-0.17433751
-0.16200572
-0.15565206
-0.14955371
-0.17125531
-0.154141
-0.18148654
-0.22520655
-0.23007577
-0.22551049
-0.19902971
-0.17172202
-0.2109556
-0.15688152
-0.16111634
-0.17444936
-0.2205201
-0.23369312
0.055593242
0.040609648
0.056375762
0.042652415
0.040153606
0.062338244
0.066582667
0.012836611
0.040316174
0.052821686
0.051583308
0.043818782
0.050288536
0.053386951
0.057348497
0.04963258
0.05765976
0.024842531
0.024350648
0.040562131
0.069234201
0.067162047
0.050144975
0.058863208
0.09073778
0.052870088
0.054561446
0.03619122
0.030795867
0.063464733
-0.07014679
-0.065023827
-0.048551097
-0.021506904
-0.011672218
-0.038926394
-0.02197902
-0.029506585
-0.042022135
-0.034113166
-0.048411104
-0.046075973
-0.040756271
-0.043071715
-0.037673182
-0.017063105
-0.037953466
-0.064020894
-0.050653479
-0.071258476
-0.030861827
-0.050528621
-0.045443304
-0.048022176
-0.030760445
-0.01271156
-0.033522223
-0.046018181
-0.059445724
-0.039326493
0.016220683
-0.0029457201
-0.021343144
-0.010317743
-0.012835358
-0.020851261
-0.0066678994
-0.00054519565
0.0015105492
0.0016303315
-0.0030553499
-0.01343941
-0.012578737
-0.0091361119
-0.011499116
-0.0077360213
-0.021994081
0.0010199043
0.011307643
0.015972736
0.020549006
0.0093815254
0.005381653
0.010572322
-0.0075271092
-0.0032905763
-0.011343104
-0.0062962381
0.0056920269
0.0060746317
0.23358671
0.22788724
0.24326763
0.22936319
0.23293182
0.24502232
0.25000653
0.23990292
0.24135777
0.24310911
0.23906521
0.23703119
0.23833037
0.246011
0.24619355
0.2476858
0.24545474
0.24774987
0.25191619
0.25549459
0.25656678
0.25501402
0.25037201
0.26165205
0.2665487
0.2692387
0.26923439
0.26671328
0.26429057
0.26928647
-0.2085575
-0.20250617
-0.1750413
-0.1970323
-0.1974493
-0.16783872
-0.17560453
-0.22336572
-0.22607538
-0.22568348
-0.22228669
-0.22534044
-0.21381695
-0.17483752
-0.16205721
-0.17771718
-0.19345251
-0.22345633
-0.23378906
-0.24017695
-0.2392438
-0.23687866
-0.23002276
-0.19872577
-0.19448857
-0.17935541
-0.18171783
-0.21221564
-0.24761341
-0.24038033
0.059500305
0.03894333
0.023226907
0.059353822
0.051262883
0.020447606
0.012676096
0.030938146
0.050727405
0.076332141
0.063712275
0.043075189
0.029069563
0.027767913
0.031262193
0.053653499
0.060220527
0.042407227
0.062926992
0.072029665
0.087403825
0.06924612
0.052402613
0.02989573
0.05087299
0.038423589
0.03143864
0.026378298
0.042947312
0.085254888
-0.04473148
-0.073898085
-0.069407625
-0.060800245
-0.046906016
-0.059526099
-0.050086872
-0.050789619
-0.034820885
-0.032079137
-0.040842823
-0.05592419
-0.084422197
-0.070343241
-0.073746898
-0.056229105
-0.045056347
-0.079123511
-0.061591799
-0.039189708
-0.022894495
-0.035019315
-0.067917413
-0.061198808
-0.042690808
-0.038116975
-0.057923844
-0.066963796
-0.065942832
-0.036352438
-0.01188011
-0.0026047305
-0.0021520633
-0.011927768
-0.020884988
-0.011712877
-0.0074354048
-0.0027124783
0.0048765861
0.014016127
0.0034545537
-0.0050652166
-0.002661682
0.0044943563
-0.0033996542
-0.015637728
-0.0070879401
0.0018085749
0.0075001682
0.018708167
0.032813031
0.020836914
0.022500065
0.014184521
-0.0030966984
-0.0080138361
-0.0074731103
0.005779519
0.010945099
0.018631729
0.23071122
0.22901819
0.22661755
0.23053305
0.23041971
0.22893543
0.22984514
0.2318306
0.237574
0.22897294
0.23831053
0.24058105
0.24591316
0.2406108
0.24353873
0.25333516
0.24092886
0.25271161
0.24338063
0.24670351
0.24196319
0.25025272
0.25124813
0.25246729
0.2490924
0.24994085
0.25369343
0.25724159
0.26366429
0.26341833
-0.21148846
-0.21950745
-0.19894957
-0.2144856
-0.21591607
-0.1984672
-0.20245553
-0.21751245
-0.22108816
-0.20258399
-0.20199779
-0.22110429
-0.22690768
-0.22841038
-0.19544726
-0.18849082
-0.22628018
-0.23821035
-0.22825276
-0.21552217
-0.22337702
-0.23650559
-0.23617268
-0.22755935
-0.23356762
-0.22595022
-0.22224248
-0.23741609
-0.25385959
-0.24344466
0.095005118
0.072697643
0.052018303
0.071493925
0.057306433
0.059983669
0.057610435
0.067488011
0.07146091
0.069065192
0.044447897
0.08246746
0.075991199
0.048219217
0.045434452
0.035166659
0.068999432
0.065926958
0.076169625
0.07469745
0.06916228
0.07763514
0.082448027
0.089584328
0.084216693
0.073507284
0.068958947
0.069783698
0.08703712
0.12377404
-0.031853084
-0.033171237
-0.06841461
-0.028086629
-0.027122182
-0.064359702
-0.066679815
-0.035472534
-0.023554506
-0.062369008
-0.042950946
-0.03257781
-0.033512137
-0.064953519
-0.067954096
-0.062906554
-0.058260579
-0.021576453
-0.041575331
-0.073418854
-0.069483457
-0.037845341
-0.028848133
-0.044356341
-0.052846198
-0.064398128
-0.068805736
-0.056145156
-0.037378411
-0.027489555
0.017435899
0.012776407
0.018844725
0.0085922595
-0.0036206425
0.015877311
0.024377196
0.0062043941
0.012113256
0.025255942
0.020977162
0.015116148
0.020480907
0.015143427
0.013298452
-0.0044169723
-0.010534586
0.0010927561
-0.0015310835
0.019675117
0.034817219
0.012814795
0.016570654
0.0052531916
0.012887017
0.018822321
0.028327996
0.016213335
0.02582962
0.029067839
0.22970335
0.22678597
0.2242255
0.22444032
0.22645718
0.2298689
0.23570111
0.23783529
0.24376024
0.23235751
0.25459658
0.24065705
0.25007746
0.24383924
0.24141376
0.23931948
0.2387966
0.23977292
0.24971804
0.25500161
0.25733491
0.25769002
0.25450902
0.26143758
0.26483243
0.26419141
0.26175965
0.2626232
0.2649188
0.26391792
-0.20939786
-0.21654478
-0.19641466
-0.19485943
-0.19873562
-0.19125785
-0.21222842
-0.21975308
-0.22162898
-0.21223975
-0.18986845
-0.2160497
-0.22807839
-0.22345649
-0.22972526
-0.20637018
-0.19786603
-0.20036879
-0.18486082
-0.17599097
-0.18193382
-0.20755982
-0.22978192
-0.24443658
-0.24961176
-0.24985469
-0.25316904
-0.23419259
-0.23835902
-0.25038037
0.086684389
0.060788995
0.05141386
0.056382173
0.057603141
0.049745404
0.047102499
0.079516412
0.065655301
0.064962863
0.029118768
0.05640414
0.08027239
0.091443991
0.068083868
0.058423869
0.062508735
0.064006339
0.052578737
0.045053946
0.032471422
0.021546623
0.033889715
0.060018798
0.087405729
0.077339546
0.056181276
0.078633162
0.064703904
0.082130104
-0.035721549
-0.043367839
-0.070739905
-0.067436448
-0.05398601
-0.068565391
-0.056180547
-0.043456029
-0.014591362
-0.061695034
-0.053850307
-0.076595218
-0.027734867
-0.043219898
-0.060910991
-0.077279839
-0.077503306
-0.070319218
-0.056807776
-0.039268185
-0.053788042
-0.055815109
-0.0649119
-0.040348344
-0.027115832
-0.0268306
-0.040558005
-0.07362841
-0.077075146
-0.039732179
0.012260719
0.0079109769
0.013745614
0.018272954
-0.0068615484
0.017593491
0.0066880059
0.012993635
0.012956081
0.0073423052
0.016281914
0.023010929
0.019845732
0.023396498
0.01064561
0.0061060541
0.016140724
0.0048330929
-0.015700664
-0.0059153242
-0.0015022707
-0.0026407629
0.010461528
0.016509976
0.024667129
0.020348116
0.0016788512
0.015734695
0.024134129
0.012367614
0.23067525
0.22435201
0.23616843
0.24207761
0.23899147
0.24049563
0.23659614
0.23194228
0.24558499
0.23465793
0.24833168
0.24762931
0.24651538
0.26108857
0.2612716
0.2623704
0.2584161
0.26236243
0.25983621
0.25426262
0.25723495
0.25590781
0.25683926
0.26405156
0.26641271
0.26048291
-0.20858687
-0.20599241
-0.17389103
-0.15940299
-0.16891157
-0.17178943
-0.19933036
-0.22194704
-0.22500601
-0.21168392
-0.18339534
-0.18357777
-0.21856351
-0.22396062
-0.19091542
-0.15522564
-0.15617629
-0.15748417
-0.18418171
-0.22433886
-0.23544375
-0.21916939
-0.20849689
-0.18084655
-0.18439853
-0.21452418
0.05433279
0.029806511
0.024544632
0.034128851
0.031298713
0.03091468
0.019550202
0.047105977
0.0595432
0.071242501
0.039896658
0.036377862
0.067176489
0.066671899
0.025344656
0.05344088
0.048553776
0.053127226
0.016201072
0.060886303
0.064363033
0.056469394
0.035833032
0.04977579
0.049099496
0.070938561
-0.035801497
-0.050465203
-0.046335927
-0.028300064
-0.031883454
-0.052531755
-0.064575484
-0.053586568
-0.023344144
-0.052718378
-0.047275896
-0.064900031
-0.051236861
-0.045493348
-0.069848446
-0.044238285
-0.037625641
-0.033157647
-0.058411216
-0.059988279
-0.040666755
-0.069053623
-0.055906582
-0.048945752
-0.056382647
-0.058532744
-0.00073744763
-0.0011993146
-0.015144281
-0.01149435
-0.01374877
-0.014469863
0.0025720404
-0.0021209506
0.012045535
-0.011869745
-0.0096072818
-0.0060010381
-0.0053386185
0.0053106054
0.0071418897
0.00081199326
-0.0056537749
-0.0085642486
0.0010234667
0.0025034447
0.0110876
0.011140323
-0.0045573515
-0.012499867
-0.010385644
-0.0080665374
0.2433399
0.243568
0.24898339
0.24753529
0.25275906
0.2495086
0.25249194
0.24782691
0.25303103
0.25125655
0.25832777
0.25474961
0.24754686
0.25103364
0.24683813
0.26092108
0.25496367
0.26269995
0.26437718
0.26489501
0.26102794
0.26334753
0.26721297
0.27177819
0.2765643
0.2774602
-0.21227673
-0.19605164
-0.15974289
-0.14777349
-0.14489783
-0.15235123
-0.16153983
-0.19744323
-0.23199497
-0.20607097
-0.18310284
-0.1780804
-0.21137004
-0.22825437
-0.23580304
-0.18980929
-0.18087887
-0.18125929
-0.18992696
-0.22209246
-0.22624607
-0.1958048
-0.1655002
-0.16762549
-0.16811341
-0.16979775
0.059806779
0.029456713
0.034033056
0.056819857
0.044575373
0.050829352
0.016707427
0.023286464
0.037164582
0.069274983
0.03926815
0.057218817
0.087590016
0.073929952
0.035041384
0.012949059
0.030394117
0.032240682
0.032570016
0.05705112
0.053066675
0.022166402
0.037346425
0.04614558
0.049005354
0.042112612
-0.040750688
-0.054067821
-0.047109659
-0.038791288
-0.011498361
-0.033838647
-0.050216999
-0.060633971
-0.030448504
-0.06355307
-0.044421697
-0.046618355
-0.027090491
-0.033559136
-0.066226037
-0.064753178
-0.049741428
-0.032569433
-0.046824034
-0.061787105
-0.043217561
-0.055957269
-0.03800892
-0.023990824
-0.023734723
-0.032483798
0.0059903983
0.0073503037
-0.0032547061
-0.013364557
-0.0040784916
-0.016188672
-0.002046086
0.0027734733
0.0076071106
0.0052905653
-0.013209556
-0.022124308
-0.0076112596
0.01808024
0.01448058
0.0077109998
-0.013065309
-0.013823776
-0.013833367
-0.0026522403
-0.0056010115
0.004860385
-0.012236624
-0.01410394
-0.0094268474
-0.0042290061
0.24110461
0.23725083
0.23992683
0.24818397
0.2455153
0.24886759
0.25244956
0.24344111
0.24889108
0.24567409
0.24610269
0.2552798
0.24937668
0.25800269
0.25299138
0.26810331
0.25277675
0.25632075
0.25250157
0.24731994
0.24423807
0.24381669
0.2430365
0.24721368
0.24930523
0.23787668
0.24958545
0.23539428
0.23533101
0.23348476
-0.21946711
-0.22897069
-0.20820141
-0.16578508
-0.16821864
-0.17623329
-0.20021383
-0.22832732
-0.2324552
-0.2206014
-0.2154243
-0.16512392
-0.17972983
-0.16947567
-0.17030927
-0.17493404
-0.21916512
-0.23864414
-0.23890398
-0.22518814
-0.21616055
-0.21779154
-0.20756817
-0.22415031
-0.22889375
-0.22028499
-0.19892484
-0.20729523
-0.21214687
-0.20709315
0.087239637
0.049019248
0.040440298
0.023041332
0.046298767
0.044510936
0.016850184
0.050769281
0.071041816
0.0695279
0.046666346
0.034226599
0.055319117
0.055947642
0.055132887
0.033910163
0.041248842
0.066542191
0.083959114
0.065339161
0.060708072
0.080114892
0.055788705
0.073223296
0.065500812
0.049161694
0.023951962
0.061924973
0.058758487
0.063236294
-0.039385298
-0.056893116
-0.073770545
-0.071271635
-0.045995995
-0.040699273
-0.071045231
-0.062250476
-0.044364929
-0.051864315
-0.075850268
-0.073536181
-0.063523155
-0.026788852
-0.039975673
-0.045506042
-0.071716616
-0.029738604
-0.036873777
-0.083658357
-0.072793457
-0.053886143
-0.071833147
-0.062605147
-0.039414747
-0.054715475
-0.058148777
-0.068974344
-0.076946898
-0.083399104
0.014629564
0.0075052288
0.0062433225
-0.0056389373
-0.013601678
-0.012877625
0.00031483996
0.0021413733
0.015693595
0.010250251
0.0045596976
-0.0029256233
-0.02078964
-0.011531534
-0.014377004
-0.010147721
0.0034876104
0.013228645
0.015014062
0.016615782
0.0083246498
-0.01782029
0.020882396
-0.0035492731
-0.001411766
-0.004891303
-0.0061603858
-0.0067053398
-0.0070761523
0.0067207698
0.24641192
0.24550832
0.24222431
0.24102334
0.24605379
0.24224629
0.24650511
0.24816424
0.25565911
0.25147005
0.2487684
0.26437524
0.24814906
0.25588084
0.24811683
0.25413137
0.24973832
0.25624746
0.25328263
0.25142947
0.24945976
0.25165307
0.25313521
0.27462327
0.25252142
0.25550728
0.24953214
0.2541675
0.25668619
0.25365708
-0.22388656
-0.23546903
-0.22625107
-0.20232275
-0.1935678
-0.21289871
-0.22653857
-0.23809631
-0.23753401
-0.23502924
-0.22135046
-0.1864012
-0.21867272
-0.23613603
-0.21675142
-0.22315112
-0.24066702
-0.2460708
-0.24154168
-0.24183618
-0.23719295
-0.22734336
-0.20113104
-0.18799065
-0.22319096
-0.23975393
-0.23222108
-0.23802549
-0.23761886
-0.23390232
0.12480197
0.098559118
0.068292371
0.071239327
0.063426541
0.073791879
0.05010442
0.078259559
0.10944264
0.084379436
0.063350928
0.035563725
0.079444608
0.07904725
0.089056845
0.079474444
0.068607561
0.11724243
0.11070591
0.082297633
0.066873962
0.063186779
0.059227979
0.020334764
0.061101566
0.059479599
0.075315124
0.064101554
0.065938886
0.07990879
-0.022057964
-0.038240721
-0.053508294
-0.076940749
-0.056203616
-0.057530724
-0.066802333
-0.051780906
-0.027063013
-0.035263104
-0.080765385
-0.057284295
-0.06310582
-0.033013162
-0.072772579
-0.06490124
-0.059024517
-0.030251648
-0.026997319
-0.039630752
-0.046234578
-0.038273421
-0.058164961
-0.062569535
-0.062443301
-0.015491318
-0.041136048
-0.019102583
-0.021705949
-0.023197426
0.035760285
0.027132886
0.017147539
0.016021263
0.0033857747
0.0032939942
0.0087988029
0.015309933
0.035634943
0.027377934
0.026776916
0.027076634
0.012845232
-0.0093283829
0.028513872
0.029148128
0.0070985572
0.030620867
0.026988082
0.015266176
0.0079403112
-0.0069308438
0.015695
0.0098575043
0.005174538
0.0046092015
0.0076591117
0.0112668
0.010391325
0.014990386
0.24356212
0.2396725
0.24095166
0.24164149
0.24100071
0.25216583
0.25161825
0.24703328
0.2516956
0.25138529
0.24724763
0.24698038
0.24707103
0.25131034
0.24538139
0.26405959
0.25440513
0.25431794
0.25565201
0.25067778
0.2524726
0.25174192
0.25740645
0.25419452
0.25027567
0.25125973
0.25018441
0.24607696
0.24509511
0.24773317
-0.22495061
-0.23088569
-0.20858832
-0.20474635
-0.20837362
-0.1748536
-0.1906982
-0.23200194
-0.23770923
-0.23663878
-0.24358058
-0.21903993
-0.21183138
-0.21934262
-0.21915949
-0.19046236
-0.2133735
-0.24108257
-0.23874715
-0.22854723
-0.20410085
-0.1962998
-0.18542643
-0.20590917
-0.23036083
-0.24089596
-0.23885675
-0.22077597
-0.22484392
-0.23471897
0.094290347
0.066109128
0.066456872
0.063957185
0.074525899
0.032942097
0.03097763
0.046897593
0.080959119
0.10351392
0.065238283
0.062062976
0.070461903
0.064031486
0.07020624
0.036815589
0.049516712
0.062325201
0.08730585
0.059363138
0.041355977
0.053785502
0.049206067
0.044054361
0.054816203
0.085830627
0.077800491
0.083745887
0.077605785
0.084663279
-0.047761154
-0.064930841
-0.085782739
-0.068180136
-0.059118112
-0.059774237
-0.07573295
-0.071625697
-0.037625805
-0.034222395
-0.059456321
-0.077690526
-0.082726467
-0.051018638
-0.064585502
-0.06582276
-0.084299338
-0.04302123
-0.041145517
-0.078721366
-0.07386654
-0.064413509
-0.051729186
-0.058804491
-0.075204321
-0.028368592
-0.038041162
-0.073351141
-0.078148345
-0.037973187
0.013294442
0.0078102163
0.012243135
-0.0019699678
-0.013395254
-0.0028530651
0.0061935672
0.013224695
0.020977136
0.028311162
0.012039823
0.021928877
0.01936805
-0.0041171949
-0.0045888057
0.0080229186
0.013630932
0.015830491
0.022309505
0.0086023471
0.0057833551
-0.01402877
-0.017025176
-0.012313364
-0.0019533206
0.007708149
0.0037116042
0.029511239
0.031670347
0.017808593
0.24478359
0.24481172
0.25134441
0.25038211
0.25785073
0.25017896
0.25607885
0.24635164
0.25311217
0.24646647
0.24598476
0.26361144
0.25442386
0.26267256
0.26268308
0.25622007
0.25993141
0.2552928
0.25355007
0.25344555
0.26116615
0.24769578
0.26574899
0.25318584
0.25634017
0.25592382
0.25089749
0.26609702
0.26901396
0.25645161
-0.20941538
-0.19246973
-0.1614941
-0.15904979
-0.1529287
-0.15589104
-0.17528161
-0.21943836
-0.22986634
-0.22833491
-0.2175183
-0.1623056
-0.17309212
-0.16405692
-0.16490736
-0.18121037
-0.18393556
-0.20821445
-0.23823018
-0.20168566
-0.17333889
-0.18164452
-0.1796192
-0.2253932
-0.23408492
-0.23042515
-0.22782803
-0.18273687
-0.17174854
-0.19737743
0.059601807
0.030542264
0.031972968
0.050161179
0.041664541
0.053103896
0.023878359
0.03981246
0.059471831
0.057831349
0.029444296
0.017167254
0.048524192
0.042250196
0.04807392
0.073349369
0.037919709
0.067890727
0.041659361
0.049583176
0.028658578
0.058659296
0.040357656
0.058509608
0.071325996
0.07664982
0.056673751
0.045359278
0.050848792
0.06727478
-0.044588559
-0.052072511
-0.051097845
-0.032348269
-0.011560274
-0.036366391
-0.057176185
-0.069188998
-0.031127534
-0.035974946
-0.063038963
-0.054927804
-0.046482822
-0.020421902
-0.018125321
-0.050833706
-0.057059399
-0.081287062
-0.036276403
-0.077166755
-0.057168039
-0.05924234
-0.018263835
-0.035922636
-0.021376958
-0.0077658941
-0.043222946
-0.037411889
-0.050126737
-0.059327901
0.0034903954
0.0036111332
-0.0085385123
-0.013757607
-0.0067224608
-0.018453377
-0.0047034947
0.0088704659
0.011017399
0.011867985
0.0057838933
0.00016898463
-0.02313602
-0.011049288
-0.0076282667
-0.016440364
-0.00043002429
0.019333455
0.011615579
0.01594334
0.0021277689
-0.021546579
-0.010174262
-0.01131901
-0.0095846428
0.00082072097
-0.00053642039
0.0051422118
0.0019451693
0.011124705
)
;

boundaryField
{
    minX
    {
        type            fixedFluxPressure;
        gradient        uniform 0;
        value           nonuniform List<scalar> 
50
(
0.23335011
-0.18531268
0.055593242
-0.07014679
0.016220683
0.23358671
-0.2085575
0.059500305
-0.04473148
-0.01188011
0.23071122
-0.21148846
0.095005118
-0.031853084
0.017435899
0.22970335
-0.20939786
0.086684389
-0.035721549
0.012260719
0.23067525
-0.20858687
0.05433279
-0.035801497
-0.00073744763
0.2433399
-0.21227673
0.059806779
-0.040750688
0.0059903983
0.24110461
-0.21946711
0.087239637
-0.039385298
0.014629564
0.24641192
-0.22388656
0.12480197
-0.022057964
0.035760285
0.24356212
-0.22495061
0.094290347
-0.047761154
0.013294442
0.24478359
-0.20941538
0.059601807
-0.044588559
0.0034903954
)
;
    }
    maxX
    {
        type            fixedFluxPressure;
        gradient        uniform 0;
        value           nonuniform List<scalar> 
50
(
0.26520692
-0.23369312
0.063464733
-0.039326493
0.0060746317
0.26928647
-0.24038033
0.085254888
-0.036352438
0.018631729
0.26341833
-0.24344466
0.12377404
-0.027489555
0.029067839
0.26391792
-0.25038037
0.082130104
-0.039732179
0.012367614
0.26048291
-0.21452418
0.070938561
-0.058532744
-0.0080665374
0.2774602
-0.16979775
0.042112612
-0.032483798
-0.0042290061
0.23348476
-0.20709315
0.063236294
-0.083399104
0.0067207698
0.25365708
-0.23390232
0.07990879
-0.023197426
0.014990386
0.24773317
-0.23471897
0.084663279
-0.037973187
0.017808593
0.25645161
-0.19737743
0.06727478
-0.059327901
0.011124705
)
;
    }
    minY
    {
        type            fixedValue;
        value           uniform 0;
    }
    minZ
    {
        type            fixedFluxPressure;
        gradient        uniform 0;
        value           nonuniform List<scalar> 
150
(
0.23335011
-0.18531268
0.055593242
-0.07014679
0.016220683
0.23446174
-0.17527895
0.040609648
-0.065023827
-0.0029457201
0.23579204
-0.16490126
0.056375762
-0.048551097
-0.021343144
0.24057885
-0.15926178
0.042652415
-0.021506904
-0.010317743
0.2444529
-0.17391076
0.040153606
-0.011672218
-0.012835358
0.24004643
-0.19915556
0.062338244
-0.038926394
-0.020851261
0.24339455
-0.21103443
0.066582667
-0.02197902
-0.0066678994
0.24576296
-0.17114038
0.012836611
-0.029506585
-0.00054519565
0.23665382
-0.20911633
0.040316174
-0.042022135
0.0015105492
0.23757654
-0.21676764
0.052821686
-0.034113166
0.0016303315
0.23122037
-0.20907865
0.051583308
-0.048411104
-0.0030553499
0.23241448
-0.20140051
0.043818782
-0.046075973
-0.01343941
0.23850889
-0.17433751
0.050288536
-0.040756271
-0.012578737
0.23897933
-0.16200572
0.053386951
-0.043071715
-0.0091361119
0.24095205
-0.15565206
0.057348497
-0.037673182
-0.011499116
0.25211654
-0.14955371
0.04963258
-0.017063105
-0.0077360213
0.245828
-0.17125531
0.05765976
-0.037953466
-0.021994081
0.25570966
-0.154141
0.024842531
-0.064020894
0.0010199043
0.2567201
-0.18148654
0.024350648
-0.050653479
0.011307643
0.25195579
-0.22520655
0.040562131
-0.071258476
0.015972736
0.25398411
-0.23007577
0.069234201
-0.030861827
0.020549006
0.25003738
-0.22551049
0.067162047
-0.050528621
0.0093815254
0.25344076
-0.19902971
0.050144975
-0.045443304
0.005381653
0.25888115
-0.17172202
0.058863208
-0.048022176
0.010572322
0.25357637
-0.2109556
0.09073778
-0.030760445
-0.0075271092
0.26763931
-0.15688152
0.052870088
-0.01271156
-0.0032905763
0.26121099
-0.16111634
0.054561446
-0.033522223
-0.011343104
0.27004899
-0.17444936
0.03619122
-0.046018181
-0.0062962381
0.26210675
-0.2205201
0.030795867
-0.059445724
0.0056920269
0.26520692
-0.23369312
0.063464733
-0.039326493
0.0060746317
)
;
    }
    maxZ
    {
        type            fixedFluxPressure;
        gradient        uniform 0;
        value           nonuniform List<scalar> 
150
(
0.24478359
-0.20941538
0.059601807
-0.044588559
0.0034903954
0.24481172
-0.19246973
0.030542264
-0.052072511
0.0036111332
0.25134441
-0.1614941
0.031972968
-0.051097845
-0.0085385123
0.25038211
-0.15904979
0.050161179
-0.032348269
-0.013757607
0.25785073
-0.1529287
0.041664541
-0.011560274
-0.0067224608
0.25017896
-0.15589104
0.053103896
-0.036366391
-0.018453377
0.25607885
-0.17528161
0.023878359
-0.057176185
-0.0047034947
0.24635164
-0.21943836
0.03981246
-0.069188998
0.0088704659
0.25311217
-0.22986634
0.059471831
-0.031127534
0.011017399
0.24646647
-0.22833491
0.057831349
-0.035974946
0.011867985
0.24598476
-0.2175183
0.029444296
-0.063038963
0.0057838933
0.26361144
-0.1623056
0.017167254
-0.054927804
0.00016898463
0.25442386
-0.17309212
0.048524192
-0.046482822
-0.02313602
0.26267256
-0.16405692
0.042250196
-0.020421902
-0.011049288
0.26268308
-0.16490736
0.04807392
-0.018125321
-0.0076282667
0.25622007
-0.18121037
0.073349369
-0.050833706
-0.016440364
0.25993141
-0.18393556
0.037919709
-0.057059399
-0.00043002429
0.2552928
-0.20821445
0.067890727
-0.081287062
0.019333455
0.25355007
-0.23823018
0.041659361
-0.036276403
0.011615579
0.25344555
-0.20168566
0.049583176
-0.077166755
0.01594334
0.26116615
-0.17333889
0.028658578
-0.057168039
0.0021277689
0.24769578
-0.18164452
0.058659296
-0.05924234
-0.021546579
0.26574899
-0.1796192
0.040357656
-0.018263835
-0.010174262
0.25318584
-0.2253932
0.058509608
-0.035922636
-0.01131901
0.25634017
-0.23408492
0.071325996
-0.021376958
-0.0095846428
0.25592382
-0.23042515
0.07664982
-0.0077658941
0.00082072097
0.25089749
-0.22782803
0.056673751
-0.043222946
-0.00053642039
0.26609702
-0.18273687
0.045359278
-0.037411889
0.0051422118
0.26901396
-0.17174854
0.050848792
-0.050126737
0.0019451693
0.25645161
-0.19737743
0.06727478
-0.059327901
0.011124705
)
;
    }
    bottomWater_to_rightSolid
    {
        type            fixedFluxPressure;
        gradient        uniform 0;
        value           nonuniform List<scalar> 
130
(
0.0010199043
0.011307643
0.015972736
0.020549006
0.0093815254
0.005381653
0.010572322
-0.0075271092
-0.0032905763
-0.011343104
-0.0062962381
0.0056920269
0.0060746317
0.0018085749
0.0075001682
0.018708167
0.032813031
0.020836914
0.022500065
0.014184521
-0.0030966984
-0.0080138361
-0.0074731103
0.005779519
0.010945099
0.018631729
0.0010927561
-0.0015310835
0.019675117
0.034817219
0.012814795
0.016570654
0.0052531916
0.012887017
0.018822321
0.028327996
0.016213335
0.02582962
0.029067839
0.0048330929
-0.015700664
-0.0059153242
-0.0015022707
-0.0026407629
0.010461528
0.016509976
0.024667129
0.020348116
0.0016788512
0.015734695
0.024134129
0.012367614
0.0053106054
0.0071418897
0.00081199326
-0.0056537749
-0.0085642486
0.0010234667
0.0025034447
0.0110876
0.011140323
-0.0045573515
-0.012499867
-0.010385644
-0.0080665374
0.01808024
0.01448058
0.0077109998
-0.013065309
-0.013823776
-0.013833367
-0.0026522403
-0.0056010115
0.004860385
-0.012236624
-0.01410394
-0.0094268474
-0.0042290061
0.013228645
0.015014062
0.016615782
0.0083246498
-0.01782029
0.020882396
-0.0035492731
-0.001411766
-0.004891303
-0.0061603858
-0.0067053398
-0.0070761523
0.0067207698
0.030620867
0.026988082
0.015266176
0.0079403112
-0.0069308438
0.015695
0.0098575043
0.005174538
0.0046092015
0.0076591117
0.0112668
0.010391325
0.014990386
0.015830491
0.022309505
0.0086023471
0.0057833551
-0.01402877
-0.017025176
-0.012313364
-0.0019533206
0.007708149
0.0037116042
0.029511239
0.031670347
0.017808593
0.019333455
0.011615579
0.01594334
0.0021277689
-0.021546579
-0.010174262
-0.01131901
-0.0095846428
0.00082072097
-0.00053642039
0.0051422118
0.0019451693
0.011124705
)
;
    }
    bottomWater_to_leftSolid
    {
        type            fixedFluxPressure;
        gradient        uniform 0;
        value           nonuniform List<scalar> 
130
(
0.016220683
-0.0029457201
-0.021343144
-0.010317743
-0.012835358
-0.020851261
-0.0066678994
-0.00054519565
0.0015105492
0.0016303315
-0.0030553499
-0.01343941
-0.012578737
-0.01188011
-0.0026047305
-0.0021520633
-0.011927768
-0.020884988
-0.011712877
-0.0074354048
-0.0027124783
0.0048765861
0.014016127
0.0034545537
-0.0050652166
-0.002661682
0.017435899
0.012776407
0.018844725
0.0085922595
-0.0036206425
0.015877311
0.024377196
0.0062043941
0.012113256
0.025255942
0.020977162
0.015116148
0.020480907
0.012260719
0.0079109769
0.013745614
0.018272954
-0.0068615484
0.017593491
0.0066880059
0.012993635
0.012956081
0.0073423052
0.016281914
0.023010929
0.019845732
-0.00073744763
-0.0011993146
-0.015144281
-0.01149435
-0.01374877
-0.014469863
0.0025720404
-0.0021209506
0.012045535
-0.011869745
-0.0096072818
-0.0060010381
-0.0053386185
0.0059903983
0.0073503037
-0.0032547061
-0.013364557
-0.0040784916
-0.016188672
-0.002046086
0.0027734733
0.0076071106
0.0052905653
-0.013209556
-0.022124308
-0.0076112596
0.014629564
0.0075052288
0.0062433225
-0.0056389373
-0.013601678
-0.012877625
0.00031483996
0.0021413733
0.015693595
0.010250251
0.0045596976
-0.0029256233
-0.02078964
0.035760285
0.027132886
0.017147539
0.016021263
0.0033857747
0.0032939942
0.0087988029
0.015309933
0.035634943
0.027377934
0.026776916
0.027076634
0.012845232
0.013294442
0.0078102163
0.012243135
-0.0019699678
-0.013395254
-0.0028530651
0.0061935672
0.013224695
0.020977136
0.028311162
0.012039823
0.021928877
0.01936805
0.0034903954
0.0036111332
-0.0085385123
-0.013757607
-0.0067224608
-0.018453377
-0.0047034947
0.0088704659
0.011017399
0.011867985
0.0057838933
0.00016898463
-0.02313602
)
;
    }
    bottomWater_to_heater
    {
        type            fixedFluxPressure;
        gradient        uniform 0;
        value           nonuniform List<scalar> 
92
(
-0.0091361119
-0.011499116
-0.0077360213
-0.021994081
0.0044943563
-0.0033996542
-0.015637728
-0.0070879401
0.015143427
0.013298452
-0.0044169723
-0.010534586
0.24383924
0.24141376
0.23931948
0.2387966
-0.22345649
-0.22972526
-0.20637018
-0.19786603
0.091443991
0.068083868
0.058423869
0.062508735
-0.043219898
-0.060910991
-0.077279839
-0.077503306
0.023396498
0.023396498
0.01064561
0.01064561
0.0061060541
0.0061060541
0.016140724
0.016140724
0.24651538
0.26108857
-0.21856351
-0.22396062
0.067176489
0.066671899
-0.051236861
-0.045493348
-0.0053386185
0.0053106054
0.24754686
0.25800269
0.25299138
0.26810331
0.25103364
0.25277675
-0.21137004
-0.16947567
-0.17030927
-0.17493404
-0.22825437
-0.21916512
0.087590016
0.055947642
0.055132887
0.033910163
0.073929952
0.041248842
-0.027090491
-0.026788852
-0.039975673
-0.045506042
-0.033559136
-0.071716616
-0.0076112596
-0.011531534
-0.014377004
-0.010147721
0.01808024
0.0034876104
-0.011531534
-0.014377004
-0.010147721
0.0034876104
-0.0093283829
0.028513872
0.029148128
0.0070985572
-0.0041171949
-0.0045888057
0.0080229186
0.013630932
-0.011049288
-0.0076282667
-0.016440364
-0.00043002429
)
;
    }
}


// ************************************************************************* //
