/*--------------------------------*- C++ -*----------------------------------*\
| =========                 |                                                 |
| \\      /  F ield         | OpenFOAM: The Open Source CFD Toolbox           |
|  \\    /   O peration     | Version:  v2012                                 |
|   \\  /    A nd           | Website:  www.openfoam.com                      |
|    \\/     M anipulation  |                                                 |
\*---------------------------------------------------------------------------*/
FoamFile
{
    version     2.0;
    format      ascii;
    class       volScalarField;
    location    "430/leftSolid";
    object      T;
}
// * * * * * * * * * * * * * * * * * * * * * * * * * * * * * * * * * * * * * //

dimensions      [0 0 0 1 0 0 0];


internalField   nonuniform List<scalar> 
130
(
890.87421
890.8358
890.75953
890.66049
890.53438
890.37844
890.19042
889.97068
889.73925
889.51137
889.31031
889.15516
889.057
890.96818
890.92151
890.81472
890.67796
890.52424
890.34799
890.14661
889.91989
889.68428
889.45249
889.2416
889.0654
888.94911
891.09772
891.0357
890.90925
890.71788
890.51933
890.31263
890.09112
889.85192
889.59657
889.34686
889.11648
888.91796
888.76867
891.219
891.13768
890.98491
890.77502
890.52409
890.27886
890.02612
889.75856
889.47593
889.18715
888.92315
888.69785
888.526
891.2779
891.19317
891.03085
890.81833
890.56187
890.29401
890.01512
889.71912
889.40171
889.07206
888.77457
888.53332
888.37617
891.30788
891.22662
891.0793
890.86706
890.6256
890.36667
890.069
889.74555
889.39462
889.01818
888.68564
888.42997
888.28003
891.36613
891.30069
891.17014
890.97128
890.73774
890.478
890.17213
889.82742
889.45075
889.07261
888.75283
888.51816
888.39279
891.46283
891.41009
891.30046
891.12985
890.89901
890.6481
890.36961
890.06087
889.72742
889.38307
889.08097
888.86435
888.75271
891.56577
891.51542
891.41609
891.26735
891.06967
890.82676
890.53945
890.24738
889.94741
889.63673
889.36911
889.18874
889.08471
891.62337
891.57143
891.47543
891.33576
891.151
890.92047
890.64379
890.34109
890.04457
889.763
889.53277
889.3741
889.27943
)
;

boundaryField
{
    minX
    {
        type            zeroGradient;
    }
    minZ
    {
        type            zeroGradient;
    }
    maxZ
    {
        type            zeroGradient;
    }
    leftSolid_to_bottomWater
    {
        type            compressible::turbulentTemperatureCoupledBaffleMixed;
        refValue        nonuniform List<scalar> 
130
(
969.82898
968.72216
966.96541
967.69017
967.98041
968.35498
968.48559
966.90461
964.7725
961.66295
958.93506
957.63938
954.41242
972.95548
973.31204
968.78323
966.73721
966.77433
966.58823
966.46119
965.21637
964.00539
961.89055
959.86171
956.47631
951.39347
975.52451
974.92555
974.32085
966.39627
965.40662
965.20185
965.05688
964.94195
962.43058
961.22041
959.71636
957.17413
946.60103
979.08655
976.77643
974.0507
971.40674
963.2141
961.99489
960.89238
959.83799
958.78549
955.00287
952.39399
949.31724
936.07228
978.82022
976.95565
972.80248
971.45313
966.10434
962.6791
960.836
959.55233
957.33081
952.51273
948.95521
945.54272
939.16238
976.58783
973.25724
972.33079
967.89551
965.85508
966.45655
962.14203
959.92639
957.5079
948.59532
942.55933
938.07809
933.55138
974.84283
973.64824
972.80759
968.16133
966.68767
966.6773
962.38603
957.21298
948.87421
941.83962
938.65708
936.39152
935.61227
975.26962
974.9445
974.65048
973.71943
967.84854
967.70539
968.13205
966.74599
964.34959
959.24066
953.81195
950.68735
950.63363
977.25406
976.4123
975.84054
975.4252
975.07547
973.73977
968.5707
969.40387
969.99914
964.46314
959.76906
961.39965
959.95893
977.40147
976.0454
975.47109
975.21159
975.04018
974.79877
972.55457
968.57622
967.39861
964.28908
963.3931
965.48771
964.00876
)
;
        refGradient     uniform 0;
        valueFraction   nonuniform List<scalar> 
130
(
0.0075140686
0.0075140686
0.0075140686
0.0075140686
0.0075140686
0.0075140686
0.0075140686
0.0075140686
0.0075140686
0.0075140686
0.0075140686
0.0075140686
0.0075140686
0.0075140686
0.0075140686
0.0075140686
0.0075140686
0.0075140686
0.0075140686
0.0075140686
0.0075140686
0.0075140686
0.0075140686
0.0075140686
0.0075140686
0.0075140686
0.0075140686
0.0075140686
0.0075140686
0.0075140686
0.0075140686
0.0075140686
0.0075140686
0.0075140686
0.0075140686
0.0075140686
0.0075140686
0.0075140686
0.0075140686
0.0075140686
0.0075140686
0.0075140686
0.0075140686
0.0075140686
0.0075140686
0.0075140686
0.0075140686
0.0075140686
0.0075140686
0.0075140686
0.0075140686
0.0075140686
0.0075140686
0.0075140686
0.0075140686
0.0075140686
0.0075140686
0.0075140686
0.0075140686
0.0075140686
0.0075140686
0.0075140686
0.0075140686
0.0075140686
0.0075140686
0.0075140686
0.0075140686
0.0075140686
0.0075140686
0.0075140686
0.0075140686
0.0075140686
0.0075140686
0.0075140686
0.0075140686
0.0075140686
0.0075140686
0.0075140686
0.0075140686
0.0075140686
0.0075140686
0.0075140686
0.0075140686
0.0075140686
0.0075140686
0.0075140686
0.0075140686
0.0075140686
0.0075140686
0.0075140686
0.0075140686
0.0075140686
0.0075140686
0.0075140686
0.0075140686
0.0075140686
0.0075140686
0.0075140686
0.0075140686
0.0075140686
0.0075140686
0.0075140686
0.0075140686
0.0075140686
0.0075140686
0.0075140686
0.0075140686
0.0075140686
0.0075140686
0.0075140686
0.0075140686
0.0075140686
0.0075140686
0.0075140686
0.0075140686
0.0075140686
0.0075140686
0.0075140686
0.0075140686
0.0075140686
0.0075140686
0.0075140686
0.0075140686
0.0075140686
0.0075140686
0.0075140686
0.0075140686
0.0075140686
0.0075140686
0.0075140686
)
;
        value           nonuniform List<scalar> 
130
(
891.46372
891.4173
891.32845
891.23563
891.11267
890.9607
890.77504
890.54501
890.2993
890.04979
889.82977
889.66609
889.54444
891.58049
891.53686
891.39687
891.24579
891.09354
890.91721
890.71636
890.48193
890.23898
889.99308
889.76856
889.56828
889.41473
891.72842
891.66236
891.53231
891.28283
891.07837
890.8717
890.65077
890.41249
890.14019
889.88326
889.64332
889.42723
889.19967
891.8756
891.77751
891.60538
891.37717
891.06661
890.81412
890.55504
890.28159
889.99315
889.67812
889.39653
889.14983
888.8798
891.93201
891.83389
891.64155
891.42046
891.12576
890.83425
890.54368
890.24032
889.90862
889.54525
889.22329
888.95821
888.75432
891.94495
891.8393
891.68611
891.4421
891.18713
890.93473
890.607
890.26941
889.90301
889.46238
889.08699
888.79953
888.61672
891.98964
891.91574
891.77985
891.54756
891.30469
891.04687
890.71113
890.33021
889.89382
889.46559
889.12426
888.8743
888.74401
892.08881
892.03404
891.92303
891.74672
891.47348
891.22338
890.95022
890.63344
890.28453
889.90432
889.56369
889.32521
889.21401
892.2059
892.14959
892.0467
891.89596
891.69714
891.44602
891.12201
890.83837
890.54515
890.19519
889.89428
889.72749
889.61336
892.26421
892.20243
892.10282
891.96224
891.77757
891.54695
891.25547
890.92512
890.62194
890.31912
890.08388
889.94207
889.83694
)
;
        Tnbr            T;
        thicknessLayers List<scalar> 0();
        kappaLayers     List<scalar> 0();
        kappaMethod     solidThermo;
        kappa           none;
        alphaAni        none;
        alpha           none;
        field           T;
    }
    leftSolid_to_heater
    {
        type            compressible::turbulentTemperatureCoupledBaffleMixed;
        refValue        nonuniform List<scalar> 10(733.05249 723.63451 703.81265 671.56585 624.57315 624.32726 670.72756 702.63656 722.29449 731.61837);
        refGradient     uniform 0;
        valueFraction   nonuniform List<scalar> 10(2.08329e-05 2.08329e-05 2.08329e-05 2.08329e-05 2.08329e-05 2.08329e-05 2.08329e-05 2.08329e-05 2.08329e-05 2.08329e-05);
        value           nonuniform List<scalar> 10(889.05008 888.94205 888.76124 888.51798 888.36719 888.27102 888.38464 888.74513 889.0773 889.2721);
        Tnbr            T;
        thicknessLayers List<scalar> 1(0.001);
        kappaLayers     List<scalar> 1(0.0005);
        kappaMethod     solidThermo;
        kappa           none;
        alphaAni        none;
        alpha           none;
        field           T;
    }
    leftSolid_to_topAir
    {
        type            compressible::turbulentTemperatureCoupledBaffleMixed;
        refValue        nonuniform List<scalar> 
130
(
324.03761
346.2752
366.39779
384.97634
402.48858
419.22368
435.29737
450.59086
464.77997
477.83214
489.63411
499.97649
508.40543
324.03553
346.0369
365.69361
383.57731
400.13196
415.59002
430.01309
443.34287
455.38497
465.82934
474.23694
480.10362
482.81747
324.03787
346.08369
365.80111
383.7588
400.40848
415.99493
430.62758
444.34072
457.07332
468.6664
478.82961
487.09767
492.58971
324.04266
346.10695
365.86381
383.88887
400.65076
416.42801
431.3788
445.5983
459.13744
471.98301
484.02016
494.91942
503.75397
324.04417
346.11429
365.88152
383.92123
400.70281
416.50607
431.49241
445.756
459.33638
472.19321
484.13514
494.6502
502.54499
324.04527
346.11623
365.88437
383.9244
400.70599
416.50758
431.48541
445.72615
459.25264
471.97291
483.57312
493.3198
500.11517
324.04831
346.11775
365.87913
383.90743
400.67108
416.4464
431.38871
445.58693
459.06895
471.78965
483.55157
493.84965
501.58046
324.0524
346.11155
365.84144
383.81129
400.47099
416.06479
430.69974
444.40475
457.11391
468.64048
478.63636
486.51281
491.18508
324.05945
346.0824
365.75887
383.66034
400.22965
415.69838
430.12836
443.46171
455.50311
465.93445
474.29274
480.01453
482.36666
324.06774
346.33296
366.48084
385.08235
402.61518
419.36821
435.45673
450.75962
464.95649
478.01259
489.80959
500.12551
508.47502
)
;
        refGradient     uniform 0;
        valueFraction   nonuniform List<scalar> 
130
(
0.00032132529
0.00032132529
0.00032132529
0.00032132529
0.00032132529
0.00032132529
0.00032132529
0.00032132529
0.00032132529
0.00032132529
0.00032132529
0.00032132529
0.00032132529
0.00032132529
0.00032132529
0.00032132529
0.00032132529
0.00032132529
0.00032132529
0.00032132529
0.00032132529
0.00032132529
0.00032132529
0.00032132529
0.00032132529
0.00032132529
0.00032132529
0.00032132529
0.00032132529
0.00032132529
0.00032132529
0.00032132529
0.00032132529
0.00032132529
0.00032132529
0.00032132529
0.00032132529
0.00032132529
0.00032132529
0.00032132529
0.00032132529
0.00032132529
0.00032132529
0.00032132529
0.00032132529
0.00032132529
0.00032132529
0.00032132529
0.00032132529
0.00032132529
0.00032132529
0.00032132529
0.00032132529
0.00032132529
0.00032132529
0.00032132529
0.00032132529
0.00032132529
0.00032132529
0.00032132529
0.00032132529
0.00032132529
0.00032132529
0.00032132529
0.00032132529
0.00032132529
0.00032132529
0.00032132529
0.00032132529
0.00032132529
0.00032132529
0.00032132529
0.00032132529
0.00032132529
0.00032132529
0.00032132529
0.00032132529
0.00032132529
0.00032132529
0.00032132529
0.00032132529
0.00032132529
0.00032132529
0.00032132529
0.00032132529
0.00032132529
0.00032132529
0.00032132529
0.00032132529
0.00032132529
0.00032132529
0.00032132529
0.00032132529
0.00032132529
0.00032132529
0.00032132529
0.00032132529
0.00032132529
0.00032132529
0.00032132529
0.00032132529
0.00032132529
0.00032132529
0.00032132529
0.00032132529
0.00032132529
0.00032132529
0.00032132529
0.00032132529
0.00032132529
0.00032132529
0.00032132529
0.00032132529
0.00032132529
0.00032132529
0.00032132529
0.00032132529
0.00032132529
0.00032132529
0.00032132529
0.00032132529
0.00032132529
0.00032132529
0.00032132529
0.00032132529
0.00032132529
0.00032132529
0.00032132529
0.00032132529
0.00032132529
)
;
        value           nonuniform List<scalar> 
130
(
890.68828
890.65705
890.58732
890.49431
890.37389
890.22336
890.04053
889.82572
889.59892
889.37532
889.17815
889.02642
888.93102
890.78224
890.74266
890.64224
890.51131
890.36299
890.19176
889.99505
889.77263
889.54095
889.31262
889.10454
888.93032
888.81499
890.91179
890.85687
890.73679
890.55125
890.35815
890.15654
889.93981
889.70508
889.4539
889.20799
888.98097
888.78521
888.63779
891.03308
890.95886
890.81246
890.60839
890.36297
890.12296
889.87515
889.61226
889.33405
889.04949
888.78947
888.56778
888.39887
891.09191
891.0143
890.85834
890.65166
890.4007
890.13808
889.86417
889.57291
889.25998
888.93457
888.64105
888.40325
888.24871
891.12185
891.04773
890.90679
890.70038
890.4644
890.2107
889.91806
889.59936
889.25296
888.88068
888.55198
888.29949
888.1518
891.18007
891.12177
890.99761
890.80459
890.5765
890.32196
890.02107
889.6811
889.30899
888.93498
888.61905
888.38773
888.26488
891.27673
891.23111
891.12786
890.96309
890.73766
890.49184
890.21818
889.914
889.58478
889.24419
888.94538
888.73135
888.62126
891.37965
891.33638
891.2434
891.10046
890.90816
890.67031
890.38771
890.09999
889.80401
889.49676
889.23189
889.05339
888.95009
891.43727
891.39246
891.30295
891.1693
890.99022
890.76513
890.49369
890.19598
889.90408
889.6268
889.40042
889.24504
889.15302
)
;
        Tnbr            T;
        thicknessLayers List<scalar> 0();
        kappaLayers     List<scalar> 0();
        kappaMethod     solidThermo;
        kappa           none;
        alphaAni        none;
        alpha           none;
        field           T;
    }
}


// ************************************************************************* //
