/*--------------------------------*- C++ -*----------------------------------*\
| =========                 |                                                 |
| \\      /  F ield         | OpenFOAM: The Open Source CFD Toolbox           |
|  \\    /   O peration     | Version:  v2012                                 |
|   \\  /    A nd           | Website:  www.openfoam.com                      |
|    \\/     M anipulation  |                                                 |
\*---------------------------------------------------------------------------*/
FoamFile
{
    version     2.0;
    format      ascii;
    class       volScalarField;
    location    "240/leftSolid";
    object      T;
}
// * * * * * * * * * * * * * * * * * * * * * * * * * * * * * * * * * * * * * //

dimensions      [0 0 0 1 0 0 0];


internalField   nonuniform List<scalar> 
130
(
793.84762
793.8277
793.773
793.67566
793.5324
793.34733
793.11711
792.8466
792.54387
792.24376
791.97085
791.74811
791.62599
793.92819
793.90506
793.84894
793.74907
793.60102
793.41051
793.1692
792.88265
792.54807
792.22912
791.95047
791.72486
791.60166
794.03488
794.00392
793.93916
793.82546
793.65601
793.44533
793.18346
792.87311
792.51564
792.17223
791.86883
791.62206
791.4859
794.13289
794.08265
794.00659
793.8637
793.65966
793.41417
793.12141
792.77841
792.38546
791.99711
791.66898
791.4133
791.25754
794.15434
794.09376
793.98841
793.82989
793.60584
793.33303
793.00663
792.62352
792.18649
791.75923
791.406
791.13758
790.97204
794.07732
794.01513
793.89262
793.71876
793.49076
793.20306
792.84257
792.41496
791.99026
791.60484
791.28892
791.06105
790.92389
793.96082
793.89227
793.76877
793.60097
793.38917
793.11476
792.76374
792.38355
792.02397
791.6988
791.4104
791.19592
791.0848
793.8173
793.75673
793.65462
793.50626
793.31206
793.06656
792.77034
792.46156
792.16333
791.89314
791.64161
791.43718
791.32726
793.68146
793.62431
793.5264
793.39496
793.23666
793.04652
792.81532
792.55508
792.28869
792.05083
791.81868
791.63321
791.5279
793.59301
793.54059
793.45849
793.35338
793.22275
793.05617
792.84425
792.59923
792.3563
792.12678
791.91626
791.75016
791.65269
)
;

boundaryField
{
    minX
    {
        type            zeroGradient;
    }
    minZ
    {
        type            zeroGradient;
    }
    maxZ
    {
        type            zeroGradient;
    }
    leftSolid_to_bottomWater
    {
        type            compressible::turbulentTemperatureCoupledBaffleMixed;
        refValue        nonuniform List<scalar> 
130
(
984.32498
985.18749
985.43908
985.36287
984.6121
984.43782
983.52718
982.56576
980.2058
977.28799
973.18977
966.78134
964.87449
986.68554
987.13215
987.89809
988.29911
987.88369
988.57588
987.69659
987.43404
980.23503
977.00138
975.27775
970.10906
968.67871
988.48926
988.47321
989.34372
990.11205
988.69501
989.42473
988.94844
988.54198
982.54438
979.92357
977.40139
970.59865
968.18394
992.8435
989.21963
993.04269
991.35073
988.09803
987.50337
987.22886
987.04892
981.86086
974.6992
971.93745
967.67272
960.65356
994.54847
991.71819
991.14979
991.79501
988.4479
987.20969
986.56283
986.01544
977.28
965.79832
960.43805
955.0269
947.01948
992.07454
991.51163
988.94847
987.09204
985.40357
983.98561
980.00499
969.51965
963.64189
959.3049
957.13939
957.12131
952.55022
992.53364
989.89315
986.68123
984.40108
984.1828
983.01208
975.17336
969.79642
968.66263
968.31356
963.51472
959.64741
959.79092
989.82949
987.24142
987.12878
985.95294
984.31337
981.57775
976.44421
974.81244
974.3124
976.06129
973.11253
966.72691
963.43354
987.81951
985.07265
982.29523
980.35399
980.49308
981.42454
980.75992
978.97009
975.68833
979.12387
974.50862
970.17429
966.25231
985.84756
982.42402
981.19959
981.69337
982.90255
983.37449
981.22256
977.22864
976.92944
976.76309
974.6425
972.18926
968.8493
)
;
        refGradient     uniform 0;
        valueFraction   nonuniform List<scalar> 
130
(
0.0075140686
0.0075140686
0.0075140686
0.0075140686
0.0075140686
0.0075140686
0.0075140686
0.0075140686
0.0075140686
0.0075140686
0.0075140686
0.0075140686
0.0075140686
0.0075140686
0.0075140686
0.0075140686
0.0075140686
0.0075140686
0.0075140686
0.0075140686
0.0075140686
0.0075140686
0.0075140686
0.0075140686
0.0075140686
0.0075140686
0.0075140686
0.0075140686
0.0075140686
0.0075140686
0.0075140686
0.0075140686
0.0075140686
0.0075140686
0.0075140686
0.0075140686
0.0075140686
0.0075140686
0.0075140686
0.0075140686
0.0075140686
0.0075140686
0.0075140686
0.0075140686
0.0075140686
0.0075140686
0.0075140686
0.0075140686
0.0075140686
0.0075140686
0.0075140686
0.0075140686
0.0075140686
0.0075140686
0.0075140686
0.0075140686
0.0075140686
0.0075140686
0.0075140686
0.0075140686
0.0075140686
0.0075140686
0.0075140686
0.0075140686
0.0075140686
0.0075140686
0.0075140686
0.0075140686
0.0075140686
0.0075140686
0.0075140686
0.0075140686
0.0075140686
0.0075140686
0.0075140686
0.0075140686
0.0075140686
0.0075140686
0.0075140686
0.0075140686
0.0075140686
0.0075140686
0.0075140686
0.0075140686
0.0075140686
0.0075140686
0.0075140686
0.0075140686
0.0075140686
0.0075140686
0.0075140686
0.0075140686
0.0075140686
0.0075140686
0.0075140686
0.0075140686
0.0075140686
0.0075140686
0.0075140686
0.0075140686
0.0075140686
0.0075140686
0.0075140686
0.0075140686
0.0075140686
0.0075140686
0.0075140686
0.0075140686
0.0075140686
0.0075140686
0.0075140686
0.0075140686
0.0075140686
0.0075140686
0.0075140686
0.0075140686
0.0075140686
0.0075140686
0.0075140686
0.0075140686
0.0075140686
0.0075140686
0.0075140686
0.0075140686
0.0075140686
0.0075140686
0.0075140686
0.0075140686
0.0075140686
0.0075140686
)
;
        value           nonuniform List<scalar> 
130
(
795.26544
795.25214
795.19972
795.10253
794.95468
794.76969
794.53436
794.25867
793.94044
793.6207
793.31917
793.05003
792.91449
795.36317
795.34356
795.2936
795.19748
795.0474
794.86353
794.61743
794.33106
793.94489
793.60407
793.31462
793.05193
792.91892
795.48266
795.4518
795.39407
795.28698
795.10813
794.90452
794.64103
794.32995
793.93009
793.56958
793.24953
792.95354
792.80028
795.61268
795.5356
795.48885
795.3343
795.10734
794.85922
794.56659
794.22478
793.79576
793.35657
793.01022
792.7245
792.51728
795.6468
795.56542
795.45659
795.30409
795.05659
794.77655
794.44775
794.06338
793.56393
793.05369
792.66289
792.35588
792.13148
795.55177
795.4858
795.34497
795.1585
794.91956
794.62341
794.23578
793.73251
793.26677
792.85164
792.52182
792.29556
792.12512
795.43956
795.35167
795.205
795.02139
794.80963
794.52857
794.12132
793.70348
793.33802
793.01263
792.69035
792.44846
792.33927
795.27683
795.19727
795.09512
794.93908
794.73406
794.4699
794.13735
793.8186
793.51881
793.26374
792.99196
792.74117
792.60747
795.12689
795.04955
794.93157
794.78654
794.63047
794.4488
794.2144
793.94269
793.65361
793.44329
793.1782
792.96161
792.82774
795.02427
794.94655
794.85591
794.75531
794.63476
794.47303
794.24661
793.97346
793.73006
793.50097
793.27609
793.09283
792.97106
)
;
        Tnbr            T;
        thicknessLayers List<scalar> 0();
        kappaLayers     List<scalar> 0();
        kappaMethod     solidThermo;
        kappa           none;
        alphaAni        none;
        alpha           none;
        field           T;
    }
    leftSolid_to_heater
    {
        type            compressible::turbulentTemperatureCoupledBaffleMixed;
        refValue        nonuniform List<scalar> 10(692.64024 684.51567 667.29153 639.06795 597.68577 597.73361 639.23561 667.41794 684.62018 692.72229);
        refGradient     uniform 0;
        valueFraction   nonuniform List<scalar> 10(2.08329e-05 2.08329e-05 2.08329e-05 2.08329e-05 2.08329e-05 2.08329e-05 2.08329e-05 2.08329e-05 2.08329e-05 2.08329e-05);
        value           nonuniform List<scalar> 10(791.61052 791.58601 791.46987 791.24115 790.9548 790.90652 791.06834 791.31157 791.51253 791.63744);
        Tnbr            T;
        thicknessLayers List<scalar> 1(0.001);
        kappaLayers     List<scalar> 1(0.0005);
        kappaMethod     solidThermo;
        kappa           none;
        alphaAni        none;
        alpha           none;
        field           T;
    }
    leftSolid_to_topAir
    {
        type            compressible::turbulentTemperatureCoupledBaffleMixed;
        refValue        nonuniform List<scalar> 
130
(
320.14764
338.8479
355.77818
371.38604
386.05534
400.03377
413.45248
426.31207
438.26125
449.28142
459.30284
468.1892
475.64455
320.14647
338.64612
355.18543
370.21367
384.0873
397.00321
409.03822
420.1739
430.2934
439.1768
446.53975
452.03861
455.28089
320.14909
338.68889
355.28188
370.3769
384.33779
397.37213
409.58135
421.0084
431.64132
441.40266
450.12809
457.5796
463.32031
320.15315
338.70836
355.33442
370.4841
384.53416
397.71686
410.17324
421.99795
433.25567
443.98751
454.21577
463.91091
472.80243
320.15357
338.71304
355.34712
370.50896
384.57632
397.78357
410.27474
422.14817
433.47611
444.30881
454.66016
464.48652
473.42336
320.15045
338.70686
355.33718
370.4945
384.55675
397.75752
410.23964
422.10042
433.41417
444.23198
454.56904
464.37914
473.3002
320.14621
338.69417
355.31139
370.45125
384.49079
397.66093
410.10108
421.90607
433.1418
443.84994
454.05057
463.71324
472.56106
320.14036
338.67096
355.25397
370.33807
384.28713
397.30791
409.50137
420.91182
431.52869
441.27477
449.98459
457.41976
463.14035
320.1366
338.62595
355.15427
370.171
384.03318
396.93791
408.96208
420.08752
430.19957
439.07927
446.44219
451.94659
455.20042
320.13746
338.82712
355.74665
371.3442
386.00419
399.97443
413.38593
426.23938
438.18296
449.19956
459.21908
468.10523
475.56158
)
;
        refGradient     uniform 0;
        valueFraction   nonuniform List<scalar> 
130
(
0.00032132529
0.00032132529
0.00032132529
0.00032132529
0.00032132529
0.00032132529
0.00032132529
0.00032132529
0.00032132529
0.00032132529
0.00032132529
0.00032132529
0.00032132529
0.00032132529
0.00032132529
0.00032132529
0.00032132529
0.00032132529
0.00032132529
0.00032132529
0.00032132529
0.00032132529
0.00032132529
0.00032132529
0.00032132529
0.00032132529
0.00032132529
0.00032132529
0.00032132529
0.00032132529
0.00032132529
0.00032132529
0.00032132529
0.00032132529
0.00032132529
0.00032132529
0.00032132529
0.00032132529
0.00032132529
0.00032132529
0.00032132529
0.00032132529
0.00032132529
0.00032132529
0.00032132529
0.00032132529
0.00032132529
0.00032132529
0.00032132529
0.00032132529
0.00032132529
0.00032132529
0.00032132529
0.00032132529
0.00032132529
0.00032132529
0.00032132529
0.00032132529
0.00032132529
0.00032132529
0.00032132529
0.00032132529
0.00032132529
0.00032132529
0.00032132529
0.00032132529
0.00032132529
0.00032132529
0.00032132529
0.00032132529
0.00032132529
0.00032132529
0.00032132529
0.00032132529
0.00032132529
0.00032132529
0.00032132529
0.00032132529
0.00032132529
0.00032132529
0.00032132529
0.00032132529
0.00032132529
0.00032132529
0.00032132529
0.00032132529
0.00032132529
0.00032132529
0.00032132529
0.00032132529
0.00032132529
0.00032132529
0.00032132529
0.00032132529
0.00032132529
0.00032132529
0.00032132529
0.00032132529
0.00032132529
0.00032132529
0.00032132529
0.00032132529
0.00032132529
0.00032132529
0.00032132529
0.00032132529
0.00032132529
0.00032132529
0.00032132529
0.00032132529
0.00032132529
0.00032132529
0.00032132529
0.00032132529
0.00032132529
0.00032132529
0.00032132529
0.00032132529
0.00032132529
0.00032132529
0.00032132529
0.00032132529
0.00032132529
0.00032132529
0.00032132529
0.00032132529
0.00032132529
0.00032132529
0.00032132529
0.00032132529
)
;
        value           nonuniform List<scalar> 
130
(
793.68187
793.66796
793.6187
793.52639
793.38787
793.20734
792.98152
792.71523
792.4164
792.11997
791.85048
791.63076
791.51106
793.76245
793.74526
793.69445
793.59943
793.45586
793.26957
793.03221
792.74933
792.4181
792.10214
791.826
791.60229
791.48018
793.86914
793.84415
793.78473
793.6759
793.51098
793.30456
793.04668
792.74009
792.38614
792.04599
791.74552
791.50126
791.36702
793.96716
793.92291
793.85222
793.71423
793.51476
793.27358
792.98491
792.64578
792.25654
791.87181
791.54714
791.29475
791.142
793.98862
793.93403
793.83406
793.68044
793.46101
793.19255
792.87028
792.49108
792.05777
791.63421
791.28447
791.01935
790.85679
793.91163
793.8554
793.73829
793.56939
793.34602
793.0627
792.70639
792.28265
791.86166
791.47981
791.16732
790.9427
790.80849
793.79513
793.73254
793.61446
793.45164
793.24451
792.97451
792.62763
792.25125
791.89533
791.57366
791.28865
791.07738
790.96916
793.65168
793.59709
793.50038
793.35695
793.16734
792.92615
792.63396
792.32892
792.03415
791.76713
791.5185
791.3166
791.2087
793.51587
793.4647
793.37219
793.24563
793.09183
792.90594
792.67873
792.42218
792.15909
791.92409
791.69438
791.5108
791.40669
793.42742
793.38106
793.30447
793.20441
793.07855
792.91656
792.7091
792.46833
792.22927
792.00331
791.79607
791.63291
791.53793
)
;
        Tnbr            T;
        thicknessLayers List<scalar> 0();
        kappaLayers     List<scalar> 0();
        kappaMethod     solidThermo;
        kappa           none;
        alphaAni        none;
        alpha           none;
        field           T;
    }
}


// ************************************************************************* //
