/*--------------------------------*- C++ -*----------------------------------*\
| =========                 |                                                 |
| \\      /  F ield         | OpenFOAM: The Open Source CFD Toolbox           |
|  \\    /   O peration     | Version:  v2012                                 |
|   \\  /    A nd           | Website:  www.openfoam.com                      |
|    \\/     M anipulation  |                                                 |
\*---------------------------------------------------------------------------*/
FoamFile
{
    version     2.0;
    format      ascii;
    class       volScalarField;
    location    "570/topAir";
    object      p_rgh;
}
// * * * * * * * * * * * * * * * * * * * * * * * * * * * * * * * * * * * * * //

dimensions      [1 -1 -2 0 0 0 0];


internalField   nonuniform List<scalar> 
1200
(
100000.09
100000.07
100000.07
100000.06
100000.05
100000.04
100000.04
100000.03
100000.03
100000.02
100000.02
100000.02
100000.01
100000.01
100000.01
100000.01
100000
100000
100000
100000
100000
100000
100000
100000
100000
100000
99999.998
99999.997
99999.995
99999.995
100000.1
100000.1
100000.1
100000.1
100000.09
100000.09
100000.09
100000.09
100000.08
100000.08
100000.07
100000.07
100000.06
100000.05
100000.04
100000.03
100000.02
100000.02
100000.02
100000.01
100000.01
100000.01
100000.01
100000.01
100000.01
100000.01
100000.01
100000
100000
99999.997
100000.1
100000.1
100000.1
100000.1
100000.1
100000.1
100000.1
100000.1
100000.1
100000.1
100000.1
100000.09
100000.09
100000.08
100000.07
100000.05
100000.04
100000.03
100000.02
100000.02
100000.01
100000.01
100000.01
100000.01
100000.01
100000.01
100000
100000
100000
99999.998
100000.1
100000.1
100000.1
100000.1
100000.1
100000.1
100000.1
100000.1
100000.1
100000.1
100000.1
100000.1
100000.1
100000.09
100000.08
100000.07
100000.06
100000.05
100000.04
100000.03
100000.03
100000.02
100000.02
100000.02
100000.01
100000.01
100000.01
100000.01
100000.01
100000
100000.09
100000.07
100000.07
100000.06
100000.05
100000.05
100000.04
100000.04
100000.03
100000.03
100000.02
100000.02
100000.02
100000.02
100000.02
100000.02
100000.02
100000.02
100000.02
100000.02
100000.02
100000.02
100000.02
100000.02
100000.01
100000.01
100000.01
100000.01
100000
99999.999
100000.1
100000.1
100000.1
100000.1
100000.09
100000.09
100000.09
100000.09
100000.09
100000.08
100000.08
100000.08
100000.08
100000.08
100000.08
100000.07
100000.07
100000.07
100000.06
100000.06
100000.06
100000.05
100000.05
100000.05
100000.04
100000.04
100000.03
100000.03
100000.02
100000.01
100000.1
100000.1
100000.1
100000.1
100000.1
100000.1
100000.1
100000.1
100000.1
100000.1
100000.1
100000.1
100000.1
100000.09
100000.09
100000.09
100000.08
100000.07
100000.06
100000.05
100000.05
100000.04
100000.04
100000.03
100000.03
100000.03
100000.02
100000.02
100000.01
100000.01
100000.1
100000.1
100000.1
100000.1
100000.1
100000.1
100000.1
100000.1
100000.1
100000.1
100000.1
100000.1
100000.1
100000.1
100000.09
100000.08
100000.07
100000.06
100000.04
100000.03
100000.03
100000.02
100000.02
100000.01
100000.01
100000.01
100000.01
100000.01
100000.01
100000
100000.09
100000.07
100000.07
100000.06
100000.05
100000.05
100000.04
100000.04
100000.03
100000.03
100000.02
100000.02
100000.02
100000.02
100000.02
100000.02
100000.02
100000.02
100000.02
100000.02
100000.02
100000.02
100000.02
100000.02
100000.02
100000.02
100000.01
100000.01
100000.01
100000
100000.1
100000.1
100000.1
100000.1
100000.09
100000.09
100000.09
100000.09
100000.09
100000.08
100000.08
100000.08
100000.08
100000.08
100000.08
100000.07
100000.07
100000.07
100000.07
100000.06
100000.06
100000.06
100000.05
100000.05
100000.04
100000.04
100000.03
100000.03
100000.02
100000.01
100000.1
100000.1
100000.1
100000.1
100000.1
100000.1
100000.1
100000.1
100000.1
100000.1
100000.1
100000.1
100000.1
100000.1
100000.09
100000.09
100000.08
100000.07
100000.07
100000.07
100000.06
100000.06
100000.05
100000.04
100000.04
100000.03
100000.02
100000.02
100000.01
100000
100000.1
100000.1
100000.1
100000.1
100000.1
100000.1
100000.1
100000.1
100000.1
100000.1
100000.1
100000.1
100000.1
100000.1
100000.09
100000.07
100000.06
100000.06
100000.05
100000.04
100000.03
100000.03
100000.02
100000.02
100000.02
100000.02
100000.01
100000.01
100000.01
100000.01
100000.09
100000.07
100000.07
100000.06
100000.05
100000.05
100000.04
100000.04
100000.03
100000.03
100000.02
100000.02
100000.02
100000.02
100000.01
100000.01
100000.01
100000.01
100000.01
100000.01
100000.01
100000
100000
100000
100000
100000
99999.999
99999.997
99999.994
99999.993
100000.1
100000.1
100000.1
100000.1
100000.09
100000.09
100000.09
100000.09
100000.09
100000.08
100000.08
100000.08
100000.08
100000.08
100000.07
100000.07
100000.07
100000.07
100000.06
100000.06
100000.06
100000.06
100000.05
100000.05
100000.04
100000.04
100000.03
100000.02
100000.02
100000
100000.1
100000.1
100000.1
100000.1
100000.1
100000.1
100000.1
100000.1
100000.1
100000.1
100000.1
100000.1
100000.1
100000.09
100000.09
100000.08
100000.08
100000.07
100000.07
100000.07
100000.06
100000.06
100000.05
100000.04
100000.03
100000.02
100000.02
100000.01
100000.01
100000
100000.1
100000.1
100000.1
100000.1
100000.1
100000.1
100000.1
100000.1
100000.1
100000.1
100000.1
100000.1
100000.1
100000.09
100000.07
100000.04
100000.04
100000.04
100000.04
100000.04
100000.04
100000.03
100000.03
100000.02
100000.02
100000.02
100000.01
100000.01
100000
100000
100000.09
100000.07
100000.07
100000.06
100000.05
100000.05
100000.04
100000.04
100000.03
100000.03
100000.02
100000.02
100000.02
100000.02
100000.01
100000.01
100000.01
100000.01
100000.01
100000
100000
99999.998
99999.996
99999.993
99999.991
99999.989
99999.988
99999.987
99999.989
99999.991
100000.1
100000.1
100000.1
100000.1
100000.09
100000.09
100000.09
100000.09
100000.09
100000.08
100000.08
100000.08
100000.08
100000.08
100000.07
100000.07
100000.07
100000.06
100000.06
100000.05
100000.05
100000.05
100000.04
100000.03
100000.02
100000.02
100000.01
100000
99999.998
99999.994
100000.1
100000.1
100000.1
100000.1
100000.1
100000.1
100000.1
100000.1
100000.1
100000.1
100000.1
100000.1
100000.1
100000.09
100000.08
100000.08
100000.08
100000.08
100000.07
100000.07
100000.07
100000.06
100000.05
100000.04
100000.03
100000.03
100000.02
100000.01
100000.01
99999.997
100000.1
100000.1
100000.1
100000.1
100000.1
100000.1
100000.1
100000.1
100000.1
100000.1
100000.1
100000.1
100000.1
100000.07
100000.04
100000.04
100000.03
100000.03
100000.03
100000.03
100000.03
100000.03
100000.02
100000.02
100000.02
100000.02
100000.02
100000.01
100000.01
100000
100000.09
100000.07
100000.07
100000.06
100000.05
100000.05
100000.04
100000.04
100000.03
100000.03
100000.02
100000.02
100000.02
100000.02
100000.01
100000.01
100000.01
100000.01
100000
100000
100000
99999.997
99999.994
99999.991
99999.989
99999.987
99999.986
99999.986
99999.988
99999.991
100000.1
100000.1
100000.1
100000.1
100000.09
100000.09
100000.09
100000.09
100000.09
100000.08
100000.08
100000.08
100000.08
100000.08
100000.07
100000.07
100000.07
100000.06
100000.06
100000.05
100000.04
100000.04
100000.03
100000.02
100000.01
100000.01
100000
99999.996
99999.994
99999.992
100000.1
100000.1
100000.1
100000.1
100000.1
100000.1
100000.1
100000.1
100000.1
100000.1
100000.1
100000.1
100000.1
100000.09
100000.08
100000.08
100000.08
100000.08
100000.07
100000.07
100000.07
100000.06
100000.05
100000.04
100000.03
100000.02
100000.01
100000.01
100000
99999.994
100000.1
100000.1
100000.1
100000.1
100000.1
100000.1
100000.1
100000.1
100000.1
100000.1
100000.1
100000.1
100000.1
100000.06
100000.04
100000.04
100000.03
100000.03
100000.03
100000.03
100000.03
100000.02
100000.02
100000.02
100000.02
100000.02
100000.02
100000.01
100000.01
99999.999
100000.09
100000.07
100000.07
100000.06
100000.05
100000.05
100000.04
100000.04
100000.03
100000.03
100000.02
100000.02
100000.02
100000.02
100000.01
100000.01
100000.01
100000.01
100000.01
100000.01
100000
100000
100000
100000
100000
99999.999
99999.998
99999.996
99999.994
99999.993
100000.1
100000.1
100000.1
100000.1
100000.09
100000.09
100000.09
100000.09
100000.09
100000.08
100000.08
100000.08
100000.08
100000.08
100000.07
100000.07
100000.07
100000.06
100000.06
100000.06
100000.06
100000.05
100000.05
100000.05
100000.04
100000.04
100000.03
100000.02
100000.02
100000
100000.1
100000.1
100000.1
100000.1
100000.1
100000.1
100000.1
100000.1
100000.1
100000.1
100000.1
100000.1
100000.1
100000.09
100000.09
100000.08
100000.08
100000.07
100000.07
100000.07
100000.06
100000.06
100000.05
100000.04
100000.03
100000.02
100000.02
100000.01
100000.01
99999.999
100000.1
100000.1
100000.1
100000.1
100000.1
100000.1
100000.1
100000.1
100000.1
100000.1
100000.1
100000.1
100000.1
100000.09
100000.06
100000.04
100000.04
100000.04
100000.04
100000.04
100000.03
100000.03
100000.03
100000.02
100000.02
100000.02
100000.01
100000.01
100000
99999.998
100000.09
100000.07
100000.07
100000.06
100000.05
100000.05
100000.04
100000.04
100000.03
100000.03
100000.02
100000.02
100000.02
100000.02
100000.02
100000.02
100000.02
100000.02
100000.02
100000.02
100000.02
100000.02
100000.02
100000.02
100000.02
100000.02
100000.01
100000.01
100000.01
100000
100000.1
100000.1
100000.1
100000.1
100000.09
100000.09
100000.09
100000.09
100000.09
100000.08
100000.08
100000.08
100000.08
100000.08
100000.08
100000.07
100000.07
100000.07
100000.07
100000.06
100000.06
100000.06
100000.05
100000.05
100000.04
100000.04
100000.03
100000.03
100000.02
100000.01
100000.1
100000.1
100000.1
100000.1
100000.1
100000.1
100000.1
100000.1
100000.1
100000.1
100000.1
100000.1
100000.1
100000.1
100000.09
100000.08
100000.08
100000.07
100000.07
100000.07
100000.06
100000.06
100000.05
100000.04
100000.04
100000.03
100000.02
100000.02
100000.01
100000
100000.1
100000.1
100000.1
100000.1
100000.1
100000.1
100000.1
100000.1
100000.1
100000.1
100000.1
100000.1
100000.1
100000.1
100000.08
100000.07
100000.06
100000.06
100000.05
100000.04
100000.03
100000.03
100000.02
100000.02
100000.02
100000.02
100000.02
100000.02
100000.01
100000
100000.09
100000.07
100000.07
100000.06
100000.05
100000.05
100000.04
100000.04
100000.03
100000.03
100000.02
100000.02
100000.02
100000.02
100000.02
100000.02
100000.02
100000.02
100000.02
100000.02
100000.02
100000.02
100000.02
100000.02
100000.01
100000.01
100000.01
100000.01
100000
99999.999
100000.1
100000.1
100000.1
100000.1
100000.09
100000.09
100000.09
100000.09
100000.09
100000.08
100000.08
100000.08
100000.08
100000.08
100000.08
100000.07
100000.07
100000.07
100000.06
100000.06
100000.06
100000.05
100000.05
100000.05
100000.04
100000.04
100000.03
100000.03
100000.02
100000.01
100000.1
100000.1
100000.1
100000.1
100000.1
100000.1
100000.1
100000.1
100000.1
100000.1
100000.1
100000.1
100000.1
100000.09
100000.09
100000.09
100000.08
100000.07
100000.06
100000.05
100000.05
100000.04
100000.04
100000.03
100000.03
100000.03
100000.02
100000.02
100000.01
100000.01
100000.1
100000.1
100000.1
100000.1
100000.1
100000.1
100000.1
100000.1
100000.1
100000.1
100000.1
100000.1
100000.1
100000.1
100000.09
100000.08
100000.07
100000.06
100000.04
100000.03
100000.03
100000.02
100000.02
100000.01
100000.01
100000.01
100000.01
100000.01
100000.01
100000
100000.09
100000.07
100000.07
100000.06
100000.05
100000.04
100000.04
100000.03
100000.03
100000.02
100000.02
100000.02
100000.01
100000.01
100000.01
100000.01
100000
100000
100000
100000
100000
100000
100000
100000
100000
100000
99999.999
99999.997
99999.995
99999.995
100000.1
100000.1
100000.1
100000.1
100000.09
100000.09
100000.09
100000.09
100000.08
100000.08
100000.07
100000.07
100000.06
100000.05
100000.04
100000.03
100000.02
100000.02
100000.02
100000.01
100000.01
100000.01
100000.01
100000.01
100000.01
100000.01
100000.01
100000
100000
99999.997
100000.1
100000.1
100000.1
100000.1
100000.1
100000.1
100000.1
100000.1
100000.1
100000.1
100000.1
100000.09
100000.09
100000.08
100000.07
100000.05
100000.04
100000.03
100000.02
100000.02
100000.01
100000.01
100000.01
100000.01
100000.01
100000.01
100000.01
100000
100000
99999.999
100000.1
100000.1
100000.1
100000.1
100000.1
100000.1
100000.1
100000.1
100000.1
100000.1
100000.1
100000.1
100000.1
100000.1
100000.08
100000.07
100000.06
100000.05
100000.04
100000.03
100000.03
100000.02
100000.02
100000.02
100000.01
100000.01
100000.01
100000.01
100000.01
100000
)
;

boundaryField
{
    maxY
    {
        type            fixedFluxPressure;
        gradient        nonuniform List<scalar> 
300
(
-5.1674925e-05
-5.1674926e-05
-5.1674926e-05
-5.1674926e-05
-5.1674925e-05
-5.1674925e-05
-5.1674925e-05
-5.1674926e-05
-5.1674926e-05
-5.1674925e-05
-5.1674539e-05
-5.1674554e-05
-5.1674552e-05
-5.1674551e-05
-5.167455e-05
-5.167455e-05
-5.1674551e-05
-5.1674552e-05
-5.1674554e-05
-5.1674539e-05
-5.1673607e-05
-5.1673683e-05
-5.1673676e-05
-5.167367e-05
-5.1673667e-05
-5.1673667e-05
-5.167367e-05
-5.1673676e-05
-5.1673683e-05
-5.1673607e-05
-5.1671777e-05
-5.1672032e-05
-5.1672017e-05
-5.1671997e-05
-5.1671986e-05
-5.1671986e-05
-5.1671997e-05
-5.1672017e-05
-5.1672032e-05
-5.1671778e-05
-5.166861e-05
-5.166927e-05
-5.1669251e-05
-5.1669198e-05
-5.1669169e-05
-5.1669169e-05
-5.1669198e-05
-5.166925e-05
-5.166927e-05
-5.166861e-05
-5.1663569e-05
-5.1665031e-05
-5.1665021e-05
-5.1664899e-05
-5.1664832e-05
-5.166483e-05
-5.1664897e-05
-5.1665018e-05
-5.1665029e-05
-5.1663567e-05
-5.1656022e-05
-5.1658918e-05
-5.1658946e-05
-5.165869e-05
-5.1658548e-05
-5.1658542e-05
-5.1658683e-05
-5.1658938e-05
-5.165891e-05
-5.1656012e-05
-5.1645172e-05
-5.1650524e-05
-5.1650639e-05
-5.1650133e-05
-5.1649852e-05
-5.1649835e-05
-5.1650114e-05
-5.1650617e-05
-5.1650499e-05
-5.1645143e-05
-5.1629863e-05
-5.163943e-05
-5.163972e-05
-5.1638768e-05
-5.1638235e-05
-5.163819e-05
-5.1638722e-05
-5.1639666e-05
-5.1639367e-05
-5.1629788e-05
-5.1608332e-05
-5.1625188e-05
-5.1625844e-05
-5.1624104e-05
-5.16231e-05
-5.1622968e-05
-5.1623995e-05
-5.1625729e-05
-5.1625062e-05
-5.1608183e-05
-5.1576229e-05
-5.1607105e-05
-5.1608614e-05
-5.1605294e-05
-5.1602868e-05
-5.1601992e-05
-5.1604844e-05
-5.1608332e-05
-5.1606909e-05
-5.1576176e-05
-5.1505404e-05
-5.1581766e-05
-5.1585569e-05
-5.1573912e-05
-5.1555499e-05
-5.1540938e-05
-5.1568024e-05
-5.1583592e-05
-5.1581632e-05
-5.1507812e-05
-5.1280651e-05
-5.1526797e-05
-5.151776e-05
-5.1384983e-05
-5.1068517e-05
-5.0809742e-05
-5.1283115e-05
-5.1487297e-05
-5.1525417e-05
-5.1297887e-05
-5.0030469e-05
-5.1258556e-05
-5.0930571e-05
-4.9246806e-05
-4.4595265e-05
-4.2100632e-05
-4.8078913e-05
-5.0563681e-05
-5.1230486e-05
-5.0202776e-05
-4.7036366e-05
-5.0156962e-05
-4.827849e-05
-4.3014471e-05
-3.7396049e-05
-3.720272e-05
-4.1446894e-05
-4.725546e-05
-5.0004267e-05
-4.733342e-05
-4.3343473e-05
-4.7813726e-05
-4.4211629e-05
-3.8297617e-05
-3.6197172e-05
-3.6313008e-05
-3.8276247e-05
-4.3491359e-05
-4.7640099e-05
-4.364334e-05
-3.9926571e-05
-4.4818244e-05
-4.1833036e-05
-3.7873413e-05
-3.5683044e-05
-3.585924e-05
-3.8032448e-05
-4.1489862e-05
-4.4700692e-05
-4.0166293e-05
-3.6966564e-05
-4.1450333e-05
-4.140021e-05
-3.7991433e-05
-3.5272976e-05
-3.5404733e-05
-3.8062505e-05
-4.1258845e-05
-4.1301395e-05
-3.7117275e-05
-3.4503929e-05
-3.8329172e-05
-3.9709823e-05
-3.8159646e-05
-3.4774667e-05
-3.4814909e-05
-3.7775033e-05
-3.9276122e-05
-3.8108338e-05
-3.4567232e-05
-3.2535598e-05
-3.5715949e-05
-3.7434298e-05
-3.7029734e-05
-3.4351279e-05
-3.41114e-05
-3.6467092e-05
-3.6913734e-05
-3.5465294e-05
-3.2532547e-05
-3.1024035e-05
-3.3689914e-05
-3.5368032e-05
-3.5537723e-05
-3.3679162e-05
-3.3340148e-05
-3.5014384e-05
-3.4921462e-05
-3.3492494e-05
-3.0979694e-05
-2.9901682e-05
-3.2243462e-05
-3.3746784e-05
-3.4091827e-05
-3.286819e-05
-3.2519041e-05
-3.3702495e-05
-3.3392119e-05
-3.2075087e-05
-2.9834782e-05
-2.9085017e-05
-3.1146592e-05
-3.2477991e-05
-3.2841772e-05
-3.2054224e-05
-3.1743431e-05
-3.2528104e-05
-3.2192756e-05
-3.0990309e-05
-2.9006563e-05
-2.849213e-05
-3.0272913e-05
-3.1454523e-05
-3.1812688e-05
-3.131955e-05
-3.1091692e-05
-3.1538948e-05
-3.1217209e-05
-3.0119119e-05
-2.8407669e-05
-2.8052823e-05
-2.9545662e-05
-3.0596426e-05
-3.0797231e-05
-3.0672896e-05
-3.0593988e-05
-3.0615826e-05
-3.0397907e-05
-2.9394869e-05
-2.7964457e-05
-2.7710481e-05
-2.8969556e-05
-2.9877598e-05
-2.9657031e-05
-3.0125879e-05
-3.0081567e-05
-2.9551525e-05
-2.9716401e-05
-2.8837634e-05
-2.7618122e-05
-2.7417299e-05
-2.8509884e-05
-2.9275038e-05
-2.8633732e-05
-2.961646e-05
-2.8935466e-05
-2.8440735e-05
-2.9145262e-05
-2.8388414e-05
-2.7319109e-05
-2.7125594e-05
-2.8114747e-05
-2.8732051e-05
-2.752313e-05
-2.8059774e-05
-2.7346191e-05
-2.7160009e-05
-2.8628563e-05
-2.7998724e-05
-2.7017324e-05
-2.6767958e-05
-2.7728952e-05
-2.7686019e-05
-2.6153202e-05
-2.6033953e-05
-2.5300765e-05
-2.5776484e-05
-2.7605833e-05
-2.7616103e-05
-2.6639524e-05
-2.624352e-05
-2.7256494e-05
-2.632952e-05
-2.4875368e-05
-2.3694579e-05
-2.3004927e-05
-2.4133027e-05
-2.5749976e-05
-2.7138973e-05
-2.6076017e-05
)
;
        value           nonuniform List<scalar> 
300
(
100000.1
100000.1
100000.1
100000.1
100000.1
100000.1
100000.1
100000.1
100000.1
100000.1
100000.1
100000.1
100000.1
100000.1
100000.1
100000.1
100000.1
100000.1
100000.1
100000.1
100000.1
100000.1
100000.1
100000.1
100000.1
100000.1
100000.1
100000.1
100000.1
100000.1
100000.1
100000.1
100000.1
100000.1
100000.1
100000.1
100000.1
100000.1
100000.1
100000.1
100000.1
100000.1
100000.1
100000.1
100000.1
100000.1
100000.1
100000.1
100000.1
100000.1
100000.1
100000.1
100000.1
100000.1
100000.1
100000.1
100000.1
100000.1
100000.1
100000.1
100000.1
100000.1
100000.1
100000.1
100000.1
100000.1
100000.1
100000.1
100000.1
100000.1
100000.1
100000.1
100000.1
100000.1
100000.1
100000.1
100000.1
100000.1
100000.1
100000.1
100000.1
100000.1
100000.1
100000.1
100000.1
100000.1
100000.1
100000.1
100000.1
100000.1
100000.1
100000.1
100000.1
100000.1
100000.1
100000.1
100000.1
100000.1
100000.1
100000.1
100000.1
100000.1
100000.1
100000.1
100000.1
100000.1
100000.1
100000.1
100000.1
100000.1
100000.1
100000.1
100000.1
100000.1
100000.1
100000.1
100000.1
100000.1
100000.1
100000.1
100000.1
100000.1
100000.1
100000.1
100000.1
100000.1
100000.1
100000.1
100000.1
100000.1
100000.09
100000.1
100000.1
100000.09
100000.07
100000.06
100000.09
100000.1
100000.1
100000.1
100000.08
100000.09
100000.09
100000.07
100000.04
100000.04
100000.06
100000.08
100000.09
100000.08
100000.07
100000.08
100000.07
100000.04
100000.04
100000.04
100000.04
100000.07
100000.08
100000.07
100000.06
100000.07
100000.06
100000.04
100000.03
100000.03
100000.04
100000.06
100000.07
100000.06
100000.05
100000.06
100000.06
100000.04
100000.03
100000.03
100000.04
100000.06
100000.06
100000.05
100000.04
100000.04
100000.05
100000.04
100000.03
100000.03
100000.04
100000.05
100000.04
100000.04
100000.03
100000.03
100000.04
100000.04
100000.03
100000.03
100000.04
100000.04
100000.03
100000.03
100000.03
100000.03
100000.03
100000.04
100000.03
100000.03
100000.03
100000.03
100000.03
100000.03
100000.02
100000.02
100000.03
100000.03
100000.03
100000.02
100000.03
100000.03
100000.02
100000.02
100000.02
100000.02
100000.02
100000.03
100000.02
100000.02
100000.03
100000.02
100000.02
100000.02
100000.02
100000.01
100000.02
100000.02
100000.02
100000.02
100000.02
100000.02
100000.01
100000.02
100000.01
100000.01
100000.02
100000.02
100000.02
100000.02
100000.02
100000.02
100000.01
100000.01
100000.01
100000.01
100000.02
100000.02
100000.02
100000.02
100000.02
100000.02
100000.01
100000.01
100000.01
100000.01
100000.01
100000.01
100000.02
100000.02
100000.01
100000.02
100000.01
100000.01
100000.01
100000.01
100000.01
100000.01
100000.01
100000.01
100000.01
100000.02
100000.01
100000.01
100000.01
100000.01
100000.01
100000
100000.01
100000.01
100000
100000.01
100000.01
100000.01
100000
100000
100000.01
100000
100000
99999.999
99999.998
100000
100000
100000
)
;
    }
    minX
    {
        type            fixedFluxPressure;
        gradient        nonuniform List<scalar> 
40
(
3.1603399
0.12268327
0.0038243154
0.00011927888
3.1596504
0.12251694
0.0038106477
0.00011839259
3.1593927
0.12252702
0.003812078
0.00011848724
3.1595699
0.1225447
0.0038131631
0.00011855395
3.1596604
0.1225509
0.0038136099
0.00011858518
3.1597503
0.12255466
0.0038137238
0.00011858827
3.1597623
0.12255273
0.0038134023
0.00011855987
3.1595702
0.12253437
0.0038122885
0.00011849118
3.1597251
0.12251996
0.0038107162
0.00011839144
3.1603845
0.122685
0.0038243415
0.00011927609
)
;
        value           nonuniform List<scalar> 
40
(
100000.1
100000.1
100000.1
100000.1
100000.1
100000.1
100000.1
100000.1
100000.1
100000.1
100000.1
100000.1
100000.1
100000.1
100000.1
100000.1
100000.1
100000.1
100000.1
100000.1
100000.1
100000.1
100000.1
100000.1
100000.1
100000.1
100000.1
100000.1
100000.1
100000.1
100000.1
100000.1
100000.1
100000.1
100000.1
100000.1
100000.1
100000.1
100000.1
100000.1
)
;
    }
    maxX
    {
        type            fixedValue;
        value           uniform 100000;
    }
    minZ
    {
        type            fixedFluxPressure;
        gradient        uniform 0;
        value           nonuniform List<scalar> 
120
(
100000.09
100000.1
100000.1
100000.1
100000.07
100000.1
100000.1
100000.1
100000.07
100000.1
100000.1
100000.1
100000.06
100000.1
100000.1
100000.1
100000.05
100000.09
100000.1
100000.1
100000.04
100000.09
100000.1
100000.1
100000.04
100000.09
100000.1
100000.1
100000.03
100000.09
100000.1
100000.1
100000.03
100000.08
100000.1
100000.1
100000.02
100000.08
100000.1
100000.1
100000.02
100000.07
100000.1
100000.1
100000.02
100000.07
100000.09
100000.1
100000.01
100000.06
100000.09
100000.1
100000.01
100000.05
100000.08
100000.09
100000.01
100000.04
100000.07
100000.08
100000.01
100000.03
100000.05
100000.07
100000
100000.02
100000.04
100000.06
100000
100000.02
100000.03
100000.05
100000
100000.02
100000.02
100000.04
100000
100000.01
100000.02
100000.03
100000
100000.01
100000.01
100000.03
100000
100000.01
100000.01
100000.02
100000
100000.01
100000.01
100000.02
100000
100000.01
100000.01
100000.02
100000
100000.01
100000.01
100000.01
100000
100000.01
100000.01
100000.01
99999.998
100000.01
100000
100000.01
99999.997
100000
100000
100000.01
99999.995
100000
100000
100000.01
99999.995
99999.997
99999.998
100000
)
;
    }
    maxZ
    {
        type            fixedFluxPressure;
        gradient        uniform 0;
        value           nonuniform List<scalar> 
120
(
100000.09
100000.1
100000.1
100000.1
100000.07
100000.1
100000.1
100000.1
100000.07
100000.1
100000.1
100000.1
100000.06
100000.1
100000.1
100000.1
100000.05
100000.09
100000.1
100000.1
100000.04
100000.09
100000.1
100000.1
100000.04
100000.09
100000.1
100000.1
100000.03
100000.09
100000.1
100000.1
100000.03
100000.08
100000.1
100000.1
100000.02
100000.08
100000.1
100000.1
100000.02
100000.07
100000.1
100000.1
100000.02
100000.07
100000.09
100000.1
100000.01
100000.06
100000.09
100000.1
100000.01
100000.05
100000.08
100000.1
100000.01
100000.04
100000.07
100000.08
100000.01
100000.03
100000.05
100000.07
100000
100000.02
100000.04
100000.06
100000
100000.02
100000.03
100000.05
100000
100000.02
100000.02
100000.04
100000
100000.01
100000.02
100000.03
100000
100000.01
100000.01
100000.03
100000
100000.01
100000.01
100000.02
100000
100000.01
100000.01
100000.02
100000
100000.01
100000.01
100000.02
100000
100000.01
100000.01
100000.01
100000
100000.01
100000.01
100000.01
99999.999
100000.01
100000.01
100000.01
99999.997
100000
100000
100000.01
99999.995
100000
100000
100000.01
99999.995
99999.997
99999.999
100000
)
;
    }
    topAir_to_rightSolid
    {
        type            fixedFluxPressure;
        gradient        nonuniform List<scalar> 
130
(
-4.7397885
-5.0418037
-5.3239853
-5.5703595
-5.7740373
-5.9330668
-6.0483763
-6.1219828
-6.1556136
-6.1492658
-6.0976473
-5.9865071
-5.7931135
-6.4520968
-6.7694778
-7.009449
-7.1888915
-7.3219175
-7.4161681
-7.4747292
-7.4990945
-7.4891038
-7.4412062
-7.3435405
-7.1648453
-6.8490667
-5.96402
-6.4247688
-6.840953
-7.2037018
-7.5071291
-7.7444519
-7.9099569
-8.0025728
-8.0269742
-7.9897155
-7.8927513
-7.707838
-7.3641646
-4.1125927
-4.3431777
-4.5722531
-4.8109202
-5.0606636
-5.3145767
-5.5648684
-5.8020158
-6.0027029
-6.1207214
-6.091999
-5.8893395
-5.5855746
-3.6868374
-3.9595024
-4.1186976
-4.2184364
-4.2902646
-4.3539291
-4.4210898
-4.4959996
-4.5738552
-4.637779
-4.6589175
-4.6012315
-4.4278209
-3.6401739
-3.9123349
-4.0688482
-4.1638002
-4.2286885
-4.2833131
-4.3395152
-4.402051
-4.4673173
-4.5203544
-4.5338589
-4.473318
-4.3017848
-4.0336848
-4.2424374
-4.4493269
-4.6670905
-4.8984491
-5.1368225
-5.3731974
-5.5969694
-5.7865509
-5.8962707
-5.8639138
-5.685985
-5.4005774
-5.9139635
-6.3577885
-6.7658071
-7.1291546
-7.4389156
-7.6831193
-7.8515225
-7.9411215
-7.9576147
-7.9103434
-7.8024472
-7.6028911
-7.2425462
-6.4652613
-6.7694453
-6.9991726
-7.1728271
-7.3040694
-7.3988345
-7.4578155
-7.4803954
-7.4651619
-7.4082247
-7.2975884
-7.099362
-6.763923
-4.7405775
-5.0361161
-5.3115237
-5.5525671
-5.7524398
-5.9089459
-6.0222022
-6.0933567
-6.1233337
-6.1113179
-6.0518283
-5.9301678
-5.7248034
)
;
        value           nonuniform List<scalar> 
130
(
99999.985
99999.984
99999.983
99999.982
99999.981
99999.98
99999.979
99999.977
99999.975
99999.974
99999.972
99999.971
99999.972
99999.996
99999.995
99999.993
99999.991
99999.989
99999.988
99999.986
99999.984
99999.981
99999.979
99999.976
99999.974
99999.971
99999.998
99999.996
99999.995
99999.994
99999.992
99999.991
99999.989
99999.987
99999.984
99999.982
99999.978
99999.975
99999.971
99999.993
99999.99
99999.988
99999.986
99999.984
99999.982
99999.98
99999.979
99999.977
99999.974
99999.972
99999.971
99999.971
99999.993
99999.99
99999.987
99999.984
99999.981
99999.978
99999.975
99999.973
99999.971
99999.969
99999.969
99999.97
99999.973
99999.993
99999.989
99999.986
99999.983
99999.98
99999.977
99999.974
99999.971
99999.969
99999.968
99999.968
99999.97
99999.974
99999.992
99999.99
99999.988
99999.986
99999.984
99999.982
99999.98
99999.978
99999.976
99999.974
99999.972
99999.971
99999.971
99999.997
99999.996
99999.994
99999.993
99999.992
99999.99
99999.989
99999.987
99999.984
99999.982
99999.979
99999.975
99999.972
99999.996
99999.994
99999.993
99999.991
99999.989
99999.988
99999.986
99999.984
99999.982
99999.979
99999.977
99999.974
99999.972
99999.985
99999.984
99999.983
99999.982
99999.981
99999.98
99999.979
99999.977
99999.976
99999.974
99999.973
99999.972
99999.972
)
;
    }
    topAir_to_heater
    {
        type            fixedFluxPressure;
        gradient        nonuniform List<scalar> 
40
(
-3.9017492
-3.9990287
-4.1856301
-4.4433579
-4.7671312
-5.1431219
-5.5960657
-6.0525146
-4.1917422
-4.5477891
-4.9938052
-5.4769544
-3.3309502
-3.4998128
-3.6784124
-3.8750919
-2.6468746
-2.7897321
-2.9437989
-3.1930335
-2.6547792
-2.7667872
-2.893491
-3.1451632
-3.3573126
-3.5028106
-3.6497579
-3.8186227
-4.2199488
-4.5697248
-4.9948107
-5.4509507
-4.7863615
-5.1706699
-5.6267174
-6.0774594
-3.9059172
-4.0049328
-4.1930393
-4.448951
)
;
        value           nonuniform List<scalar> 
40
(
99999.993
99999.991
99999.989
99999.987
100000
100000
99999.999
99999.998
100000
100000
100000
99999.999
100000
100000
99999.998
99999.995
100000.01
100000
100000
99999.997
100000.01
100000
100000
99999.997
100000
100000
99999.998
99999.995
100000
100000
100000
99999.998
100000
100000
99999.999
99999.998
99999.993
99999.991
99999.988
99999.986
)
;
    }
    topAir_to_leftSolid
    {
        type            fixedFluxPressure;
        gradient        nonuniform List<scalar> 
130
(
-13.54361
-12.145153
-11.030713
-10.107802
-9.3173202
-8.6247969
-8.0111745
-7.4700196
-7.0004663
-6.593922
-6.2460938
-5.9569399
-5.7338902
-13.544067
-12.159648
-11.06817
-10.174678
-9.4200446
-8.7706345
-8.2076471
-7.7208147
-7.3066695
-6.966805
-6.7074519
-6.5384283
-6.4757548
-13.544412
-12.157572
-11.063257
-10.166636
-9.4082445
-8.7541135
-8.1838509
-7.6843876
-7.2486956
-6.8748319
-6.5663859
-6.334304
-6.2042731
-13.544663
-12.156897
-11.060702
-10.161181
-9.3982977
-8.7368254
-8.1554617
-7.6397324
-7.1797409
-6.7703942
-6.4123132
-6.1155316
-5.9065657
-13.544934
-12.156858
-11.060144
-10.159966
-9.3962645
-8.7337486
-8.1510653
-7.633679
-7.1724255
-6.7633136
-6.4102333
-6.1292229
-5.9479709
-13.545036
-12.156938
-11.060223
-10.160067
-9.3964171
-8.7340591
-8.1514564
-7.6341433
-7.1731651
-6.7652874
-6.415893
-6.1430695
-5.9698682
-13.544878
-12.157084
-11.06092
-10.16148
-9.3987506
-8.7376357
-8.1563035
-7.6402989
-7.1799778
-6.7710238
-6.4153183
-6.1249563
-5.9266106
-13.544607
-12.157781
-11.06357
-10.167137
-9.4090648
-8.755165
-8.1848504
-7.685075
-7.2487931
-6.8747887
-6.5672993
-6.338788
-6.2168427
-13.544137
-12.159786
-11.068466
-10.175207
-9.4208505
-8.7716323
-8.2087173
-7.7217252
-7.3073273
-6.9671633
-6.7076299
-6.5390315
-6.4798384
-13.543643
-12.145272
-11.030984
-10.108267
-9.3179972
-8.625574
-8.0119559
-7.4704904
-7.0004388
-6.5932537
-6.2445899
-5.954194
-5.7305371
)
;
        value           nonuniform List<scalar> 
130
(
100000.03
100000.03
100000.02
100000.02
100000.01
100000.01
100000.01
100000
100000
99999.998
99999.995
99999.992
99999.988
100000.03
100000.03
100000.02
100000.02
100000.01
100000.01
100000.01
100000
100000
100000
99999.998
99999.996
99999.994
100000.03
100000.03
100000.02
100000.02
100000.01
100000.01
100000.01
100000
100000
100000
99999.998
99999.996
99999.994
100000.03
100000.03
100000.02
100000.02
100000.01
100000.01
100000.01
100000
100000
100000
99999.998
99999.995
99999.993
100000.03
100000.03
100000.02
100000.02
100000.01
100000.01
100000.01
100000
100000
100000
99999.998
99999.995
99999.993
100000.03
100000.03
100000.02
100000.02
100000.01
100000.01
100000.01
100000
100000
100000
99999.998
99999.995
99999.993
100000.03
100000.03
100000.02
100000.02
100000.01
100000.01
100000.01
100000
100000
100000
99999.998
99999.995
99999.993
100000.03
100000.03
100000.02
100000.02
100000.01
100000.01
100000.01
100000
100000
100000
99999.998
99999.996