/*--------------------------------*- C++ -*----------------------------------*\
| =========                 |                                                 |
| \\      /  F ield         | OpenFOAM: The Open Source CFD Toolbox           |
|  \\    /   O peration     | Version:  v2012                                 |
|   \\  /    A nd           | Website:  www.openfoam.com                      |
|    \\/     M anipulation  |                                                 |
\*---------------------------------------------------------------------------*/
FoamFile
{
    version     2.0;
    format      ascii;
    class       surfaceScalarField;
    location    "570/topAir";
    object      phi;
}
// * * * * * * * * * * * * * * * * * * * * * * * * * * * * * * * * * * * * * //

dimensions      [1 0 -1 0 0 0 0];
oriented        oriented;


internalField   nonuniform List<scalar> 
3140
(
9.503635e-06
-3.0677133e-07
7.2122376e-08
9.6896531e-06
-2.6786288e-07
8.1850301e-08
9.8669762e-06
-2.480709e-07
7.0742971e-08
1.0009719e-05
-1.9554039e-07
5.277916e-08
1.0111869e-05
-1.3157645e-07
2.939086e-08
1.0183368e-05
-7.2780002e-08
1.2309303e-09
1.0259121e-05
-2.5522318e-08
-5.0292841e-08
1.0360332e-05
1.7700401e-08
-1.1894917e-07
1.0496774e-05
8.2360979e-08
-2.1881834e-07
1.0691587e-05
1.6734625e-07
-3.6215124e-07
1.093951e-05
3.1663765e-07
-5.6452759e-07
1.1210189e-05
5.6865479e-07
-8.3928487e-07
1.1446993e-05
9.5339127e-07
-1.1901519e-06
1.1661999e-05
1.4027896e-06
-1.6177684e-06
1.1829325e-05
1.9023261e-06
-2.0696807e-06
1.1936196e-05
2.3864258e-06
-2.4934047e-06
1.1970894e-05
2.8124549e-06
-2.847328e-06
1.1931275e-05
3.1558458e-06
-3.1164449e-06
1.1835852e-05
3.4006798e-06
-3.3055036e-06
1.1721071e-05
3.5408297e-06
-3.4263258e-06
1.1624488e-05
3.5868965e-06
-3.49062e-06
1.1569436e-05
3.5623305e-06
-3.5075911e-06
1.1561993e-05
3.4909662e-06
-3.4837727e-06
1.1594448e-05
3.3908617e-06
-3.4233605e-06
1.1646923e-05
3.2751817e-06
-3.3272755e-06
1.1677743e-05
3.1597533e-06
-3.1894841e-06
1.160009e-05
3.0729394e-06
-2.9931696e-06
1.124079e-05
3.0717118e-06
-2.7089681e-06
1.0250894e-05
3.286563e-06
-2.2917477e-06
4.0412746e-06
-1.6801248e-06
9.111938e-06
-2.2910095e-07
7.93628e-08
9.08383e-06
-3.427761e-07
1.0302287e-07
9.088104e-06
-3.6113524e-07
1.0879134e-07
9.1385732e-06
-3.5580835e-07
1.0979937e-07
9.2339235e-06
-3.3243096e-07
1.0550479e-07
9.3685024e-06
-3.0112881e-07
9.3771959e-08
9.5457667e-06
-2.7511049e-07
7.2330794e-08
9.7823359e-06
-2.5733191e-07
3.8458563e-08
1.0103714e-05
-2.2618884e-07
-1.2621635e-08
1.0541517e-05
-1.6503075e-07
-1.0493535e-07
1.1120966e-05
-2.1412823e-08
-2.4091104e-07
1.1823616e-05
3.0429397e-07
-4.3815458e-07
1.2548413e-05
9.3871118e-07
-7.1041883e-07
1.318335e-05
1.79958e-06
-1.0323073e-06
1.3664494e-05
2.7653131e-06
-1.3448015e-06
1.3936103e-05
3.696021e-06
-1.581826e-06
1.3988142e-05
4.4815574e-06
-1.7216457e-06
1.3857136e-05
5.0906706e-06
-1.8042216e-06
1.3616243e-05
5.51812e-06
-1.8769422e-06
1.3350987e-05
5.7708571e-06
-1.9652605e-06
1.3122803e-05
5.8698172e-06
-2.0553576e-06
1.2954922e-05
5.8505223e-06
-2.1210384e-06
1.2846235e-05
5.74478e-06
-2.1458285e-06
1.2782518e-05
5.5742327e-06
-2.1200467e-06
1.2742102e-05
5.3491515e-06
-2.0331848e-06
1.2682631e-05
5.0868761e-06
-1.8659019e-06
1.2519581e-05
4.82743e-06
-1.5874725e-06
1.2099624e-05
4.659605e-06
-1.1608623e-06
1.1182451e-05
4.7636263e-06
-5.495663e-07
5.351862e-06
3.5402438e-07
9.1688607e-06
-2.1042396e-07
8.1425073e-08
8.9987734e-06
-2.7987883e-07
1.0719178e-07
8.814656e-06
-2.9312465e-07
1.1610856e-07
8.6288882e-06
-2.9243178e-07
1.2239294e-07
8.4539902e-06
-2.8463363e-07
1.2710287e-07
8.2952655e-06
-2.7219244e-07
1.2979093e-07
8.1495094e-06
-2.6062728e-07
1.3127743e-07
8.0140406e-06
-2.5575036e-07
1.3389548e-07
7.9071195e-06
-2.6013211e-07
1.4088357e-07
7.8725842e-06
-2.8172185e-07
1.5125577e-07
8.0300513e-06
-3.3527385e-07
1.5640592e-07
8.5453244e-06
-3.438169e-07
1.3256093e-07
9.4525996e-06
-2.8586219e-08
5.9307353e-08
1.064031e-05
6.4283765e-07
-3.1806469e-08
1.1701975e-05
1.7713511e-06
-6.8419363e-08
1.2501162e-05
2.8790148e-06
1.7638259e-08
1.2948576e-05
3.7160444e-06
3.1836649e-07
1.3092319e-05
4.3096296e-06
6.3786819e-07
1.3042298e-05
4.704598e-06
8.6424653e-07
1.2918659e-05
4.9307128e-06
9.6444939e-07
1.2805725e-05
5.0087094e-06
9.7455284e-07
1.2719929e-05
4.9548324e-06
9.8178262e-07
1.2649498e-05
4.800877e-06
1.0144243e-06
1.2568855e-05
4.5794282e-06
1.075409e-06
1.2468259e-05
4.3188953e-06
1.1308358e-06
1.2327101e-05
4.0381202e-06
1.1901381e-06
1.2107702e-05
3.7685648e-06
1.2790608e-06
1.1760853e-05
3.584193e-06
1.4241366e-06
1.1181742e-05
3.6567526e-06
1.6896924e-06
4.3333429e-06
2.1228419e-06
8.9789994e-06
7.9530744e-08
8.5950403e-06
1.0408184e-07
8.1900515e-06
1.1186555e-07
7.7811558e-06
1.164655e-07
7.3772351e-06
1.192885e-07
6.9847226e-06
1.2032186e-07
6.6032848e-06
1.2081228e-07
6.2243666e-06
1.2317047e-07
5.8328653e-06
1.313724e-07
5.4001049e-06
1.5104348e-07
4.8702066e-06
1.9463021e-07
4.2414073e-06
2.8499097e-07
3.7649528e-06
4.4797514e-07
3.7305816e-06
6.7784843e-07
4.466151e-06
1.0376735e-06
5.6659545e-06
1.681798e-06
6.7192755e-06
2.6654431e-06
7.5480981e-06
3.4834304e-06
8.2049269e-06
4.0501598e-06
8.7638347e-06
4.3738488e-06
9.2539602e-06
4.5201979e-06
9.6824695e-06
4.5274845e-06
1.002653e-05
4.4575484e-06
1.0266744e-05
4.3395716e-06
1.039333e-05
4.1923756e-06
1.0416855e-05
4.0144866e-06
1.0365149e-05
3.8201332e-06
1.032577e-05
3.6236511e-06
1.0552094e-05
3.4312328e-06
3.1162226e-06
9.6157546e-06
-3.0645649e-07
3.181052e-08
9.9173027e-06
-2.6906761e-07
4.9376703e-08
1.019825e-05
-2.6195735e-07
5.1750168e-08
1.0431853e-05
-2.2708453e-07
4.6244698e-08
1.0611528e-05
-1.8531292e-07
3.4995618e-08
1.0749781e-05
-1.5362544e-07
1.655171e-08
1.0849698e-05
-1.400236e-07
-1.0260499e-08
1.0920883e-05
-1.4771891e-07
-4.249905e-08
1.097278e-05
-1.8257536e-07
-8.8231082e-08
1.10138e-05
-2.5145976e-07
-1.5180365e-07
1.1052877e-05
-3.6471157e-07
-2.3897075e-07
1.1100782e-05
-5.3243694e-07
-3.5481413e-07
1.1175232e-05
-7.6451944e-07
-5.0015701e-07
1.1358647e-05
-1.1263692e-06
-6.7491881e-07
1.165369e-05
-1.5157207e-06
-8.4912036e-07
1.2017323e-05
-1.8532908e-06
-1.0038041e-06
1.235731e-05
-2.03614e-06
-1.1510247e-06
1.2595931e-05
-2.0437795e-06
-1.3108555e-06
1.2710209e-05
-1.9324334e-06
-1.4866857e-06
1.2731024e-05
-1.7828305e-06
-1.6635232e-06
1.2709689e-05
-1.6494314e-06
-1.818972e-06
1.268599e-05
-1.5408828e-06
-1.9419719e-06
1.2678671e-05
-1.451407e-06
-2.023633e-06
1.2692662e-05
-1.3761613e-06
-2.0589626e-06
1.2732088e-05
-1.316389e-06
-2.0466203e-06
1.2796734e-05
-1.2641325e-06
-1.984035e-06
1.2865829e-05
-1.1949191e-06
-1.8580847e-06
1.2875022e-05
-1.0500064e-06
-1.654473e-06
1.2702297e-05
-7.031648e-07
-1.3971204e-06
3.0643354e-07
-1.1191373e-06
9.2370907e-06
-2.3065365e-07
3.5440415e-08
9.3561916e-06
-3.4687412e-07
6.1730119e-08
9.5011e-06
-3.7053246e-07
7.245897e-08
9.6854433e-06
-3.7589304e-07
7.426447e-08
9.905334e-06
-3.6951161e-07
6.9811809e-08
1.0148688e-05
-3.612019e-07
5.7993044e-08
1.0407115e-05
-3.6271608e-07
3.6595513e-08
1.0678233e-05
-3.8419564e-07
3.8215154e-09
1.0967739e-05
-4.3634434e-07
-4.8345493e-08
1.1272002e-05
-5.3814494e-07
-1.2248902e-07
1.1603738e-05
-7.1030318e-07
-2.2702584e-07
1.1979952e-05
-9.7917605e-07
-3.6761681e-07
1.2427261e-05
-1.3799194e-06
-5.4237223e-07
1.2935116e-05
-1.9379565e-06
-7.2869407e-07
1.3498068e-05
-2.5342921e-06
-8.8930223e-07
1.4017008e-05
-2.9301409e-06
-1.0239308e-06
1.4376302e-05
-2.928572e-06
-1.1882964e-06
1.4529525e-05
-2.5968694e-06
-1.4039265e-06
1.4499679e-05
-2.1302372e-06
-1.6487575e-06
1.4362307e-05
-1.7190463e-06
-1.891135e-06
1.4201433e-05
-1.4417832e-06
-2.1016081e-06
1.4039574e-05
-1.2401085e-06
-2.259492e-06
1.3875904e-05
-1.0907766e-06
-2.3424753e-06
1.3707224e-05
-9.9215785e-07
-2.3354216e-06
1.3562943e-05
-9.7496728e-07
-2.2311156e-06
1.3500259e-05
-1.0385712e-06
-2.0309756e-06
1.3604468e-05
-1.1710676e-06
-1.7201933e-06
1.408531e-05
-1.3886768e-06
-1.3109972e-06
1.5626147e-05
-1.7591254e-06
-1.046175e-06
-2.0384965e-06
-1.1237873e-06
9.2964403e-06
-2.128303e-07
3.6124198e-08
9.2767766e-06
-2.8362754e-07
6.3610563e-08
9.244629e-06
-2.98764e-07
7.6489446e-08
9.2122043e-06
-3.0233332e-07
8.125962e-08
9.1902767e-06
-3.0132044e-07
8.0841178e-08
9.1822441e-06
-2.9808194e-07
7.4705809e-08
9.1877476e-06
-2.9857352e-07
6.1634835e-08
9.2065357e-06
-3.0986839e-07
4.0785274e-08
9.238439e-06
-3.4034015e-07
1.2984491e-08
9.2916969e-06
-4.0538136e-07
-3.4753964e-08
9.3786971e-06
-5.3270605e-07
-1.0817847e-07
9.5133485e-06
-7.651516e-07
-2.1611798e-07
9.7157898e-06
-1.1600971e-06
-3.6302388e-07
1.001299e-05
-1.7485856e-06
-5.183939e-07
1.0381079e-05
-2.3645856e-06
-6.0597226e-07
1.0705704e-05
-2.662879e-06
-5.7382865e-07
1.0987328e-05
-2.4170852e-06
-4.7398606e-07
1.1161382e-05
-1.787007e-06
-3.4511649e-07
1.1220381e-05
-1.0455919e-06
-2.7878189e-07
1.1199689e-05
-3.8390438e-07
-3.5013512e-07
1.1161158e-05
2.2054262e-08
-4.50958e-07
1.1154967e-05
1.9661103e-07
-4.4921929e-07
1.1163547e-05
2.3140507e-07
-3.1715393e-07
1.1156254e-05
1.7526935e-07
-8.5407494e-08
1.1084507e-05
4.6913579e-08
1.8047761e-07
1.0957813e-05
-1.4189553e-07
4.1885124e-07
1.0801934e-05
-4.3025373e-07
6.9059259e-07
1.0723355e-05
-7.6126914e-07
8.7129257e-07
1.1181381e-05
-1.0893207e-06
5.5816126e-07
-1.3965619e-06
-2.7234956e-07
9.1005561e-06
3.5098394e-08
8.8596321e-06
6.1379811e-08
8.5993911e-06
7.3344064e-08
8.3362128e-06
7.7311976e-08
8.0781052e-06
7.6077148e-08
7.831186e-06
6.916075e-08
7.5979393e-06
5.5487192e-08
7.376845e-06
3.439863e-08
7.1606987e-06
7.1813296e-09
6.9485295e-06
-4.2164789e-08
6.721422e-06
-1.1096298e-07
6.4532335e-06
-2.1196424e-07
6.1193421e-06
-3.7820607e-07
5.7042267e-06
-6.5543973e-07
5.3143556e-06
-9.3602963e-07
5.1354008e-06
-7.9978472e-07
5.2091242e-06
1.7804189e-07
5.3614433e-06
1.5478863e-06
5.5256574e-06
2.8438069e-06
5.8822825e-06
3.6359882e-06
6.3557643e-06
4.0700383e-06
6.8292249e-06
4.2509663e-06
7.230849e-06
4.2869502e-06
7.526793e-06
4.217879e-06
7.7183882e-06
4.0459257e-06
7.8454653e-06
3.7445357e-06
7.9079386e-06
3.3268962e-06
7.9409452e-06
2.8293714e-06
8.5074996e-06
1.776363e-06
2.4460111e-07
9.5929815e-06
-3.0839204e-07
1.6207322e-08
9.8852066e-06
-2.6966123e-07
2.6821239e-08
1.0165129e-05
-2.5895454e-07
3.0785611e-08
1.0400818e-05
-2.1958478e-07
3.013581e-08
1.0582563e-05
-1.7323407e-07
2.6473441e-08
1.0715631e-05
-1.3692914e-07
2.0395425e-08
1.0807861e-05
-1.1460179e-07
1.2089943e-08
1.0870777e-05
-1.0580298e-07
3.5930074e-10
1.0907804e-05
-1.1332274e-07
-1.1963314e-08
1.0925578e-05
-1.424335e-07
-2.7161207e-08
1.0932177e-05
-2.0236531e-07
-4.3213916e-08
1.0941737e-05
-3.0835969e-07
-5.6028435e-08
1.0982216e-05
-4.8487256e-07
-5.5822193e-08
1.1152958e-05
-8.1498798e-07
-3.0875774e-08
1.1422398e-05
-1.1657655e-06
4.6790065e-08
1.1687009e-05
-1.445255e-06
1.7612898e-07
1.1879905e-05
-1.6383057e-06
2.93452e-07
1.1990715e-05
-1.7990986e-06
3.764322e-07
1.2033926e-05
-1.9519685e-06
4.2112552e-07
1.2032042e-05
-2.1000329e-06
4.3763166e-07
1.2014733e-05
-2.244792e-06
4.4275722e-07
1.1997599e-05
-2.3785516e-06
4.5406718e-07
1.1975788e-05
-2.4843128e-06
4.8401873e-07
1.1936207e-05
-2.5498364e-06
5.3364405e-07
1.1875398e-05
-2.5777336e-06
5.9725321e-07
1.1817776e-05
-2.5889995e-06
6.7048678e-07
1.1831845e-05
-2.599711e-06
7.3850269e-07
1.2017658e-05
-2.567015e-06
7.4155264e-07
1.2283019e-05
-2.1547589e-06
5.1328025e-07
-8.8749062e-07
-1.220633e-07
9.2088963e-06
-2.3050574e-07
1.7628952e-08
9.3151443e-06
-3.4601684e-07
3.1839574e-08
9.4573076e-06
-3.6756608e-07
3.8908768e-08
9.6416427e-06
-3.6931467e-07
3.966061e-08
9.8608536e-06
-3.5779871e-07
3.5167131e-08
1.009938e-05
-3.4255834e-07
2.5098561e-08
1.0346958e-05
-3.3358864e-07
8.0093073e-09
1.0600164e-05
-3.3812767e-07
-1.7050276e-08
1.0856545e-05
-3.6495672e-07
-5.3078518e-08
1.1120071e-05
-4.2620665e-07
-1.0222074e-07
1.1401577e-05
-5.455417e-07
-1.6533387e-07
1.1727359e-05
-7.6438343e-07
-2.3737207e-07
1.2145927e-05
-1.1467012e-06
-2.9916619e-07
1.2634852e-05
-1.7224914e-06
-3.1028976e-07
1.3091866e-05
-2.2463374e-06
-2.6596351e-07
1.3331368e-05
-2.4489794e-06
-2.5981968e-07
1.3325798e-05
-2.4616998e-06
-3.5921312e-07
1.3159986e-05
-2.4724911e-06
-5.6431303e-07
1.2889772e-05
-2.4846277e-06
-8.4516443e-07
1.2558021e-05
-2.504466e-06
-1.1539381e-06
1.2197677e-05
-2.5523945e-06
-1.4323644e-06
1.1813893e-05
-2.6222309e-06
-1.6304731e-06
1.1388252e-05
-2.678973e-06
-1.7205174e-06
1.0906263e-05
-2.7018389e-06
-1.7001503e-06
1.0368666e-05
-2.7039789e-06
-1.5673638e-06
9.8394319e-06
-2.7659923e-06
-1.3276796e-06
9.5615587e-06
-2.9661752e-06
-1.0834785e-06
9.9765718e-06
-3.2988466e-06
-1.0085016e-06
1.1524975e-05
-3.3658894e-06
-1.4045948e-06
-2.2337758e-06
-2.2535751e-06
9.2692596e-06
-2.1251818e-07
1.783979e-08
9.2374708e-06
-2.8298919e-07
3.2373422e-08
9.2032592e-06
-2.9705604e-07
4.0192772e-08
9.1724737e-06
-2.9906597e-07
4.1798153e-08
9.1535858e-06
-2.9596938e-07
3.7901763e-08
9.1477861e-06
-2.8982851e-07
2.7777793e-08
9.1521693e-06
-2.8587271e-07
9.5388455e-09
9.1637403e-06
-2.8992149e-07
-1.8987672e-08
9.1827058e-06
-3.0901613e-07
-6.1915139e-08
9.203129e-06
-3.5634887e-07
-1.2502611e-07
9.2220998e-06
-4.5926802e-07
-2.134118e-07
9.2424106e-06
-6.715152e-07
-3.2928724e-07
9.2943839e-06
-1.1017715e-06
-4.5992669e-07
9.4142266e-06
-1.8215261e-06
-5.3914769e-07
9.3910301e-06
-2.3407061e-06
-4.877387e-07
8.9769745e-06
-2.1554369e-06
-4.5186443e-07
8.3777401e-06
-1.7517774e-06
-5.8266393e-07
7.9178304e-06
-1.5641343e-06
-7.9130284e-07
7.5022788e-06
-1.2605885e-06
-1.0848837e-06
7.0560479e-06
-1.0011297e-06
-1.4048243e-06
6.5608043e-06
-8.6180027e-07
-1.6437284e-06
6.0571194e-06
-8.5541505e-07
-1.7094324e-06
5.5778054e-06
-9.45731e-07
-1.5679198e-06
5.1587941e-06
-1.1094161e-06
-1.2563852e-06
4.7918831e-06
-1.3284804e-06
-8.28181e-07
4.5250988e-06
-1.6346715e-06
-4.4988274e-07
4.6739843e-06
-2.0439361e-06
-3.8998412e-07
5.399429e-06
-2.5593783e-06
-6.0977546e-07
6.3823573e-06
-2.3443891e-06
-1.4775652e-06
-6.0032384e-07
-2.9996572e-06
9.0741337e-06
1.7400607e-08
8.8211397e-06
3.1386135e-08
8.5587217e-06
3.8707489e-08
8.2971176e-06
3.9851628e-08
8.0417725e-06
3.545438e-08
7.7964461e-06
2.4660175e-08
7.5609876e-06
5.0745956e-09
7.3308108e-06
-2.5344032e-08
7.1023204e-06
-7.3342017e-08
6.8529672e-06
-1.4915726e-07
6.5507593e-06
-2.6801884e-07
6.128918e-06
-4.6163336e-07
5.4464109e-06
-7.9746036e-07
4.3097681e-06
-1.3399051e-06
2.8774368e-06
-1.841371e-06
1.7800904e-06
-1.8537736e-06
1.7115314e-06
-1.5006476e-06
2.0293588e-06
-3.2984968e-07
2.4587963e-06
1.1576898e-06
2.9333144e-06
2.1629486e-06
3.4365614e-06
2.7059341e-06
3.8848168e-06
2.9470332e-06
4.2115625e-06
3.0133734e-06
4.3525992e-06
2.9657258e-06
4.2588757e-06
2.8089328e-06
4.0184033e-06
2.3480065e-06
3.87646e-06
1.4222402e-06
4.1852548e-06
-4.2673952e-08
5.7413107e-06
-2.1391204e-06
-4.5105953e-06
9.5873603e-06
-3.0865774e-07
6.4910049e-09
9.8720895e-06
-2.6924605e-07
1.1348436e-08
1.0145999e-05
-2.5680265e-07
1.3685424e-08
1.0376754e-05
-2.1448587e-07
1.3868587e-08
1.0554076e-05
-1.6325518e-07
1.2401447e-08
1.068408e-05
-1.1915374e-07
9.5320979e-09
1.0775997e-05
-8.5163275e-08
5.309535e-09
1.0836606e-05
-6.0524003e-08
2.3379972e-10
1.0875962e-05
-4.4331939e-08
-7.0480418e-09
1.0903234e-05
-3.9494417e-08
-1.5034553e-08
1.0936426e-05
-5.3950975e-08
-2.2602621e-08
1.101107e-05
-1.0611281e-07
-2.4786565e-08
1.118657e-05
-2.2364848e-07
-8.0230087e-09
1.1533505e-05
-4.2102505e-07
4.2689083e-08
1.1906655e-05
-4.5417726e-07
1.2725489e-07
1.2182045e-05
-3.2082914e-07
2.211216e-07
1.2335857e-05
-1.7428795e-07
3.1367898e-07
1.2417763e-05
-1.1868584e-07
4.1321217e-07
1.2474514e-05
-1.6252333e-07
5.2713036e-07
1.2540477e-05
-2.8693011e-07
6.5910709e-07
1.2631733e-05
-4.6351109e-07
8.1589646e-07
1.2735275e-05
-6.5419221e-07
1.0062344e-06
1.2819318e-05
-8.3113713e-07
1.2337436e-06
1.2866864e-05
-9.9365812e-07
1.4841949e-06
1.2891463e-05
-1.1414787e-06
1.7211739e-06
1.2898107e-05
-1.2195009e-06
1.8936203e-06
1.2807861e-05
-1.0901365e-06
1.9328039e-06
1.2394669e-05
-6.0527484e-07
1.7764759e-06
1.1128903e-05
4.2318818e-07
1.3665919e-06
2.7130292e-06
6.4319539e-07
9.2013479e-06
-2.3033544e-07
6.9298936e-09
9.2961344e-06
-3.4547095e-07
1.3280008e-08
9.4273843e-06
-3.6597515e-07
1.6833209e-08
9.6009525e-06
-3.6560801e-07
1.7216434e-08
9.8085158e-06
-3.5021337e-07
1.4563911e-08
1.0034106e-05
-3.2839392e-07
8.7508441e-09
1.0266295e-05
-3.0896897e-07
-3.7327998e-10
1.0501594e-05
-2.9761813e-07
-1.5254888e-08
1.0740313e-05
-3.0112958e-07
-3.5001953e-08
1.0992051e-05
-3.3287013e-07
-6.0591738e-08
1.128448e-05
-4.2221991e-07
-8.9519687e-08
1.1680108e-05
-6.27387e-07
-1.1179351e-07
1.2285413e-05
-1.0265803e-06
-1.0169692e-07
1.3046557e-05
-1.4646554e-06
-2.8040688e-08
1.3671509e-05
-1.416849e-06
7.1663752e-08
1.4043428e-05
-1.0508191e-06
9.8267656e-08
1.4212744e-05
-7.7860502e-07
7.5901396e-08
1.4229322e-05
-7.2074906e-07
2.1399325e-08
1.4119669e-05
-8.2885923e-07
-6.8727112e-08
1.3920418e-05
-1.0483915e-06
-1.9253873e-07
1.3652335e-05
-1.300598e-06
-3.2627288e-07
1.3301771e-05
-1.5216667e-06
-4.1126039e-07
1.2833658e-05
-1.6761528e-06
-4.0576342e-07
1.2255877e-05
-1.7939948e-06
-3.1952943e-07
1.1677319e-05
-1.9374501e-06
-1.8911079e-07
1.1326804e-05
-2.0884291e-06
-1.0328978e-07
1.1337746e-05
-1.9898129e-06
-1.8964411e-07
1.1558336e-05
-1.2734573e-06
-5.5926222e-07
1.1672377e-05
1.1361633e-07
-1.1865569e-06
2.2335555e-06
-1.9454583e-06
9.2620506e-06
-2.1251027e-07
6.9267342e-09
9.2186763e-06
-2.8301441e-07
1.3292978e-08
9.1726776e-06
-2.967536e-07
1.6971636e-08
9.1293831e-06
-2.9791832e-07
1.7404704e-08
9.0959278e-06
-2.9329645e-07
1.4441999e-08
9.0722908e-06
-2.8462041e-07
7.6432407e-09
9.053883e-06
-2.7677574e-07
-4.2440651e-09
9.0363621e-06
-2.7543151e-07
-2.3650417e-08
9.0137617e-06
-2.8827448e-07
-5.2165558e-08
8.9809584e-06
-3.3160311e-07
-9.3484184e-08
8.9392289e-06
-4.4329913e-07
-1.5059645e-07
8.9182389e-06
-7.1602468e-07
-2.1965658e-07
9.0538234e-06
-1.3536127e-06
-2.6847696e-07
9.4041979e-06
-2.1486055e-06
-2.0510438e-07
9.4162373e-06
-1.8347873e-06
-8.0183909e-08
8.8938611e-06
-8.969437e-07
-8.1542656e-08
8.2501545e-06
-5.28448e-07
-1.8714272e-07
7.4747106e-06
-3.3711448e-07
-3.9725851e-07
6.7163688e-06
-4.7057653e-07
-6.822695e-07
5.9482845e-06
-6.7485149e-07
-1.0073969e-06
5.1791772e-06
-8.8551029e-07
-1.2860573e-06
4.4408864e-06
-1.0960914e-06
-1.3916995e-06
3.7513563e-06
-1.3139649e-06
-1.2336154e-06
3.1144024e-06
-1.5637448e-06
-8.4220102e-07
2.7107714e-06
-1.8716154e-06
-4.8452405e-07
2.9309355e-06
-2.2880427e-06
-4.6733104e-07
3.9303972e-06
-2.3744563e-06
-1.0092391e-06
5.2488356e-06
-1.3824805e-06
-1.8328837e-06
6.2241336e-06
3.2186726e-07
-2.6789605e-06
2.5828809e-06
-3.4173258e-06
9.0671355e-06
6.7089159e-09
8.8027523e-06
1.2756444e-08
8.5286184e-06
1.6089282e-08
8.2544306e-06
1.612262e-08
7.9839521e-06
1.2637879e-08
7.7188303e-06
5.1630907e-09
7.4558126e-06
-8.6818755e-09
7.1863755e-06
-3.1336674e-08
6.8919375e-06
-6.7176362e-08
6.5366964e-06
-1.2551651e-07
6.0496207e-06
-2.2423862e-07
5.2750902e-06
-4.0312292e-07
3.8859647e-06
-7.6186113e-07
1.7137076e-06
-1.3137708e-06
-5.2916324e-07
-1.4242184e-06
-2.0469201e-06
-1.2295046e-06
-2.9697722e-06
-1.1032535e-06
-2.8522223e-06
-7.8143376e-07
-2.0943272e-06
-6.7187125e-08
-1.1666497e-06
5.6124981e-07
-3.4946039e-07
1.0026826e-06
2.3442776e-07
1.2666278e-06
5.188613e-07
1.4128354e-06
4.7641511e-07
1.4415947e-06
6.7560799e-08
1.3387318e-06
-6.7045229e-07
7.8937906e-07
-1.0069584e-06
-6.343067e-07
6.8110771e-08
-2.5338916e-06
2.188083e-06
-3.9629672e-06
-4.95152e-06
9.5843748e-06
-3.0908144e-07
1.8412179e-10
9.865156e-06
-2.6984901e-07
4.2881616e-10
1.0135568e-05
-2.5738088e-07
6.6704773e-10
1.0363437e-05
-2.1483326e-07
8.4539125e-10
1.053807e-05
-1.6316991e-07
9.5163167e-10
1.0665155e-05
-1.1853671e-07
9.9795452e-10
1.0753528e-05
-8.4049229e-08
1.001723e-09
1.0811669e-05
-5.8871508e-08
9.7850495e-10
1.0847587e-05
-4.3892825e-08
9.3018865e-10
1.0875028e-05
-4.3482235e-08
9.9343949e-10
1.0920977e-05
-7.0147173e-08
1.5500258e-09
1.1041969e-05
-1.5018794e-07
4.2931194e-09
1.1323068e-05
-3.0227877e-07
1.2937164e-08
1.1754092e-05
-4.2073892e-07
3.2344227e-08
1.2132703e-05
-3.0619456e-07
5.5101149e-08
1.2388114e-05
-1.0913517e-07
7.5420384e-08
1.2552306e-05
5.2408035e-08
9.748509e-08
1.2664997e-05
1.7464772e-07
1.2615679e-07
1.2769278e-05
2.5886857e-07
1.6418644e-07
1.2913806e-05
3.0301538e-07
2.1173901e-07
1.3121204e-05
3.4528083e-07
2.6343763e-07
1.3369404e-05
4.4796041e-07
3.1045984e-07
1.3596542e-05
6.6311859e-07
3.4422588e-07
1.3744706e-05
9.7668909e-07
3.6065331e-07
1.3758708e-05
1.3510267e-06
3.5827705e-07
1.355488e-05
1.7635156e-06
3.3709555e-07
1.298621e-05
2.2069689e-06
2.9875578e-07
1.1793785e-05
2.7338661e-06
2.3996806e-07
9.5624721e-06
3.4458614e-06
1.5644376e-07
4.7535182e-06
6.1148058e-08
9.1970739e-06
-2.3044579e-07
1.915e-10
9.2857368e-06
-3.4571643e-07
4.8667731e-10
9.4106509e-06
-3.6619823e-07
7.3878986e-10
9.5778575e-06
-3.6563971e-07
8.1911449e-10
9.7784195e-06
-3.4984866e-07
6.8430354e-10
9.9957135e-06
-3.2744748e-07
3.72626e-10
1.0218889e-05
-3.0733544e-07
-2.554617e-10
1.0441961e-05
-2.9612828e-07
-1.0622474e-09
1.0667396e-05
-3.0239092e-07
-1.9302607e-09
1.0910432e-05
-3.4470011e-07
-2.4054637e-09
1.1216178e-05
-4.6454669e-07
-8.7752466e-10
1.1690119e-05
-7.4162361e-07
5.6411885e-09
1.2483492e-05
-1.2247786e-06
2.7293785e-08
1.3268548e-05
-1.3001207e-06
6.6393782e-08
1.3823146e-05
-8.7575088e-07
8.6893593e-08
1.4218841e-05
-4.9453719e-07
8.8355792e-08
1.4512631e-05
-2.5666327e-07
9.2546487e-08
1.4735146e-05
-1.2550707e-07
1.0127e-07
1.4875353e-05
-6.1076154e-08
1.1360092e-07
1.5024249e-05
-1.7146731e-07
1.3397125e-07
1.5229852e-05
-3.3608663e-07
1.4541077e-07
1.5516898e-05
-4.0415494e-07
1.4047209e-07
1.5839871e-05
-2.2292898e-07
1.3172418e-07
1.60915e-05
2.4361762e-07
1.2733809e-07
1.6143082e-05
9.5510121e-07
1.152448e-07
1.5876326e-05
1.7969123e-06
8.8803072e-08
1.513995e-05
2.6618608e-06
5.2546695e-08
1.3667719e-05
3.6215971e-06
-9.609966e-09
1.1212245e-05
4.8008536e-06
-1.1312826e-07
6.3908561e-06
-2.3474691e-07
9.257788e-06
-2.125382e-07
1.9387313e-10
9.2080055e-06
-2.8312645e-07
4.8723291e-10
9.154903e-06
-2.9685219e-07
7.2991349e-10
9.1038008e-06
-2.979001e-07
7.6897493e-10
9.0609571e-06
-2.9311271e-07
5.5165025e-10
9.025509e-06
-2.8430163e-07
-5.2605071e-11
8.9915546e-06
-2.7644058e-07
-1.1822035e-09
8.9507368e-06
-2.7611678e-07
-2.8414937e-09
8.8947234e-06
-2.9330768e-07
-5.2319614e-09
8.8153778e-06
-3.5046104e-07
-8.373577e-09
8.7160065e-06
-5.0436391e-07
-1.1403939e-08
8.6711705e-06
-9.0825085e-07
-8.1942419e-09
9.0471535e-06
-1.8845061e-06
1.5351055e-08
9.398618e-06
-1.943255e-06
8.8141903e-08
9.1152131e-06
-7.7521797e-07
1.0400904e-07
8.8244984e-06
-3.6054537e-07
7.6206098e-08
8.3687231e-06
-3.8518937e-08
5.1244908e-08
7.7199128e-06
8.9490282e-08
3.7622175e-08
6.9491132e-06
1.5848707e-09
2.6206675e-08
5.974838e-06
-2.0408686e-07
1.3272675e-11
4.8972249e-06
-5.0751583e-07
-3.5324477e-08
4.0506147e-06
-8.7467834e-07
-7.0106568e-08
3.9222578e-06
-1.2085438e-06
-1.0836327e-07
4.8723921e-06
-1.3474253e-06
-1.8928596e-07
6.7528131e-06
-1.0940763e-06
-3.0706446e-07
8.6691171e-06
-1.4375277e-07
-4.4347288e-07
9.6794512e-06
1.1131866e-06
-4.812303e-07
9.7032989e-06
2.2738457e-06
-5.2486185e-07
8.725289e-06
3.6650314e-06
-5.8217257e-07
5.3391808e-06
-6.3886826e-07
9.0629352e-06
1.8957064e-10
8.7920978e-06
4.689109e-10
8.5106391e-06
6.9728472e-10
8.2281526e-06
7.1054122e-10
7.9472291e-06
4.501361e-10
7.668415e-06
-3.2299019e-10
7.3850579e-06
-1.7638319e-09
7.0817739e-06
-4.1679073e-09
6.7295831e-06
-8.2914864e-09
6.2692311e-06
-1.5623513e-08
5.569801e-06
-2.9169515e-08
4.3127046e-06
-5.4263518e-08
1.7603705e-06
-9.3578643e-08
-1.422538e-06
-6.331495e-08
-3.5968775e-06
-2.1094265e-08
-5.0953747e-06
-8.8389978e-08
-6.0494031e-06
-1.84748e-07
-6.4576456e-06
-2.8098766e-07
-6.1646032e-06
-3.5484303e-07
-5.4285278e-06
-3.7435323e-07
-4.5828993e-06
-3.4631379e-07
-3.8570679e-06
-3.3014564e-07
-3.3108344e-06
-3.3831596e-07
-2.8434461e-06
-3.6874618e-07
-2.1622407e-06
-4.3087164e-07
-9.2257237e-07
-5.8627916e-07
4.0749648e-07
-8.4901836e-07
1.1733337e-06
-1.0251288e-06
1.9609634e-06
-1.0881579e-06
-1.1108694e-06
9.5843826e-06
-3.0907517e-07
-6.1369653e-09
9.8651653e-06
-2.6982066e-07
-1.0518772e-08
1.0135573e-05
-2.5733807e-07
-1.238532e-08
1.0363413e-05
-2.1478986e-07
-1.2185417e-08
1.053796e-05
-1.631525e-07
-1.0424858e-08
1.0664881e-05
-1.185873e-07
-7.3172283e-09
1.0753087e-05
-8.4240197e-08
-2.9457425e-09
1.0810722e-05
-5.9461261e-08
2.8334005e-09
1.0846674e-05
-4.5382695e-08
1.0407669e-08
1.0875791e-05
-4.7270982e-08
1.9232211e-08
1.0928911e-05
-7.957847e-08
2.8169315e-08
1.1071243e-05
-1.7042563e-07
3.2701659e-08
1.1388473e-05
-3.2450985e-07
2.0716715e-08
1.1827818e-05
-3.8268824e-07
-2.4033729e-08
1.2199849e-05
-2.2520506e-07
-9.1910246e-08
1.246809e-05
-2.8484017e-08
-1.6490609e-07
1.2668792e-05
1.4135506e-07
-2.4500062e-07
1.2832171e-05
3.0434318e-07
-3.4184596e-07
1.2992233e-05
4.6589343e-07
-4.618984e-07
1.3176578e-05
6.3730653e-07
-6.0986586e-07
1.3390412e-05
8.3644025e-07
-7.8656441e-07
1.3604615e-05
1.0919281e-06
-9.9510475e-07
1.3768388e-05
1.4136451e-06
-1.2322942e-06
1.3833491e-05
1.7800173e-06
-1.4832676e-06
1.3755271e-05
2.1560398e-06
-1.7181423e-06
1.3461188e-05
2.5232038e-06
-1.8905239e-06
1.2791214e-05
2.9098535e-06
-1.9394819e-06
1.1476124e-05
3.3533425e-06
-1.7963106e-06
9.0823784e-06
3.9271401e-06
-1.374171e-06
5.0242069e-06
-6.5835113e-07
9.1970704e-06
-2.3044152e-07
-6.5413966e-09
9.2857361e-06
-3.4570934e-07
-1.2288073e-08
9.4106303e-06
-3.661968e-07
-1.5294045e-08
9.5777338e-06
-3.6567255e-07
-1.5398226e-08
9.7780469e-06
-3.4997531e-07
-1.280221e-08
9.9949745e-06
-3.277542e-07
-7.3830503e-09
1.021761e-05
-3.0807284e-07
9.4870631e-10
1.0439784e-05
-2.9792263e-07
1.5234857e-08
1.0664765e-05
-3.0671274e-07
3.4434835e-08
1.0910373e-05
-3.5515058e-07
5.990084e-08
1.1230133e-05
-4.894882e-07
8.9359856e-08
1.1746758e-05
-7.9431595e-07
1.1311249e-07
1.2613281e-05
-1.2738489e-06
1.1044257e-07
1.3374708e-05
-1.1359137e-06
5.8221121e-08
1.3933982e-05
-7.0455972e-07
6.7967246e-09
1.4369592e-05
-3.6552336e-07
-1.0493631e-08
1.4707854e-05
-1.2078438e-07
1.5400375e-08
1.4960588e-05
8.382279e-08
6.7966494e-08
1.517288e-05
2.2939941e-07
1.3751454e-07
1.5404219e-05
3.1596975e-07
2.258179e-07
1.5680877e-05
3.9926855e-07
3.1149598e-07
1.5947688e-05
6.1839419e-07
3.5750864e-07
1.6124706e-05
1.0464851e-06
3.3669907e-07
1.6164147e-05
1.633643e-06
2.525183e-07
1.6024844e-05
2.2931046e-06
1.3789763e-07
1.5633473e-05
2.9731664e-06
5.1933881e-08
1.4742762e-05
3.7507324e-06
1.2486013e-07
1.3098458e-05
4.5624003e-06
4.4823962e-07
1.0392298e-05
5.5353447e-06
1.0063982e-06
6.8974515e-06
1.7558772e-06
9.2577827e-06
-2.1253769e-07
-6.5299582e-09
9.2079781e-06
-2.8312695e-07
-1.2288819e-08
9.1547935e-06
-2.9686273e-07
-1.5417763e-08
9.1034441e-06
-2.9794558e-07
-1.560689e-08
9.0601005e-06
-2.9324692e-07
-1.2831258e-08
9.0236587e-06
-2.8461758e-07
-6.745842e-09
8.9878604e-06
-2.771845e-07
3.7294821e-09
8.9433691e-06
-2.7798325e-07
2.1711932e-08
8.8810717e-06
-2.980252e-07
4.837973e-08
8.7923797e-06
-3.6261158e-07
8.7782488e-08
8.685693e-06
-5.3722822e-07
1.4303243e-07
8.6773523e-06
-1.0020626e-06
2.0791588e-07
9.2820492e-06
-2.1093865e-06
2.4600766e-07
9.4908489e-06
-1.4608653e-06
2.0279571e-07
9.3347865e-06
-5.7989514e-07
1.3471905e-07
9.1193108e-06
-2.2954391e-07
1.5600311e-07
8.7677406e-06
4.184753e-08
2.4000284e-07
8.3220084e-06
1.6554372e-07
4.0086646e-07
7.8536493e-06
1.0368697e-07
6.1938075e-07
7.3304888e-06
-6.1072848e-08
9.0031965e-07
6.8678239e-06
-3.0574605e-07
1.1340577e-06
6.7695867e-06
-5.3406889e-07
1.180419e-06
7.2838293e-06
-5.9025106e-07
1.0085031e-06
8.3233178e-06
-3.2670111e-07
7.222586e-07
9.5735767e-06
2.5861762e-07
4.7412481e-07
1.0662565e-05
1.0637582e-06
3.8123622e-07
1.0868781e-05
2.3363502e-06
7.3904269e-07
1.0239765e-05
3.2199281e-06
1.4654998e-06
8.5716709e-06
4.3943214e-06
2.2507209e-06
5.966616e-06
2.9854987e-06
9.0629288e-06
-6.322827e-09
8.7920532e-06
-1.178098e-08
8.5104686e-06
-1.457937e-08
8.2276281e-06
-1.4393058e-08
7.9459879e-06
-1.1155081e-08
7.6655826e-06
-4.5338252e-09
7.3788923e-06
7.7432952e-09
7.0682638e-06
2.8478582e-08
6.7003014e-06
6.1646722e-08
6.2055365e-06
1.1653032e-07
5.4287783e-06
2.1035939e-07
3.9914644e-06
3.8095187e-07
1.0592169e-06
7.2823677e-07
-1.7949123e-06
1.3142909e-06
-3.6837439e-06
1.2848344e-06
-5.0176369e-06
1.0160511e-06
-5.8980119e-06
7.393662e-07
-6.2651789e-06
2.5278387e-07
-6.0669842e-06
-4.4984792e-07
-5.4860593e-06
-1.0176633e-06
-4.7893331e-06
-1.3501339e-06
-4.1436351e-06
-1.5120406e-06
-3.5052003e-06
-1.5707014e-06
-2.6328439e-06
-1.5733858e-06
-1.2483434e-06
-1.5647094e-06
3.9587688e-07
-1.1682005e-06
1.6741354e-06
2.1690048e-07
2.083499e-06
1.7985377e-06
2.477494e-06
2.9351194e-06
3.7563829e-06
9.5874028e-06
-3.0863449e-07
-1.5918644e-08
9.872199e-06
-2.69165e-07
-2.6132972e-08
1.0146222e-05
-2.5667216e-07
-2.9712318e-08
1.0377138e-05
-2.1431324e-07
-2.8758324e-08
1.0554658e-05
-1.6304e-07
-2.486879e-08
1.0684873e-05
-1.1888008e-07
-1.8607524e-08
1.0776915e-05
-8.4856923e-08
-1.007537e-08
1.0838447e-05
-6.0317153e-08
1.6782272e-09
1.0879257e-05
-4.4809419e-08
1.4501763e-08
1.0910052e-05
-4.1684269e-08
3.0252183e-08
1.0951698e-05
-6.0193024e-08
4.6894106e-08
1.1045774e-05
-1.2099206e-07
5.9881541e-08
1.1257794e-05
-2.4894713e-07
5.8062892e-08
1.1624038e-05
-4.1737917e-07
2.7688553e-08
1.198557e-05
-3.9218133e-07
-6.0664952e-08
1.2238051e-05
-2.2897697e-07
-1.8792071e-07
1.2381445e-05
-8.4994322e-08
-3.029171e-07
1.2467973e-05
-3.7594552e-08
-3.9025088e-07
1.2528754e-05
-6.9473268e-08
-4.524116e-07
1.2588475e-05
-1.6794537e-07
-5.0016247e-07
1.2663881e-05
-3.1354263e-07
-5.4581809e-07
1.2745884e-05
-4.7370311e-07
-5.9954569e-07
1.2809275e-05
-6.2540296e-07
-6.6558634e-07
1.2838983e-05
-7.6838951e-07
-7.3977197e-07
1.2842507e-05
-9.0341079e-07
-8.1394967e-07
1.282201e-05
-9.8328941e-07
-8.8303731e-07
1.2688032e-05
-8.6638324e-07