/*--------------------------------*- C++ -*----------------------------------*\
| =========                 |                                                 |
| \\      /  F ield         | OpenFOAM: The Open Source CFD Toolbox           |
|  \\    /   O peration     | Version:  v2012                                 |
|   \\  /    A nd           | Website:  www.openfoam.com                      |
|    \\/     M anipulation  |                                                 |
\*---------------------------------------------------------------------------*/
FoamFile
{
    version     2.0;
    format      ascii;
    class       volScalarField;
    location    "570/topAir";
    object      rho;
}
// * * * * * * * * * * * * * * * * * * * * * * * * * * * * * * * * * * * * * //

dimensions      [1 -3 0 0 0 0 0];


internalField   nonuniform List<scalar> 
1200
(
1.0691347
0.99787201
0.94110437
0.89411656
0.85389626
0.81867784
0.78748965
0.7599991
0.73616133
0.71553704
0.69790179
0.68322915
0.67189388
0.67222609
0.67588636
0.68288314
0.69238299
0.70304565
0.71355083
0.72293836
0.73068606
0.73660045
0.74068678
0.74304547
0.743806
0.74305518
0.74075527
0.73663668
0.72997792
0.71962309
1.1565369
1.1526262
1.1473178
1.1408797
1.1335101
1.1253678
1.116595
1.1064747
1.0928757
1.0751958
1.0510413
1.0197965
0.98221563
0.94469157
0.91088227
0.88308009
0.86166392
0.84618397
0.83599812
0.83033735
0.82808726
0.82789109
0.82847786
0.82882918
0.82816583
0.82579979
0.82094656
0.81248563
0.79844757
0.77743797
1.1585737
1.1584426
1.1581993
1.1578203
1.1572856
1.1565784
1.1556857
1.1545769
1.1531691
1.1513677
1.1488818
1.1407954
1.1199937
1.086093
1.0443207
1.0004548
0.96012399
0.92572701
0.89809971
0.8771903
0.86230105
0.85225784
0.84571238
0.84139697
0.8382413
0.83534983
0.83190927
0.82699381
0.81905944
0.80595069
1.158618
1.1586136
1.1586032
1.1585827
1.1585472
1.1584906
1.158406
1.1582844
1.1581127
1.1578712
1.157511
1.156716
1.1541894
1.1400335
1.1053943
1.0611144
1.0184304
0.97995219
0.9467485
0.91934762
0.89773778
0.88134952
0.86923064
0.86032557
0.85366732
0.84844248
0.84394221
0.83944066
0.83388852
0.82567933
1.0691542
0.99860737
0.94301191
0.8975292
0.85914484
0.82613603
0.79754133
0.77283386
0.75183449
0.73461896
0.7215025
0.71296189
0.70980671
0.72260554
0.74021945
0.76023315
0.7790562
0.79404278
0.80443026
0.81090551
0.81464178
0.81651253
0.81698087
0.81622713
0.81432495
0.81123718
0.80674654
0.80024269
0.7901236
0.77352325
1.1565397
1.152702
1.1475937
1.1415198
1.1347147
1.1273753
1.1196979
1.1118954
1.1042168
1.0969747
1.0905776
1.0855307
1.0824302
1.0820827
1.0835654
1.0844462
1.0821966
1.0763385
1.068066
1.058804
1.0492715
1.0394778
1.0292242
1.0182268
1.006197
0.99290124
0.97829108
0.96255965
0.94545655
0.92337824
1.1585739
1.1584463
1.1582156
1.1578658
1.1573855
1.1567686
1.1560143
1.155129
1.1541282
1.1530426
1.1519243
1.1507634
1.1495911
1.1481892
1.1441587
1.13425
1.1156755
1.091042
1.0652498
1.0423243
1.0230931
1.0048262
0.98719761
0.97013434
0.95419952
0.93841285
0.92194369
0.90500789
0.88761548
0.86963597
1.158618
1.1586138
1.158604
1.1585855
1.1585546
1.158507
1.1584385
1.1583444
1.15822
1.1580602
1.1578574
1.1575731
1.1569561
1.1539407
1.1414738
1.1144911
1.0790156
1.0376821
0.9978495
0.96323317
0.93551398
0.91521087
0.8995092
0.8868036
0.87608695
0.86750357
0.86059353
0.85460897
0.84872517
0.84146364
1.0691615
0.99849133
0.94275306
0.89711748
0.85855738
0.82532844
0.79638214
0.77104897
0.74896625
0.73002825
0.71441486
0.70267289
0.69609543
0.70685512
0.72285802
0.7412538
0.75953315
0.77666032
0.79224246
0.80604766
0.81792705
0.8276506
0.83484596
0.83916455
0.84048003
0.83896326
0.83490494
0.82837173
0.8178983
0.79985776
1.1565395
1.1526891
1.1475574
1.1414533
1.134609
1.1272123
1.1194348
1.1114526
1.1034783
1.0957925
1.0888156
1.0832034
1.0799083
1.0799233
1.0813227
1.0811675
1.0788672
1.0749827
1.0696307
1.0628147
1.0544548
1.044208
1.0316653
1.0166863
0.99944072
0.98012809
0.95887593
0.93637338
0.91351575
0.88872648
1.1585739
1.1584457
1.1582138
1.1578621
1.15738
1.1567611
1.1560042
1.1551142
1.1541053
1.1530082
1.1518853
1.1508519
1.150017
1.1482401
1.1401309
1.1243587
1.1079656
1.0944263
1.0812304
1.0671605
1.0513954
1.0326242
1.0104835
0.98598359
0.96065483
0.93610479
0.91329438
0.89307472
0.87283171
0.85012434
1.158618
1.1586138
1.1586039
1.1585853
1.1585543
1.1585069
1.1584388
1.1583457
1.1582232
1.1580676
1.1578743
1.1576158
1.1568547
1.150243
1.1198946
1.0716885
1.0424615
1.0370545
1.0156622
0.98613228
0.95853016
0.93630326
0.91853333
0.90394476
0.89152946
0.88099449
0.87206546
0.86394018
0.84806788
0.82703106
1.0691565
0.99843881
0.94260453
0.89682139
0.85803394
0.82445061
0.79495622
0.76881078
0.74550956
0.72478404
0.7066556
0.69162512
0.68103349
0.68665341
0.69224303
0.69490043
0.69484001
0.6938213
0.69352847
0.69506314
0.6988915
0.70479869
0.71216127
0.72036845
0.72877051
0.73606096
0.73980596
0.73668482
0.7252684
0.7092469
1.1565392
1.1526836
1.1475357
1.1413988
1.1344964
1.1269999
1.1190551
1.1108006
1.1023971
1.0940811
1.0862809
1.0797981
1.0757917
1.0741428
1.0710907
1.0661713
1.0604303
1.0545817
1.0487585
1.0426233
1.0354277
1.0262635
1.0145534
1.0003651
0.98397622
0.965407
0.94539203
0.92396887
0.8927813
0.83270657
1.1585739
1.1584454
1.1582126
1.1578585
1.1573716
1.1567438
1.1559712
1.1550546
1.1540033
1.1528445
1.1516478
1.1505629
1.1495085
1.1437112
1.1262682
1.1105917
1.0999689
1.0921266
1.0830833
1.0703094
1.0522847
1.0283822
1.0002614
0.97093172
0.94181208
0.91372651
0.89070565
0.87187919
0.85152158
0.82282946
1.158618
1.1586138
1.1586039
1.1585851
1.1585537
1.1585056
1.1584359
1.15834
1.1582125
1.1580481
1.1578371
1.157485
1.1553629
1.1310697
1.0570794
0.99743867
0.99189922
0.99344349
0.99564036
0.98078909
0.96082686
0.94107769
0.92366319
0.90907671
0.89445025
0.87773656
0.86246075
0.84556943
0.82425729
0.80386873
1.0691539
0.99842017
0.94255878
0.89674144
0.85791211
0.82427755
0.79472222
0.76850522
0.74515702
0.72447034
0.7066233
0.69241758
0.68325508
0.69050521
0.69456185
0.6941711
0.69099685
0.68640585
0.68114056
0.67577986
0.67084113
0.66677713
0.66393583
0.66251199
0.66246662
0.66338821
0.66431065
0.66369123
0.65964398
0.65025816
1.1565391
1.1526813
1.1475268
1.1413775
1.1344553
1.1269301
1.1189455
1.110642
1.1021911
1.0938745
1.0862443
1.0803387
1.0771911
1.0737468
1.0682725
1.0617394
1.0529294
1.0398604
1.0244629
1.0087238
0.99260178
0.97373359
0.94938075
0.91995494
0.88782563
0.85501964
0.82288711
0.79139156
0.75900211
0.72261781
1.1585738
1.1584453
1.158212
1.1578568
1.1573677
1.1567361
1.1559574
1.155032
1.1539697
1.1528038
1.1516259
1.1506137
1.14892
1.1331948
1.116642
1.1060252
1.1004011
1.0949322
1.08835
1.0764792
1.0567545
1.0282946
0.99590291
0.96562705
0.93963725
0.91590692
0.888198
0.85583244
0.81791509
0.77319898
1.158618
1.1586137
1.1586038
1.158585
1.1585534
1.1585048
1.1584343
1.1583368
1.1582066
1.1580368
1.1578099
1.1572783
1.1517997
1.0763282
0.98562836
0.96970056
0.96278935
0.95724119
0.95045558
0.94465187
0.9353647
0.92403461
0.91252124
0.90200326
0.89264288
0.88464743
0.877136
0.85377308
0.82237602
0.78455771
1.0691514
0.99841551
0.94255207
0.89673253
0.85790086
0.82426357
0.79470845
0.76850197
0.74518591
0.72458485
0.70694881
0.6931746
0.68442864
0.69080213
0.69326953
0.69147308
0.6884197
0.68389192
0.67861383
0.67314275
0.66798023
0.66357795
0.66028914
0.65831705
0.65765074
0.65793975
0.65831366
0.6573087
0.65311844
0.64382881
1.156539
1.1526812
1.1475265
1.141377
1.1344547
1.1269296
1.1189465
1.1106493
1.102218
1.0939577
1.0864757
1.0808801
1.0779182
1.0735452
1.0675045
1.0605616
1.0480394
1.0304066
1.0091447
0.98507208
0.95868011
0.93004232
0.89947756
0.86809366
0.83743182
0.80870802
0.78220405
0.75720363
0.73198949
0.70301701
1.1585738
1.1584453
1.158212
1.1578568
1.1573676
1.156736
1.1559573
1.1550323
1.1539718
1.1528127
1.151657
1.1506752
1.1483826
1.1304135
1.1166074
1.1081359
1.1029148
1.0963972
1.0875143
1.0750931
1.055606
1.0280415
0.99489572
0.96120584
0.92845313
0.89565889
0.8628574
0.82914992
0.79316663
0.75255496
1.158618
1.1586137
1.1586038
1.158585
1.1585534
1.1585048
1.1584343
1.1583366
1.1582061
1.1580353
1.1578
1.1571149
1.1488778
1.0457904
0.98307732
0.97125092
0.96516345
0.95902735
0.95100536
0.94134779
0.93064511
0.91911363
0.90808663
0.89871612
0.89149396
0.88399659
0.86699303
0.8428471
0.81071314
0.77305579
1.069151
0.99842863
0.94258967
0.89680141
0.85800773
0.82441516
0.79491333
0.76876934
0.74549611
0.72484869
0.70689958
0.69224285
0.68221618
0.68768122
0.69202472
0.69304103
0.6915652
0.68944478
0.68809803
0.6885581
0.69136559
0.69637488
0.70297639
0.71049833
0.71824216
0.72499022
0.72832617
0.72502679
0.71487533
0.69979161
1.1565391
1.1526833
1.147535
1.1413979
1.1344954
1.1269991
1.1190558
1.1108069
1.1024214
1.0941554
1.0864809
1.0802712
1.0766267
1.0744541
1.0704642
1.0650229
1.0589586
1.0527532
1.0464257
1.0395976
1.0315165
1.0213863
1.0088692
0.99423319
0.97786172
0.95963966
0.93942629
0.91727721
0.88162407
0.82017277
1.1585738
1.1584454
1.1582126
1.1578585
1.1573716
1.1567438
1.1559713
1.155055
1.1540053
1.1528524
1.1516745
1.1506302
1.1494065
1.1409261
1.1234257
1.1103208
1.1016019
1.0942634
1.0849343
1.0715371
1.0528206
1.0282395
0.99911295
0.96824589
0.93790145
0.90896873
0.88427856
0.86292498
0.84158615
0.81214706
1.158618
1.1586138
1.1586039
1.1585851
1.1585537
1.1585055
1.1584359
1.1583398
1.158212
1.1580468
1.157832
1.1574189
1.1542172
1.1175775
1.0376391
0.99716035
0.99397959
0.99437228
0.9906101
0.97330935
0.95372591
0.93568867
0.9192417
0.90515708
0.89181207
0.8761739
0.85954927
0.83997299
0.81829936
0.7917832
1.0691565
0.9984817
0.94273849
0.89709695
0.8585288
0.82529142
0.79633919
0.77101062
0.74895086
0.73006747
0.71457373
0.70308185
0.69695049
0.70802584
0.72360982
0.74083227
0.75770843
0.77364582
0.78843916
0.80191158
0.81389266
0.82399043
0.83157093
0.83605725
0.83723611
0.83533774
0.83078046
0.82369646
0.81248098
0.7935946
1.1565394
1.1526888
1.147557
1.1414529
1.1346088
1.1272127
1.1194368
1.1114592
1.1034979
1.0958446
1.0889465
1.0835077
1.0805058
1.0805816
1.081289
1.0803294
1.077552
1.0734404
1.067962
1.0610581
1.0525242
1.0418591
1.028579
1.0126289
0.99444379
0.97454537
0.95323495
0.93117072
0.90834546
0.8822436
1.1585739
1.1584457
1.1582138
1.1578621
1.15738
1.1567612
1.1560043
1.1551144
1.1541063
1.1530124
1.1519002
1.1508942
1.1500519
1.1474211
1.1372776
1.1213271
1.1061297
1.093417
1.0804379
1.0664986
1.0504712
1.0307866
1.0071606
0.98097289
0.95440341
0.92955139
0.90749155
0.8882836
0.86836452
0.84451528
1.158618
1.1586138
1.1586039
1.1585853
1.1585543
1.1585069
1.1584387
1.1583454
1.1582226
1.1580663
1.1578712
1.1575936
1.1565126
1.1460925
1.1079657
1.062923
1.0381768
1.0352825
1.0101006
0.97925166
0.95245956
0.93137018
0.91449097
0.90052834
0.8886325
0.8786147
0.8701304
0.86238292
0.84683891
0.81787849
1.0691521
0.99860248
0.94300419
0.89751879
0.85913276
0.82612663
0.79754261
0.77285377
0.75188241
0.7347043
0.72164141
0.71320581
0.71027905
0.72340662
0.74132573
0.7613614
0.77985046
0.7942569
0.80403294
0.81007188
0.81358334
0.81541869
0.81595436
0.81524827
0.8132642
0.80990872
0.80496405
0.7978066
0.78669616
0.76909398
1.1565396
1.152702
1.1475938
1.1415206
1.134717
1.12738
1.1197065
1.11191
1.1042389
1.0970079
1.0906356
1.0856549
1.0827034
1.082562
1.084084
1.084689
1.0819858
1.0756809
1.0670799
1.0576058
1.0478124
1.037668
1.0269369
1.0153463
1.0026926
0.98886998
0.9739398
0.95816838
0.94134883
0.91894115
1.1585739
1.1584463
1.1582157
1.1578658
1.1573857
1.1567689
1.1560146
1.1551293
1.1541281
1.1530419
1.1519246
1.1507781
1.1496286
1.1481944
1.1436961
1.1329359
1.1137988
1.0889319
1.063268
1.0410434
1.0216389
1.0031892
0.98541617
0.96820494
0.95198127
0.9356916
0.91893132
0.90201087
0.88486199
0.86698005
1.158618
1.1586138
1.158604
1.1585855
1.1585546
1.158507
1.1584384
1.1583441
1.1582193
1.1580588
1.1578552
1.1575716
1.1569407
1.1536247
1.1397349
1.1124657
1.0775997
1.0358162
0.99497078
0.95984723
0.93276895
0.91281814
0.89724965
0.88454815
0.87384844
0.8655261
0.85875825
0.85284377
0.8469964
0.83964763
1.0691334
0.9978689
0.94109959
0.89411145
0.85389366
0.81868281
0.7875074
0.76002895
0.73620669
0.71559922
0.69798041
0.68332852
0.67202642
0.67236441
0.67601905
0.68294625
0.69228423
0.70270371
0.71292667
0.72204891
0.72958173
0.73534593
0.73933397
0.74160802
0.7422484
0.74130263
0.73871544
0.73420699
0.72702333
0.71606327
1.1565368
1.1526262
1.1473182
1.1408811
1.1335134
1.1253743
1.1166071
1.1065479
1.092969
1.0752381
1.0511075
1.0201567
0.98317222
0.94619897
0.91256537
0.88449146
0.86250273
0.84636941
0.83562804
0.82957787
0.827057
0.82666277
0.82708815
0.82728564
0.82645877
0.82391577
0.81886712
0.81013046
0.7955756
0.77366708
1.1585737
1.1584426
1.1581994
1.1578205
1.1572859
1.1565788
1.1556862
1.1545783
1.1531699
1.1513648
1.148893
1.1412024
1.1217308
1.0890962
1.0481234
1.0044939
0.96363103
0.92827437
0.89961489
0.8778308
0.86229016
0.85179314
0.84493488
0.84038792
0.83703288
0.83394032
0.83027081
0.82504583
0.81659203
0.80261142
1.158618
1.1586136
1.1586032
1.1585827
1.1585472
1.1584906
1.1584059
1.158284
1.1581118
1.1578695
1.1575104
1.156743
1.1543834
1.141995
1.1088793
1.0647786
1.0214832
0.98194777
0.94761659
0.91930451
0.89709602
0.88036304
0.86805752
0.85904947
0.85232175
0.84702737
0.84242964
0.83776371
0.83188561
0.82304011
)
;

boundaryField
{
    maxY
    {
        type            calculated;
        value           nonuniform List<scalar> 
300
(
1.1586174
1.1586174
1.1586174
1.1586174
1.1586174
1.1586174
1.1586174
1.1586174
1.1586174
1.1586174
1.1586131
1.1586133
1.1586132
1.1586132
1.1586132
1.1586132
1.1586132
1.1586132
1.1586133
1.1586131
1.1586026
1.1586035
1.1586034
1.1586034
1.1586033
1.1586033
1.1586034
1.1586034
1.1586035
1.1586026
1.1585821
1.158585
1.1585848
1.1585846
1.1585845
1.1585845
1.1585846
1.1585848
1.158585
1.1585821
1.1585466
1.158554
1.1585538
1.1585532
1.1585529
1.1585529
1.1585532
1.1585538
1.158554
1.1585466
1.1584901
1.1585065
1.1585064
1.158505
1.1585043
1.1585042
1.158505
1.1585064
1.1585065
1.1584901
1.1584055
1.158438
1.1584383
1.1584354
1.1584338
1.1584337
1.1584353
1.1584382
1.1584379
1.1584054
1.1582838
1.1583438
1.1583451
1.1583395
1.1583363
1.1583361
1.1583392
1.1583449
1.1583436
1.1582835
1.1581121
1.1582194
1.1582227
1.158212
1.158206
1.1582055
1.1582115
1.1582221
1.1582187
1.1581113
1.1578706
1.1580597
1.1580671
1.1580476
1.1580363
1.1580348
1.1580463
1.1580658
1.1580583
1.157869
1.1575104
1.1578569
1.1578738
1.1578366
1.1578093
1.1577995
1.1578315
1.1578706
1.1578547
1.1575099
1.1567154
1.1575726
1.1576153
1.1574845
1.1572778
1.1571144
1.1574184
1.1575931
1.1575711
1.1567425
1.1541889
1.1569556
1.1568542
1.1553624
1.1517992
1.1488772
1.1542166
1.1565121
1.1569401
1.1543829
1.140033
1.1539402
1.1502425
1.1310692
1.0763277
1.0457899
1.117577
1.146092
1.1536242
1.1419945
1.1053938
1.1414733
1.1198941
1.057079
0.98562798
0.98307694
1.0376387
1.1079652
1.1397344
1.1088788
1.0611139
1.1144906
1.0716881
0.99743828
0.9697002
0.97125055
0.99715996
1.0629226
1.1124653
1.0647782
1.01843
1.0790152
1.0424611
0.99189884
0.96278899
0.96516308
0.9939792
1.0381764
1.0775992
1.0214828
0.97995181
1.0376817
1.0370541
0.9934431
0.95724083
0.95902699
0.99437189
1.035282
1.0358157
0.98194739
0.94674815
0.99784911
1.0156618
0.99563997
0.95045523
0.95100501
0.99060972
1.0101002
0.9949704
0.94761624
0.91934729
0.9632328
0.9861319
0.98078871
0.94465152
0.94134745
0.97330898
0.97925129
0.95984687
0.91930418
0.89773746
0.93551364
0.9585298
0.9608265
0.93536436
0.93064477
0.95372555
0.9524592
0.93276861
0.8970957
0.88134921
0.91521054
0.93630291
0.94107735
0.92403427
0.9191133
0.93568833
0.93136984
0.91281781
0.88036274
0.86923034
0.89950888
0.918533
0.92366286
0.91252091
0.90808631
0.91924137
0.91449064
0.89724933
0.86805722
0.86032527
0.8868033
0.90394444
0.90907638
0.90200294
0.8987158
0.90515676
0.90052802
0.88454784
0.85904918
0.85366703
0.87608665
0.89152914
0.89444994
0.89264257
0.89149364
0.89181176
0.88863219
0.87384814
0.85232147
0.8484422
0.86750328
0.88099418
0.87773626
0.88464712
0.88399628
0.8761736
0.87861439
0.8655258
0.84702709
0.84394193
0.86059324
0.87206517
0.86246046
0.87713569
0.86699273
0.85954898
0.87013011
0.85875796
0.84242936
0.83944039
0.85460868
0.86393989
0.84556914
0.85377279
0.84284682
0.83997272
0.86238262
0.85284348
0.83776343
0.83388825
0.84872489
0.8480676
0.82425702
0.82237575
0.81071288
0.8182991
0.84683863
0.84699611
0.83188534
0.82567906
0.84146336
0.82703079
0.80386848
0.78455747
0.77305555
0.79178295
0.81787823
0.83964735
0.82303985
)
;
    }
    minX
    {
        type            calculated;
        value           nonuniform List<scalar> 
40
(
1.1586222
1.1586212
1.1586201
1.1586191
1.1586222
1.1586212
1.1586201
1.1586191
1.1586222
1.1586212
1.1586201
1.1586191
1.1586222
1.1586212
1.1586201
1.1586191
1.1586222
1.1586212
1.1586201
1.1586191
1.1586222
1.1586212
1.1586201
1.1586191
1.1586222
1.1586212
1.1586201
1.1586191
1.1586222
1.1586212
1.1586201
1.1586191
1.1586222
1.1586212
1.1586201
1.1586191
1.1586222
1.1586212
1.1586201
1.1586191
)
;
    }
    maxX
    {
        type            calculated;
        value           nonuniform List<scalar> 
40
(
0.71976834
0.77769294
0.80608929
0.82573804
0.77388506
0.92357351
0.86956625
0.84102587
0.80087094
0.88764264
0.84830524
0.82600058
0.70926604
0.83351206
0.82246778
0.80333104
0.65031741
0.7222039
0.77282316
0.78444561
0.64394323
0.7035404
0.75325927
0.77390241
0.69995798
0.82029773
0.8125026
0.79260676
0.79344893
0.88248515
0.84498981
0.81871682
0.7689861
0.91898676
0.86705878
0.83975679
0.71602364
0.77360781
0.80254629
0.82299595
)
;
    }
    minZ
    {
        type            calculated;
        value           nonuniform List<scalar> 
120
(
1.0691347
1.1565369
1.1585737
1.158618
0.99787201
1.1526262
1.1584426
1.1586136
0.94110437
1.1473178
1.1581993
1.1586032
0.89411656
1.1408797
1.1578203
1.1585827
0.85389626
1.1335101
1.1572856
1.1585472
0.81867784
1.1253678
1.1565784
1.1584906
0.78748965
1.116595
1.1556857
1.158406
0.7599991
1.1064747
1.1545769
1.1582844
0.73616133
1.0928757
1.1531691
1.1581127
0.71553704
1.0751958
1.1513677
1.1578712
0.69790179
1.0510413
1.1488818
1.157511
0.68322915
1.0197965
1.1407954
1.156716
0.67189388
0.98221563
1.1199937
1.1541894
0.67222609
0.94469157
1.086093
1.1400335
0.67588636
0.91088227
1.0443207
1.1053943
0.68288314
0.88308009
1.0004548
1.0611144
0.69238299
0.86166392
0.96012399
1.0184304
0.70304565
0.84618397
0.92572701
0.97995219
0.71355083
0.83599812
0.89809971
0.9467485
0.72293836
0.83033735
0.8771903
0.91934762
0.73068606
0.82808726
0.86230105
0.89773778
0.73660045
0.82789109
0.85225784
0.88134952
0.74068678
0.82847786
0.84571238
0.86923064
0.74304547
0.82882918
0.84139697
0.86032557
0.743806
0.82816583
0.8382413
0.85366732
0.74305518
0.82579979
0.83534983
0.84844248
0.74075527
0.82094656
0.83190927
0.84394221
0.73663668
0.81248563
0.82699381
0.83944066
0.72997792
0.79844757
0.81905944
0.83388852
0.71962309
0.77743797
0.80595069
0.82567933
)
;
    }
    maxZ
    {
        type            calculated;
        value           nonuniform List<scalar> 
120
(
1.0691334
1.1565368
1.1585737
1.158618
0.9978689
1.1526262
1.1584426
1.1586136
0.94109959
1.1473182
1.1581994
1.1586032
0.89411145
1.1408811
1.1578205
1.1585827
0.85389366
1.1335134
1.1572859
1.1585472
0.81868281
1.1253743
1.1565788
1.1584906
0.7875074
1.1166071
1.1556862
1.1584059
0.76002895
1.1065479
1.1545783
1.158284
0.73620669
1.092969
1.1531699
1.1581118
0.71559922
1.0752381
1.1513648
1.1578695
0.69798041
1.0511075
1.148893
1.1575104
0.68332852
1.0201567
1.1412024
1.156743
0.67202642
0.98317222
1.1217308
1.1543834
0.67236441
0.94619897
1.0890962
1.141995
0.67601905
0.91256537
1.0481234
1.1088793
0.68294625
0.88449146
1.0044939
1.0647786
0.69228423
0.86250273
0.96363103
1.0214832
0.70270371
0.84636941
0.92827437
0.98194777
0.71292667
0.83562804
0.89961489
0.94761659
0.72204891
0.82957787
0.8778308
0.91930451
0.72958173
0.827057
0.86229016
0.89709602
0.73534593
0.82666277
0.85179314
0.88036304
0.73933397
0.82708815
0.84493488
0.86805752
0.74160802
0.82728564
0.84038792
0.85904947
0.7422484
0.82645877
0.83703288
0.85232175
0.74130263
0.82391577
0.83394032
0.84702737
0.73871544
0.81886712
0.83027081
0.84242964
0.73420699
0.81013046
0.82504583
0.83776371
0.72702333
0.7955756
0.81659203
0.83188561
0.71606327
0.77366708
0.80261142
0.82304011
)
;
    }
    topAir_to_rightSolid
    {
        type            calculated;
        value           nonuniform List<scalar> 
130
(
0.46146622
0.45657816
0.45158335
0.44677375
0.44230701
0.43828786
0.43476941
0.43177834
0.42931341
0.42733703
0.42584935
0.42485523
0.42435736
0.46518973
0.45940081
0.45364512
0.44823549
0.44332611
0.43899066
0.43525215
0.43210811
0.42952954
0.42748017
0.42595418
0.4249429
0.42443728
0.47268376
0.46478228
0.45737524
0.4507659
0.44502424
0.44012365
0.4360067
0.4326017
0.42984123
0.42768193
0.42609083
0.42504213
0.42451808
0.48420903
0.47216365
0.46202272
0.4536866
0.44686477
0.4412858
0.43673601
0.43305104
0.4301128
0.42784258
0.42618538
0.42509819
0.4245591
0.49849365
0.47933105
0.46585643
0.45583418
0.4481092
0.44202303
0.43717612
0.43331272
0.43026613
0.42793048
0.42623366
0.42512658
0.42457921
0.49835808
0.47920838
0.46576007
0.45575799
0.44804846
0.44197552
0.4371389
0.43328524
0.43024774
0.42791844
0.42622517
0.42512058
0.42457372
0.48385433
0.47186779
0.46178303
0.45349145
0.44670877
0.44116076
0.43663506
0.43297359
0.43005898
0.42780268
0.42615249
0.42506977
0.42453283
0.47222056
0.46439286
0.45706922
0.45053106
0.4448408
0.43997464
0.43587771
0.43248986
0.42975086
0.42760291
0.42601821
0.42497379
0.42445361
0.46473288
0.45900515
0.45333525
0.44799582
0.44314196
0.4388476
0.43513535
0.43200042
0.42942137
0.42737869
0.4258602
0.42485304
0.42434765
0.46108406
0.45624389
0.45132904
0.44657627
0.44215328
0.43816446
0.43466602
0.43167977
0.42920611
0.42723135
0.42575499
0.42477217
0.4242792
)
;
    }
    topAir_to_heater
    {
        type            calculated;
        value           nonuniform List<scalar> 
40
(
0.47336018
0.47206227
0.46954827
0.46591215
0.47963249
0.47808275
0.47501063
0.47056922
0.49320872
0.49106449
0.48672754
0.48038155
0.51688021
0.51386317
0.50741763
0.49733277
0.55559825
0.55237367
0.54413038
0.52825304
0.55549228
0.55225082
0.54399647
0.52811577
0.51656437
0.51349207
0.50701872
0.49693611
0.4929418
0.49069826
0.48625476
0.4798822
0.47945344
0.47778496
0.47457662
0.47009209
0.47328607
0.47189403
0.46923375
0.46552832
)
;
    }
    topAir_to_leftSolid
    {
        type            calculated;
        value           nonuniform List<scalar> 
130
(
0.37883859
0.37885299
0.37888658
0.37893806
0.37900735
0.37908575
0.3791729
0.37926416
0.37935876
0.37945539
0.37954839
0.37961346
0.37964667
0.37883479
0.37884956
0.37888499
0.37894215
0.37902024
0.37911083
0.37921069
0.37931629
0.37942524
0.37953206
0.37963441
0.37970866
0.37974785
0.37882452
0.37883934
0.37887654
0.3789403
0.37903421
0.37914528
0.37926436
0.37938804
0.37951183
0.37962907
0.37973668
0.37982355
0.37987357
0.37880667
0.37882122
0.37885826
0.37892227
0.37901774
0.3791486
0.37928538
0.37942585
0.37956966
0.37970788
0.37983026
0.37992626
0.37998529
0.37879031
0.37880458
0.37884093
0.3789042
0.37899954
0.37913236
0.37927547
0.37942882
0.37958997
0.37975507
0.37990397
0.3800209
0.38009652
0.37878258
0.37879586
0.37883019
0.37889018
0.37898052
0.37910256
0.37924176
0.3794019
0.37958116
0.37976898
0.37994101
0.38007218
0.38015401
0.37879027
0.37880152
0.3788323
0.37888702
0.37896845
0.37907185
0.3791996
0.37935553
0.37954413
0.37974044
0.37992107
0.38006363
0.38014632
0.37880953
0.37881905
0.37884603
0.37889427
0.37896382
0.37905467
0.37917047
0.37931464
0.37949148
0.3796705
0.37984899
0.38000396
0.38008797
0.37882912
0.37883763
0.3788622
0.37890477
0.37896709
0.37905057
0.37915743
0.37928979
0.37943963
0.37959914
0.37976425
0.37992184
0.38001205
0.3788356
0.37884383
0.378868
0.37890926
0.37897026
0.37905111
0.37915083
0.37927001
0.37940553
0.37955164
0.37970366
0.37985278
0.37995011
)
;
    }
}


// ************************************************************************* //
