/*--------------------------------*- C++ -*----------------------------------*\
| =========                 |                                                 |
| \\      /  F ield         | OpenFOAM: The Open Source CFD Toolbox           |
|  \\    /   O peration     | Version:  v2012                                 |
|   \\  /    A nd           | Website:  www.openfoam.com                      |
|    \\/     M anipulation  |                                                 |
\*---------------------------------------------------------------------------*/
FoamFile
{
    version     2.0;
    format      ascii;
    class       volScalarField;
    location    "570/topAir";
    object      T;
}
// * * * * * * * * * * * * * * * * * * * * * * * * * * * * * * * * * * * * * //

dimensions      [0 0 0 1 0 0 0];


internalField   nonuniform List<scalar> 
1200
(
325.11026
348.32788
369.3391
388.74868
407.05955
424.57069
441.38562
457.35133
472.1609
485.77022
498.04511
508.74084
517.3236
517.06793
514.26772
508.99856
502.01483
494.40107
487.12229
480.79689
475.69884
471.8793
469.27596
467.78631
467.308
467.78019
469.23255
471.85606
476.16026
483.01186
300.54066
301.56034
302.95559
304.6652
306.64602
308.86468
311.29134
314.13853
318.04746
323.27725
330.70666
340.83892
353.87986
367.9363
381.59301
393.60677
403.38963
410.76917
415.774
418.6085
419.74595
419.84541
419.54805
419.37021
419.70612
420.90863
423.39694
427.80603
435.32759
447.09195
300.01202
300.04597
300.10899
300.20723
300.34594
300.52959
300.76174
301.05058
301.41809
301.88969
302.5429
304.68745
310.34642
320.0334
332.83455
347.428
362.02201
375.47356
387.02386
396.24927
403.09126
407.84138
410.9979
413.10586
414.66105
416.09635
417.81722
420.30063
424.37215
431.27455
300.00029
300.00141
300.00412
300.00943
300.01862
300.03326
300.05518
300.08669
300.13118
300.19378
300.28719
300.49358
301.15137
304.8908
314.44502
327.56671
341.29554
354.69665
367.13632
378.07872
387.17963
394.37905
399.87752
404.01658
407.16775
409.67515
411.85971
414.06834
416.82526
420.96947
325.10432
348.07138
368.59199
387.27055
404.57279
420.73775
435.82269
449.75592
462.31797
473.15222
481.75382
487.52477
489.69187
481.01841
469.57232
457.21048
446.16364
437.74285
432.09033
428.64
426.67408
425.6965
425.45246
425.84533
426.84006
428.46471
430.84968
434.35135
439.91406
449.35492
300.53993
301.5405
302.88277
304.49437
306.32047
308.31467
310.42867
312.60706
314.78088
316.85904
318.71765
320.19947
321.11661
321.21974
320.7802
320.51963
321.18591
322.934
325.43522
328.282
331.26439
334.38548
337.71676
341.36427
345.44554
350.07133
355.29941
361.10618
367.6385
376.42885
300.01197
300.04502
300.10477
300.19546
300.32001
300.48018
300.67626
300.90668
301.16761
301.45118
301.74382
302.04823
302.35623
302.7254
303.79178
306.44569
311.54758
318.58169
326.29528
333.47201
339.74031
345.91653
352.09363
358.28645
364.26972
370.39773
377.01434
384.06957
391.59523
399.69136
300.00029
300.00137
300.0039
300.00869
300.01671
300.02901
300.04676
300.07115
300.10338
300.14477
300.19735
300.27107
300.4312
301.21626
304.50609
311.87841
322.13223
334.96358
348.33482
360.85316
371.54521
379.7876
386.41711
391.95347
396.74801
400.67358
403.89075
406.71908
409.53867
413.07284
325.1021
348.11183
368.69319
387.44829
404.84961
421.14945
436.45706
450.79705
464.08847
476.12759
486.53325
494.66343
499.33753
491.73666
480.8504
468.91707
457.63185
447.53999
438.73759
431.22331
424.96032
419.96772
416.3481
414.20544
413.55714
414.3048
416.31865
419.60207
424.97518
434.56035
300.53997
301.54389
302.89234
304.51212
306.34902
308.35927
310.50164
312.73159
314.99154
317.20088
319.23342
320.8874
321.86652
321.86206
321.44551
321.49165
322.1771
323.34131
324.95916
327.04317
329.63601
332.87073
336.91767
341.88154
347.78077
354.63351
362.49346
371.20475
380.49288
391.10595
300.01198
300.04517
300.10525
300.1964
300.32146
300.48213
300.67887
300.91054
301.1736
301.46015
301.75403
302.025
302.24427
302.71198
304.86501
309.14156
313.71554
317.59655
321.47264
325.71108
330.59495
336.60456
343.9799
352.52717
361.82195
371.311
380.58485
389.20149
398.22798
408.8649
300.00029
300.00137
300.00392
300.00873
300.01676
300.02905
300.04668
300.07081
300.10254
300.14286
300.19296
300.26001
300.45755
302.1846
310.37359
324.33465
333.42788
335.16629
342.22571
352.47373
362.62368
371.23201
378.41386
384.52101
389.8758
394.53796
398.57762
402.32621
409.85609
420.28143
325.10363
348.13014
368.75129
387.5762
405.09659
421.59786
437.23994
452.10943
466.24029
479.57264
491.87551
502.565
510.38103
506.2038
502.11638
500.1962
500.23969
500.97416
501.18568
500.07907
497.33975
493.17135
488.07276
482.51212
476.94919
472.22515
469.83467
471.82522
479.2522
490.07825
300.54005
301.54532
302.89807
304.52664
306.37943
308.41737
310.607
312.91516
315.30048
317.69704
319.97832
321.89939
323.09816
323.59414
324.51624
326.01357
327.77856
329.59636
331.42646
333.37669
335.69344
338.69106
342.60027
347.45941
353.24662
360.04117
367.66362
376.18827
389.32966
417.41743
300.01198
300.04524
300.10556
300.19733
300.32363
300.48661
300.68745
300.92606
301.2002
301.50297
301.81626
302.10087
302.37795
303.91065
308.61745
312.97372
315.99622
318.2653
320.92271
324.75282
330.31558
337.99301
347.49517
357.99223
369.06089
380.40486
390.23667
398.66304
408.19401
422.42777
300.00029
300.00138
300.00393
300.00879
300.01692
300.0294
300.04743
300.07228
300.1053
300.14792
300.20262
300.29394
300.84548
307.30708
328.81704
348.47829
350.42443
349.87971
349.10771
354.39396
361.75689
369.34862
376.31223
382.35031
388.60268
396.00239
403.01634
411.06712
421.69575
432.39126
325.10441
348.13664
368.76919
387.61076
405.15412
421.68638
437.36868
452.28919
466.46088
479.7803
491.898
501.98983
508.72154
503.38008
500.44004
500.72173
503.0219
506.38633
510.30075
514.34876
518.13538
521.2934
523.52425
524.64937
524.68529
523.95638
523.22882
523.71715
526.93043
534.53616
300.54008
301.54592
302.90042
304.53234
306.39052
308.43649
310.63744
312.95985
315.35942
317.75706
319.98909
321.73831
322.67842
323.71351
325.37234
327.37442
330.11358
334.26248
339.28638
344.58026
350.17698
356.96241
366.11895
377.82967
391.50286
406.52431
422.39848
439.20896
457.95165
481.00985
300.01198
300.04527
300.10571
300.19777
300.32464
300.48862
300.69104
300.93196
301.20898
301.51362
301.822
302.08753
302.53285
306.73105
311.27795
314.2659
315.87209
317.4498
319.36969
322.89154
328.91843
338.02184
349.01597
359.95886
369.91511
379.49928
391.33844
406.13794
424.96591
449.54281
300.00029
300.00138
300.00394
300.00882
300.017
300.02959
300.04784
300.0731
300.10685
300.15084
300.20967
300.34756
301.7762
322.93657
352.65394
358.44645
361.0195
363.11196
365.70434
367.95115
371.60451
376.16097
380.90703
385.34868
389.3895
392.90882
396.27353
407.1173
422.66045
443.03412
325.10518
348.13827
368.77182
387.61461
405.15943
421.69353
437.37626
452.2911
466.44279
479.70447
491.67151
501.4416
507.84926
503.16372
501.3729
502.67547
504.90499
508.24777
512.20078
516.36377
520.3545
523.8066
526.4156
527.99255
528.52748
528.2953
527.99523
528.80249
532.19518
539.8741
300.5401
301.54597
302.90051
304.53248
306.39069
308.43661
310.63714
312.9578
315.35173
317.73288
319.92094
321.57715
322.46076
323.77429
325.60641
327.73797
331.65385
337.32925
344.43653
352.85367
362.56754
373.73169
386.4313
400.40181
415.06217
429.8044
444.36776
459.03935
474.85145
494.42088
300.01198
300.04527
300.10572
300.19778
300.32465
300.48864
300.69106
300.93188
301.20844
301.5113
301.81385
302.07138
302.67443
307.48573
311.28758
313.6673
315.15217
317.02562
319.61512
323.30782
329.27629
338.10504
349.36929
361.61455
374.3711
388.07857
402.83136
419.2077
438.22575
461.87465
300.00029
300.00138
300.00394
300.00882
300.017
300.0296
300.04786
300.07315
300.10698
300.15122
300.21222
300.38998
302.5437
332.36654
353.56906
357.87428
360.13147
362.43568
365.49293
369.24263
373.48904
378.17495
382.76718
386.75813
389.89134
393.1981
400.90955
412.39485
428.74083
449.62582
325.10528
348.13369
368.75711
387.58484
405.10896
421.61599
437.26353
452.1338
466.24871
479.52986
491.70575
502.11653
509.49623
505.44723
502.27478
501.5382
502.6085
504.15428
505.14101
504.80349
502.75358
499.13707
494.44977
489.21509
483.94054
479.43612
477.24015
479.41191
486.21972
496.69998
300.54009
301.54542
302.89825
304.52688
306.3797
308.41759
310.60681
312.91338
315.29353
317.67548
319.91942
321.75839
322.84758
323.5004
324.70617
326.36512
328.23409
330.16884
332.16528
334.34695
336.96628
340.30837
344.53056
349.60237
355.45544
362.20498
369.99844
378.93262
394.25676
423.79637
300.01198
300.04524
300.10557
300.19733
300.32364
300.48662
300.68744
300.92596
301.19969
301.50091
301.80928
302.08319
302.4048
304.65254
309.39833
313.05008
315.5278
317.64381
320.37516
324.38075
330.14742
338.03994
347.89461
358.98527
370.59972
382.39601
393.07298
402.7998
413.01298
427.98408
300.00029
300.00138
300.00393
300.00879
300.01692
300.0294
300.04745
300.07234
300.10544
300.14824
300.20393
300.31108
301.14413
311.01711
334.97748
348.57556
349.69101
349.55291
350.88046
357.11743
364.45035
371.47585
378.12226
384.00602
389.75226
396.70866
404.38146
413.80591
424.76607
438.99115
325.10363
348.11519
368.69889
387.45715
404.86309
421.16834
436.4806
450.81948
464.098
476.10201
486.42509
494.3757
498.72492
490.92356
480.35082
469.18388
458.73391
449.28382
440.85398
433.44747
427.0668
421.83322
417.98783
415.74488
415.15949
416.10296
418.3855
421.98371
427.80876
437.98997
300.54001
301.54397
302.89246
304.51223
306.34907
308.35915
310.50108
312.72973
314.98597
317.18579
319.19505
320.79729
321.68854
321.66597
321.45552
321.74106
322.57033
323.80586
325.46692
327.5846
330.24067
333.62119
337.92861
343.25139
349.52832
356.66504
364.6386
373.27876
382.65865
393.97987
300.01198
300.04517
300.10525
300.1964
300.32145
300.48211
300.67884
300.91048
301.17333
301.45905
301.75013
302.01388
302.2351
302.92805
305.62989
309.97736
314.23622
317.88972
321.70846
325.91323
330.8858
337.20461
345.11478
354.32784
364.19191
373.92877
383.01846
391.30072
400.27662
411.58048
300.00029
300.00137
300.00392
300.00873
300.01676
300.02905
300.04671
300.07088
300.10269
300.1432
300.19378
300.26576
300.54642
303.27895
313.71523
327.00931
334.80398
335.73998
344.11001
354.95036
364.9349
373.19827
380.08658
385.97981
391.1468
395.6066
399.46401
403.05273
410.4509
424.98464
325.10496
348.07309
368.59501
387.27504
404.57848
420.74254
435.82199
449.74433
462.28851
473.09726
481.66109
487.35803
489.36622
480.48574
468.87157
456.53294
445.70923
437.62484
432.30385
429.0811
427.22917
426.26755
425.9877
426.35664
427.39679
429.1675
431.80375
435.67763
441.83066
451.94279
300.53994
301.54052
302.88273
304.49414
306.31986
308.31338
310.42631
312.60296
314.77458
316.84945
318.70071
320.16283
321.0356
321.07752
320.62673
320.44789
321.24848
323.13142
325.73596
328.65391
331.72568
334.96866
338.46896
342.33271
346.65288
351.49844
356.88679
362.76113
369.24275
378.24643
300.01197
300.04502
300.10476
300.19544
300.31997
300.48011
300.67616
300.9066
301.16764
301.45136
301.74373
302.04435
302.34637
302.72404
303.91468
306.80113
312.07253
319.19903
326.90346
333.88232
340.22391
346.481
352.73015
359.00043
365.11852
371.47495
378.25024
385.34568
392.81379
400.91579
300.00029
300.00137
300.0039
300.00869
300.01671
300.02902
300.04679
300.07122
300.10356
300.14514
300.19792
300.27146
300.43522
301.29877
304.97066
312.44622
322.55552
335.567
349.34264
362.1261
372.63862
380.78313
387.39023
392.9529
397.76436
401.58901
404.75392
407.5609
410.37457
413.96625
325.11064
348.32897
369.34097
388.7509
407.06078
424.56811
441.37567
457.33337
472.1318
485.72801
497.98901
508.66686
517.22157
516.96155
514.16678
508.95152
502.08644
494.64165
487.54876
481.38915
476.41888
472.68435
470.13463
468.69301
468.28864
468.88609
470.52825
473.41756
478.09536
485.41309
300.54067
301.56034
302.95549
304.66483
306.64512
308.86288
311.28796
314.11775
318.02032
323.26453
330.68583
340.71857
353.53554
367.35013
380.88922
392.9787
402.99732
410.67917
415.95813
418.99174
420.26883
420.46925
420.25299
420.15267
420.57303
421.87111
424.47211
429.04973
436.89909
449.2711
300.01202
300.04597
300.10898
300.2072
300.34588
300.52948
300.7616
301.0502
301.41789
301.89044
302.53995
304.57878
309.86582
319.1509
331.627
346.03099
360.70447
374.44319
386.37201
395.96015
403.09635
408.06389
411.3761
413.60187
415.2597
416.79963
418.64174
421.29299
425.65444
433.06887
300.00029
300.00141
300.00412
300.00943
300.01862
300.03327
300.05521
300.08678
300.1314
300.19421
300.28735
300.48656
301.10077
304.36712
313.45678
326.43944
340.27554
353.9758
366.8
378.09645
387.45661
394.82097
400.41793
404.61674
407.81055
410.35959
412.59921
414.89718
417.82885
422.31939
)
;

boundaryField
{
    maxY
    {
        type            zeroGradient;
    }
    minX
    {
        type            fixedValue;
        value           uniform 300;
    }
    maxX
    {
        type            inletOutlet;
        inletValue      uniform 300;
        value           nonuniform List<scalar> 
40
(
482.91441
446.94537
431.2004
420.93953
449.14483
376.34921
399.72338
413.28784
434.01059
391.58348
409.74165
420.80573
490.06506
417.01404
422.61353
432.68067
534.4875
481.28555
449.76144
443.09743
539.77822
494.0531
461.44281
449.13395
496.58197
423.7318
427.79681
438.53502
438.07037
393.872
411.34932
424.54947
452.00619
378.22761
400.87936
413.91242
485.43998
449.30553
433.10403
422.34203
)
;
    }
    minZ
    {
        type            zeroGradient;
    }
    maxZ
    {
        type            zeroGradient;
    }
    topAir_to_rightSolid
    {
        type            compressible::turbulentTemperatureCoupledBaffleMixed;
        refValue        nonuniform List<scalar> 
130
(
753.30543
761.37423
769.7993
778.08962
785.95011
793.15958
799.58006
805.12021
809.74356
813.48874
816.33029
818.2394
819.19737
747.29278
756.71301
766.31679
775.56753
784.15796
791.9037
798.70663
804.51873
809.34874
813.2287
816.14149
818.08229
819.05394
735.43965
747.94769
760.06515
771.21362
781.16711
789.86774
797.32792
803.60493
808.76634
812.84969
815.88445
817.89608
818.9029
717.9139
736.23265
752.39609
766.22458
777.92553
787.76411
795.97423
802.75053
808.23694
812.52719
815.68661
817.77069
818.80572
697.3353
725.21846
746.19841
762.6072
775.75566
786.43853
795.15916
802.25025
807.93217
812.34302
815.57744
817.70071
818.75268
697.52444
725.40354
746.35218
762.73398
775.86002
786.52214
795.22578
802.29987
807.9653
812.36433
815.59202
817.71055
818.76157
718.43928
736.6931
752.78518
766.55263
778.19533
787.98538
796.15614
802.89189
808.33576
812.60055
815.74707
817.8231
818.85433
736.16063
748.57434
760.57342
771.61502
781.48869
790.13476
797.56341
803.81224
808.93583
812.99921
816.02271
818.02661
819.026
748.02756
757.36534
766.84053
775.98234
784.48369
792.16171
798.92088
804.71912
809.5524
813.42149
816.32113
818.25463
819.22606
753.92984
761.93205
770.23295
778.43354
786.22318
793.38274
799.77001
805.30378
809.94567
813.68958
816.51074
818.39878
819.3475
)
;
        refGradient     uniform 0;
        valueFraction   uniform 0.99967867;
        value           nonuniform List<scalar> 
130
(
753.22224
761.28611
769.70644
777.99246
785.8492
793.05551
799.47345
805.01166
809.63368
813.37811
816.21958
818.12945
819.08931
747.19331
756.60869
766.20828
775.45542
784.04278
791.78595
798.58681
804.39736
809.22632
813.10579
816.01875
817.96069
818.93508
735.34715
747.84834
759.95949
771.10236
781.05104
789.74771
797.2048
803.47957
808.63956
812.72223
815.75706
817.76974
818.77922
717.84419
736.15712
752.31501
766.13817
777.83402
787.66779
795.87348
802.6458
808.12892
812.417
815.57603
817.66186
818.70009
697.27394
725.1494
746.12391
762.52864
775.67389
786.35405
795.07223
802.16105
807.8409
812.25009
815.48362
817.60725
818.66134
697.46362
725.33503
746.27827
762.65609
775.77903
786.43856
795.1399
802.21189
807.87542
812.27294
815.49985
817.61879
818.67192
718.37042
736.61869
752.70549
766.46785
778.10564
787.89103
796.05748
802.78937
808.23006
812.49277
815.63898
817.71653
818.75077
736.06844
748.47545
760.4683
771.5043
781.37312
790.01518
797.44072
803.68736
808.80961
812.87242
815.89611
817.90124
818.90359
747.92783
757.26089
766.732
775.87028
784.36859
792.04405
798.80117
804.59788
809.43018
813.29887
816.19883
818.1337
819.10806
753.84652
761.84388
770.14014
778.33649
786.12243
793.27887
799.66362
805.19548
809.83608
813.57931
816.4005
818.28943
819.24021
)
;
        Tnbr            T;
        thicknessLayers List<scalar> 0();
        kappaLayers     List<scalar> 0();
        kappaMethod     fluidThermo;
        kappa           none;
        alphaAni        none;
        alpha           none;
        field           T;
    }
    topAir_to_heater
    {
        type            compressible::turbulentTemperatureCoupledBaffleMixed;
        refValue        nonuniform List<scalar> 
40
(
734.36615
736.38659
740.33183
746.11312
724.77207
727.12565
731.83326
738.74552
704.81405
707.8958
714.20866
723.64919
672.52388
676.47472
685.07038
698.9654
625.6472
629.30141
638.83733
658.04251
625.76666
629.44113
638.99398
658.21298
672.93542
676.96368
685.60909
699.52269
705.19604
708.42442
714.90314
724.402
725.04297
727.57916
732.50289
739.49561
734.48121
736.64921
740.82819
746.7284
)
;
        refGradient     uniform 0;
        valueFraction   uniform 0.99967867;
        value           nonuniform List<scalar> 
40
(
734.29633
736.31521
740.2575
746.03468
724.69374
727.04289
731.74501
738.6515
704.74558
707.82285
714.12984
723.56372
672.47044
676.41869
685.01098
698.90154
625.60791
629.26
638.79294
657.9927
625.72726
629.39998
638.95019
658.16372
672.8816
676.90755
685.54994
699.45941
705.12719
708.35113
714.82418
724.31663
724.96438
727.49603
732.41421
739.40121
734.41131
736.57772
740.75368
746.64979
)
;
        Tnbr            T;
        thicknessLayers List<scalar> 0();
        kappaLayers     List<scalar> 0();
        kappaMethod     fluidThermo;
        kappa           none;
        alphaAni        none;
        alpha           none;
        field           T;
    }
    topAir_to_leftSolid
    {
        type            compressible::turbulentTemperatureCoupledBaffleMixed;
        refValue        nonuniform List<scalar> 
130
(
917.69674
917.65435
917.56618
917.43524
917.26155
917.06618
916.84992
916.62413
916.39071
916.15292
915.92441
915.76393
915.681
917.70594
917.66273
917.57026
917.42579
917.23115
917.00673
916.76034
916.50056
916.2333
915.97188
915.72211
915.54113
915.44592
917.73081
917.68747
917.59069
917.43022
917.19726
916.92326
916.63038
916.32689
916.02365
915.73682
915.47391
915.26186
915.13981
917.77406
917.73137
917.63496
917.47384
917.23704
916.91509
916.57931
916.23514
915.88338
915.54561
915.24659
915.01183
914.86713
917.81371
917.77167
917.67693
917.51758
917.28107
916.95435
916.60324
916.2279
915.83429
915.43176
915.06898
914.78412
914.5999
917.83244
917.79282
917.70295
917.55155
917.32713
917.02643
916.68471
916.29292
915.85555
915.39825
914.97983
914.66083
914.46184
917.8138
917.77911
917.69786
917.55921
917.35635
917.10076
916.7867
916.40498
915.94499
915.46711
915.02786
914.6812
914.47981
917.76715
917.73663
917.66461
917.54169
917.36765
917.14247
916.85739
916.50421
916.07277
915.63689
915.20322
914.82734
914.6237
917.71967
917.69162
917.62548
917.51633
917.35983
917.15253
916.88915
916.56461
916.19855
915.81
915.409
915.02738
914.80946
917.70397
917.67652
917.61118
917.50496
917.35136
917.14999
916.90329
916.60998
916.27774
915.92057
915.54981
915.18689
914.94962
)
;
        refGradient     uniform 0;
        valueFraction   uniform 0.99967867;
        value           nonuniform List<scalar> 
130
(
917.50633
917.47141
917.39002
917.26536
917.09761
916.90793
916.69714
916.47655
916.24796
916.01462
915.79014
915.63314
915.553
917.51552
917.47971
917.39386
917.25544
917.06642
916.84727
916.6058
916.35059
916.08744
915.8296
915.58267
915.4036
915.30912
917.54038
917.50445
917.41432
917.25993
917.03263
916.76396
916.47609
916.1773
915.87843
915.59556
915.33608
915.12671
915.0062
917.58362
917.54834
917.45859
917.30357
917.07247
916.75593
916.42529
916.086
915.73889
915.40552
915.11056
914.8793
914.73716
917.62326
917.58864
917.50055
917.34731
917.11651
916.7952
916.44925
916.07882
915.68989
915.29178
914.93301
914.65148
914.46948
917.64198
917.60977
917.52656
917.38127
917.16255
916.86726
916.53069
916.14383
915.71114
915.25825
914.84381
914.52805
914.33119
917.62335
917.59607
917.52147
917.38891
917.19175
916.94155
916.63262
916.2558
915.80049
915.32703
914.89184
914.54864
914.34968
917.57671
917.55359
917.48821
917.37136
917.20297
916.9831
916.70303
916.35457
915.92754
915.49565
915.06544
914.69224
914.49006
917.52924
917.50858
917.44906
917.34595
917.19506
916.99302
916.73457
916.41461
916.0527
915.66775
915.26963
914.88996
914.67276
917.51355
917.49357
917.43501
917.33506
917.18739
916.99171
916.7505
916.4624
916.13502
915.78234
915.41564
915.05627
914.82182
)
;
        Tnbr            T;
        thicknessLayers List<scalar> 0();
        kappaLayers     List<scalar> 0();
        kappaMethod     fluidThermo;
        kappa           none;
        alphaAni        none;
        alpha           none;
        field           T;
    }
}


// ************************************************************************* //
