/*--------------------------------*- C++ -*----------------------------------*\
| =========                 |                                                 |
| \\      /  F ield         | OpenFOAM: The Open Source CFD Toolbox           |
|  \\    /   O peration     | Version:  v2012                                 |
|   \\  /    A nd           | Website:  www.openfoam.com                      |
|    \\/     M anipulation  |                                                 |
\*---------------------------------------------------------------------------*/
FoamFile
{
    version     2.0;
    format      ascii;
    class       volVectorField;
    location    "570/topAir";
    object      U;
}
// * * * * * * * * * * * * * * * * * * * * * * * * * * * * * * * * * * * * * //

dimensions      [0 1 -1 0 0 0 0];


internalField   nonuniform List<vector> 
1200
(
(0.10461595 -0.0024609394 0.00087731467)
(0.11838231 -0.0025377585 0.0013174146)
(0.13020437 -0.0023167141 0.0013974002)
(0.13942713 -0.0017577804 0.0012571251)
(0.14747856 -0.00092405452 0.00091022852)
(0.15500345 1.1469767e-05 0.00031555297)
(0.16226441 0.00094558129 -0.00055942963)
(0.16952072 0.0018146714 -0.0018705144)
(0.17696558 0.0027142439 -0.0038875485)
(0.18491359 0.0038262367 -0.0069299577)
(0.19353855 0.0054873244 -0.011409727)
(0.2025037 0.0080900602 -0.01774929)
(0.21026541 0.012051561 -0.026209828)
(0.21522952 0.016754473 -0.03660955)
(0.21747117 0.021999673 -0.048126015)
(0.21764593 0.027035005 -0.059515075)
(0.21602738 0.031268241 -0.06957678)
(0.21282667 0.03443844 -0.07759111)
(0.20851771 0.036471747 -0.083380734)
(0.20386826 0.037389219 -0.087129169)
(0.19971893 0.037338068 -0.089173155)
(0.1966873 0.036587021 -0.089859562)
(0.19501407 0.03540717 -0.089478029)
(0.19461174 0.034005647 -0.08824371)
(0.19517731 0.032542229 -0.08628158)
(0.19618744 0.031231444 -0.083567447)
(0.19665553 0.030462953 -0.07984202)
(0.19464799 0.031033067 -0.074527484)
(0.18666065 0.034836884 -0.066663896)
(0.14606995 0.04776052 -0.054293556)
(0.09868697 -0.0038966468 0.0008493105)
(0.098455075 -0.0047096633 0.0012823768)
(0.098880101 -0.0047574019 0.0014645862)
(0.099767319 -0.0042869743 0.0015469102)
(0.10119736 -0.0034891636 0.0015560551)
(0.103202 -0.0026144328 0.0014768731)
(0.10576116 -0.0018305715 0.0012839136)
(0.10903596 -0.001192933 0.0009186637)
(0.11352112 -0.00038754886 0.00025540277)
(0.11971988 0.00095452766 -0.00088182568)
(0.12861192 0.0036864892 -0.002811059)
(0.14049776 0.0088819994 -0.005925488)
(0.15506104 0.017403382 -0.010747448)
(0.17043286 0.028130843 -0.017370161)
(0.18456282 0.040371809 -0.025307976)
(0.19579968 0.052719136 -0.033554111)
(0.20311157 0.064118875 -0.041146056)
(0.20624771 0.073776937 -0.047590702)
(0.205831 0.081029173 -0.052756351)
(0.20316718 0.085485244 -0.056662118)
(0.19974907 0.087297197 -0.059368756)
(0.19667374 0.087117261 -0.060910936)
(0.19443383 0.085662922 -0.061357193)
(0.19309788 0.083457048 -0.060819787)
(0.19253496 0.080798809 -0.059383473)
(0.19244598 0.078046654 -0.056958376)
(0.19215082 0.075919894 -0.053132958)
(0.19031949 0.075914437 -0.04702469)
(0.18551532 0.08119562 -0.036724012)
(0.15774115 0.096507541 -0.017432388)
(0.098817376 -0.0029180616 0.00087637688)
(0.097961337 -0.004222456 0.0013305071)
(0.096316187 -0.0046295567 0.0015339296)
(0.094253202 -0.0047179621 0.001656448)
(0.092238557 -0.004678153 0.0017502609)
(0.09045333 -0.0045981537 0.0018275647)
(0.088883899 -0.0045832937 0.0019063703)
(0.087464162 -0.0046753136 0.0020286758)
(0.086249704 -0.0047078951 0.0022609643)
(0.085556825 -0.004594246 0.0026346146)
(0.085913846 -0.0040692895 0.0030873006)
(0.089468341 -0.0015330985 0.0031928593)
(0.099637893 0.0061393307 0.0022602379)
(0.11536849 0.019799108 0.00014606056)
(0.13392827 0.037260084 -0.0029825935)
(0.15193893 0.055682029 -0.006205628)
(0.16662404 0.072216355 -0.0089054028)
(0.1767642 0.085826546 -0.010956493)
(0.18258552 0.096104042 -0.012584357)
(0.18531698 0.10292896 -0.014083209)
(0.18646699 0.10645406 -0.015579018)
(0.18704496 0.10711467 -0.016887397)
(0.18734529 0.10555653 -0.017673121)
(0.18727152 0.10240324 -0.017820738)
(0.18671915 0.098132874 -0.017308612)
(0.18565759 0.093168318 -0.016024762)
(0.18388237 0.088213926 -0.013607224)
(0.18093749 0.084828873 -0.0095041671)
(0.17703935 0.086503428 -0.0027657736)
(0.15915316 0.099173801 0.0098019101)
(0.096859058 -0.0015551458 0.00084176574)
(0.094634903 -0.0022971136 0.0012576055)
(0.090909569 -0.0025228872 0.0014220929)
(0.086348705 -0.0025540069 0.0015036195)
(0.081771826 -0.0024925655 0.0015582083)
(0.077423322 -0.0023699877 0.0016021585)
(0.07326505 -0.0022267447 0.0016595852)
(0.069197827 -0.0021014925 0.0017763082)
(0.06508938 -0.0020350969 0.0020286809)
(0.060718369 -0.0022076932 0.0025301415)
(0.055651223 -0.0031321994 0.0035133907)
(0.049463795 -0.0048077481 0.0054316713)
(0.041488334 -0.0051838011 0.0089713091)
(0.03770083 0.0019910809 0.013834916)
(0.044913688 0.017816745 0.019389377)
(0.060308588 0.035202413 0.025290386)
(0.077062209 0.049838131 0.030965813)
(0.092089284 0.061568991 0.036142595)
(0.10486137 0.070574028 0.040513035)
(0.11588335 0.07689749 0.043593877)
(0.12568996 0.080542937 0.04546949)
(0.13441449 0.081562884 0.046399853)
(0.14184381 0.080320448 0.046578922)
(0.14761989 0.07734173 0.04622339)
(0.15152017 0.073185443 0.045579276)
(0.15358911 0.068311647 0.044931503)
(0.15416089 0.063324966 0.04458932)
(0.15408337 0.059430235 0.044616506)
(0.15676666 0.059290613 0.04447644)
(0.17317372 0.068361478 0.04415538)
(0.1058793 -0.0024617235 0.0010093535)
(0.12050118 -0.0025489356 0.0014114979)
(0.13357269 -0.0024181412 0.001412603)
(0.14413091 -0.0020457673 0.0011814776)
(0.15332384 -0.0015013514 0.00073675638)
(0.16173082 -0.0009654786 3.5206086e-05)
(0.16937465 -0.0005836916 -0.00098311688)
(0.17617057 -0.00042880137 -0.0024855781)
(0.18208748 -0.00056709009 -0.0047253693)
(0.18710406 -0.0010761586 -0.0079943516)
(0.19115569 -0.0020855362 -0.012644326)
(0.19414583 -0.003734665 -0.018957638)
(0.19548648 -0.0061512089 -0.026924893)
(0.19490287 -0.010003049 -0.035856152)
(0.19407834 -0.014525272 -0.044520004)
(0.19436766 -0.018813205 -0.05177009)
(0.19559047 -0.021848845 -0.057293146)
(0.19674989 -0.023256063 -0.061415202)
(0.19707496 -0.023435115 -0.064504779)
(0.19646858 -0.023119841 -0.066736175)
(0.19538698 -0.022845082 -0.068183021)
(0.194432 -0.02269807 -0.068892045)
(0.19399599 -0.022601015 -0.068891566)
(0.19419893 -0.022507342 -0.068192943)
(0.19504581 -0.022410078 -0.066766866)
(0.19655224 -0.022181299 -0.064485298)
(0.19864539 -0.021387806 -0.060997174)
(0.20099029 -0.018936792 -0.055652824)
(0.20292445 -0.01149216 -0.04762788)
(0.19487953 0.011002896 -0.036928057)
(0.099977103 -0.003907848 0.0010638063)
(0.10068646 -0.0047569031 0.0016168067)
(0.10249352 -0.0049432172 0.0018201196)
(0.10493397 -0.0047305416 0.0018675657)
(0.10782555 -0.0043131915 0.00180056)
(0.11110899 -0.0039421722 0.001596271)
(0.11469326 -0.0038132282 0.0012101575)
(0.11849878 -0.0040433216 0.00056625571)
(0.12251507 -0.0047555813 -0.00045754996)
(0.12671073 -0.0061298145 -0.0020179229)
(0.13110131 -0.0084128953 -0.0042853992)
(0.13577365 -0.011866883 -0.0074537611)
(0.14087828 -0.016775118 -0.011601526)
(0.14639102 -0.023779719 -0.016166508)
(0.15232271 -0.031476947 -0.020035544)
(0.15843024 -0.037683782 -0.022289969)
(0.1640755 -0.040365515 -0.023137255)
(0.16826187 -0.039232391 -0.023759514)
(0.17044273 -0.035613487 -0.025000083)
(0.17086143 -0.031378627 -0.026964394)
(0.17038405 -0.02784199 -0.029241714)
(0.16983895 -0.025174789 -0.031345898)
(0.16950572 -0.023125296 -0.032820508)
(0.16932936 -0.021625863 -0.033250903)
(0.16937942 -0.0208984 -0.032239965)
(0.1701602 -0.021096386 -0.029408477)
(0.17265387 -0.022031552 -0.024198226)
(0.17897907 -0.02308598 -0.015623959)
(0.1948282 -0.022738064 -0.0021296949)
(0.25069087 -0.014910117 0.014821978)
(0.1001182 -0.0029462045 0.0010844208)
(0.10021896 -0.0042754119 0.0016645132)
(0.10002087 -0.0047258254 0.0019154925)
(0.09966244 -0.0048917012 0.0020396877)
(0.099358719 -0.0049678853 0.0020965613)
(0.099226281 -0.0050415895 0.002086704)
(0.099279707 -0.0052005892 0.002007506)
(0.099499158 -0.0055435937 0.0018700435)
(0.099873523 -0.0062065139 0.0016960459)
(0.10043997 -0.0074407396 0.0014612302)
(0.10130618 -0.0095803625 0.0010158783)
(0.10265657 -0.013091421 0.00012198054)
(0.1047056 -0.018653318 -0.0011562604)
(0.10752902 -0.026802267 -0.0020547976)
(0.11118737 -0.035919518 -0.001114987)
(0.1153419 -0.042820693 0.0036500725)
(0.12092487 -0.043845939 0.012214314)
(0.12685047 -0.039686226 0.020894325)
(0.13181008 -0.033124366 0.027467533)
(0.13517659 -0.02728345 0.031165746)
(0.13721741 -0.023400068 0.032862782)
(0.1387356 -0.020447284 0.034736775)
(0.14098944 -0.018535299 0.037056246)
(0.14385333 -0.0175116 0.039943293)
(0.14604879 -0.017957458 0.042304818)
(0.14715573 -0.019650679 0.044202073)
(0.14763098 -0.022150905 0.045999358)
(0.14841927 -0.025611704 0.048215529)
(0.15393246 -0.030335794 0.05257991)
(0.17903875 -0.036825339 0.056732935)
(0.098103734 -0.0015821433 0.0010592945)
(0.096778253 -0.0023534863 0.001620555)
(0.09442838 -0.0026122965 0.0018572927)
(0.091492691 -0.0026892045 0.0019639455)
(0.088546569 -0.002689552 0.0019996603)
(0.085781903 -0.0026471896 0.0019688459)
(0.083198554 -0.0026051049 0.0018750457)
(0.080764964 -0.0026196847 0.0017342784)
(0.07843364 -0.0027719888 0.0015804675)
(0.076160434 -0.003208121 0.0014653819)
(0.073862116 -0.0041942514 0.0014592038)
(0.071333556 -0.0062010278 0.0016829523)
(0.068200656 -0.0098641049 0.0021356404)
(0.064264747 -0.015326791 0.0028715944)
(0.05979902 -0.020225542 0.0061044437)
(0.056585513 -0.019361155 0.017553598)
(0.059424403 -0.010478708 0.042023869)
(0.063643006 0.0025056782 0.065470684)
(0.068368386 0.015563356 0.083453561)
(0.074123577 0.026100553 0.095954658)
(0.081599616 0.033259663 0.10388293)
(0.09021796 0.036119468 0.10742771)
(0.098024586 0.035843121 0.10847637)
(0.10440593 0.033450379 0.10777913)
(0.10906323 0.029841481 0.1056129)
(0.11238203 0.025013977 0.10141474)
(0.11458098 0.019299731 0.09548128)
(0.11578225 0.013126367 0.088919453)
(0.12041641 0.0069946131 0.084579703)
(0.14089112 0.0014985513 0.079788106)
(0.10575319 -0.0024822301 0.00036040265)
(0.12017481 -0.0025673095 0.00059333585)
(0.13315474 -0.002409659 0.00068899297)
(0.143731 -0.0019886025 0.00068926546)
(0.15298775 -0.001384491 0.00061881861)
(0.16141896 -0.00078695267 0.00047927321)
(0.16904263 -0.00030796702 0.00024017493)
(0.17584583 2.1935288e-05 -0.00011815892)
(0.18184065 0.00017375797 -0.00061545507)
(0.18700103 0.00010177563 -0.0012705099)
(0.1912657 -0.00027461915 -0.0020959044)
(0.19452938 -0.0010953381 -0.0030559828)
(0.19613235 -0.0025915843 -0.0039802585)
(0.19573745 -0.0056500788 -0.0045338976)
(0.19500238 -0.0094316395 -0.0043025433)
(0.19474139 -0.013118062 -0.0034980138)
(0.19412906 -0.016526225 -0.0030709237)
(0.19246666 -0.019903214 -0.0038605955)
(0.18987467 -0.023279499 -0.0060133959)
(0.1868421 -0.026589487 -0.0091145729)
(0.18387739 -0.029774436 -0.01254815)
(0.18138278 -0.032707121 -0.015732622)
(0.17951385 -0.035181569 -0.018238599)
(0.1781599 -0.037036221 -0.01986104)
(0.17715777 -0.038272697 -0.020502309)
(0.17651595 -0.03911455 -0.019994146)
(0.17670393 -0.039795978 -0.018166366)
(0.1789697 -0.039860238 -0.015816299)
(0.18464679 -0.035760203 -0.016366078)
(0.19156378 -0.018536664 -0.021477848)
(0.099853982 -0.0039206549 0.00035633012)
(0.10033021 -0.0047570972 0.00060802023)
(0.10200896 -0.004900683 0.00072161828)
(0.1044356 -0.0046185635 0.00073166562)
(0.10734448 -0.0041152013 0.00065079629)
(0.1106145 -0.0036456291 0.00046195927)
(0.11412566 -0.0033555918 0.00013114787)
(0.11778406 -0.0033019235 -0.00038540711)
(0.12153652 -0.0035682976 -0.0011368402)
(0.12536515 -0.004280419 -0.0022088032)
(0.12930171 -0.0056705312 -0.0036736147)
(0.13346969 -0.0081383082 -0.0055481635)
(0.13814239 -0.01229991 -0.0076663781)
(0.143333 -0.019015886 -0.0095335804)
(0.14861763 -0.025900726 -0.010847354)
(0.15297063 -0.030435259 -0.012596407)
(0.15497018 -0.032918298 -0.016203786)
(0.15449674 -0.03480511 -0.021657008)
(0.15254801 -0.036380091 -0.02809811)
(0.1498905 -0.037734104 -0.034541925)
(0.1469227 -0.039091944 -0.040087953)
(0.14384631 -0.040550118 -0.044103553)
(0.14067474 -0.041927621 -0.046228381)
(0.13716896 -0.043033458 -0.046397571)
(0.13321575 -0.043994606 -0.04448016)
(0.1288859 -0.045521044 -0.040157111)
(0.12568801 -0.048308877 -0.033055039)
(0.12850848 -0.05174196 -0.025719423)
(0.14462953 -0.04924873 -0.03014175)
(0.18916644 -0.029495945 -0.050352173)
(0.09999961 -0.0029412811 0.00036111733)
(0.099878573 -0.0042639761 0.00061939761)
(0.099559543 -0.0046939829 0.00074791017)
(0.099197679 -0.0048273869 0.00077728986)
(0.098936595 -0.004858548 0.00071697675)
(0.098843613 -0.0048670191 0.00054803556)
(0.098907998 -0.004922458 0.0002348038)
(0.099086861 -0.0051018119 -0.00027397706)
(0.099356347 -0.005524096 -0.0010476264)
(0.099695285 -0.0063759826 -0.0021737433)
(0.10006859 -0.0080216624 -0.0037820135)
(0.10049628 -0.011127462 -0.0060176214)
(0.10118819 -0.016796265 -0.0088695805)
(0.10222093 -0.025587299 -0.011824155)
(0.1027497 -0.033412322 -0.014272241)
(0.10183661 -0.035658773 -0.016936263)
(0.098053957 -0.03417832 -0.021269074)
(0.093308606 -0.032883105 -0.024923088)
(0.089248437 -0.032256531 -0.028797319)
(0.085431199 -0.032682157 -0.033611387)
(0.081181561 -0.03428081 -0.03785347)
(0.076450289 -0.036656082 -0.039908597)
(0.071824803 -0.039171642 -0.038990321)
(0.067478879 -0.041511681 -0.035023549)
(0.064362938 -0.043554146 -0.027416822)
(0.062063791 -0.046285676 -0.016611738)
(0.062327479 -0.050661777 -0.0035822062)
(0.070397176 -0.056700519 0.004774294)
(0.083851356 -0.056095394 -0.014957675)
(0.10232488 -0.03149125 -0.05977457)
(0.097987715 -0.0015771715 0.00035193275)
(0.096444313 -0.0023433028 0.00059891088)
(0.09397564 -0.0025938279 0.00071764868)
(0.091035816 -0.0026603641 0.00073817669)
(0.088130319 -0.0026475556 0.00066963337)
(0.085400836 -0.0025868467 0.00049244318)
(0.082820465 -0.0025173022 0.00016813303)
(0.080331564 -0.0024883458 -0.00036099691)
(0.077883456 -0.002569056 -0.0011775547)
(0.07536091 -0.0028795031 -0.0023972654)
(0.072505109 -0.0036842939 -0.0042608565)
(0.068852697 -0.0055864436 -0.0072224082)
(0.06357773 -0.010014834 -0.012223721)
(0.05498211 -0.018347359 -0.020568444)
(0.040811301 -0.024132673 -0.031185285)
(0.024783452 -0.019442014 -0.037651742)
(0.014078843 -0.012591163 -0.031889036)
(0.023196338 -0.0089767422 0.0032733325)
(0.02927362 -0.00062648634 0.039688806)
(0.034545266 0.0080565775 0.062575641)
(0.041615054 0.014543636 0.075895596)
(0.049116046 0.017745175 0.082595426)
(0.055495414 0.018008378 0.08523482)
(0.059780605 0.01576964 0.084972526)
(0.061124536 0.011380144 0.082102436)
(0.059530263 0.0046423922 0.07644789)
(0.056795753 -0.0044815338 0.06778373)
(0.06060697 -0.016228746 0.054721452)
(0.068358416 -0.016525061 0.0040911815)
(0.13850047 0.01585343 -0.061209086)
(0.10572404 -0.0024835216 0.00019543681)
(0.12006771 -0.0025635179 0.00035330854)
(0.13296255 -0.0023910573 0.00044895377)
(0.14347417 -0.0019393317 0.00048333952)
(0.15269499 -0.0012786468 0.00046270114)
(0.16113315 -0.00058569145 0.00038864262)
(0.16884233 4.1153372e-05 0.00026229496)
(0.17581876 0.00057803429 9.0553059e-05)
(0.18212841 0.0010367069 -0.00012974134)
(0.18787117 0.0014092228 -0.00038462068)
(0.1931655 0.0016549294 -0.00061539964)
(0.19820371 0.0016698421 -0.00065464753)
(0.20271215 0.0012930791 -9.0000468e-05)
(0.20671225 0.00016025521 0.0017351159)
(0.21155454 0.00014170448 0.0050550133)
(0.21680433 0.001240305 0.0092312013)
(0.22095707 0.0023099822 0.0135863)
(0.22340413 0.0026435896 0.017854544)
(0.22454815 0.0020730191 0.0220017)
(0.22496828 0.00064512586 0.026024196)
(0.22505173 -0.001463376 0.029991396)
(0.22490976 -0.003977595 0.034057034)
(0.22433736 -0.0066535788 0.038325561)
(0.223037 -0.009402781 0.042607239)
(0.22106832 -0.012071175 0.046416986)
(0.21895942 -0.013963149 0.04909081)
(0.2171114 -0.013612547 0.049741862)
(0.21465318 -0.0092591996 0.047457405)
(0.20676899 0.0013300883 0.039614942)
(0.14823721 0.030174005 0.019931096)
(0.099823867 -0.0039220827 0.00019515018)
(0.10020052 -0.0047518435 0.00036261547)
(0.10174957 -0.0048739338 0.00046230684)
(0.10405182 -0.0045471447 0.0004877061)
(0.10684093 -0.0039627973 0.00044028095)
(0.10998393 -0.0033582315 0.00031376967)
(0.11335133 -0.0028591743 9.3417361e-05)
(0.11684728 -0.0025076706 -0.00024111107)
(0.12043755 -0.0023336013 -0.00072184812)
(0.12415759 -0.0024447266 -0.0013714015)
(0.12816811 -0.0030977107 -0.0021689149)
(0.13287281 -0.0048104195 -0.0029576028)
(0.13898971 -0.0082842908 -0.0032647684)
(0.14680105 -0.012881842 -0.0022529826)
(0.15549643 -0.013383234 -0.00023662049)
(0.16289298 -0.010210672 0.0012003142)
(0.16740407 -0.0071577552 0.001053532)
(0.169359 -0.0060867081 -0.00068539042)
(0.16952056 -0.0072786253 -0.0037769498)
(0.16845611 -0.010019095 -0.0079328461)
(0.16664895 -0.013528105 -0.012357801)
(0.16429824 -0.017129094 -0.015925645)
(0.16125413 -0.020327993 -0.017753202)
(0.15718735 -0.023170862 -0.017643171)
(0.15216552 -0.026122403 -0.015931485)
(0.14772897 -0.028723252 -0.014217314)
(0.14727674 -0.028011458 -0.016375069)
(0.15357054 -0.018442255 -0.024461213)
(0.16833702 0.0045297963 -0.038376511)
(0.17530215 0.045080278 -0.054958703)
(0.09997064 -0.0029386337 0.00019614551)
(0.099752811 -0.0042582341 0.00036400233)
(0.09930096 -0.0046791643 0.00046680059)
(0.09880135 -0.0047943096 0.00049445937)
(0.098395185 -0.0047941353 0.00044341828)
(0.098132033 -0.0047508782 0.00030109281)
(0.097981731 -0.0047243174 4.3806477e-05)
(0.09788554 -0.0047782811 -0.00036342762)
(0.097786264 -0.0050196028 -0.00097417337)
(0.09763311 -0.0056711291 -0.0018686603)
(0.097434058 -0.0072221306 -0.0031223677)
(0.097452774 -0.010701201 -0.0047198262)
(0.098465244 -0.017831297 -0.0062712748)
(0.1002358 -0.026641285 -0.0064747123)
(0.10243677 -0.027286446 -0.0046213046)
(0.10388741 -0.02152871 -0.0024666216)
(0.099103655 -0.01603744 -0.0032849482)
(0.091418183 -0.012677216 -0.0072875476)
(0.082298518 -0.013346402 -0.013622789)
(0.073741277 -0.01704334 -0.020103663)
(0.06585664 -0.022062787 -0.024920518)
(0.058127139 -0.026992447 -0.026494675)
(0.050686581 -0.031071451 -0.023581883)
(0.044209792 -0.034563463 -0.016391259)
(0.038719063 -0.038264789 -0.0076821392)
(0.036313648 -0.041905309 -0.0052931618)
(0.043579215 -0.040544264 -0.019497208)
(0.063390552 -0.026987138 -0.042653137)
(0.087420462 -0.0014529398 -0.065780732)
(0.093872856 0.04315441 -0.089470376)
(0.097959284 -0.0015788307 0.00019090887)
(0.096321577 -0.002347093 0.00035155444)
(0.093722739 -0.0025974086 0.00044687651)
(0.090645529 -0.0026601401 0.00046635261)
(0.087591838 -0.0026386568 0.00040509468)
(0.08468039 -0.0025620022 0.00024801283)
(0.081852174 -0.002467169 -3.413036e-05)
(0.079013183 -0.002403924 -0.0004917159)
(0.076024139 -0.0024490119 -0.0012131869)
(0.072622174 -0.0027617002 -0.0023700748)
(0.068302449 -0.0037378842 -0.0042614042)
(0.062029863 -0.0064613121 -0.0074965874)
(0.052254724 -0.013755758 -0.013484801)
(0.034357428 -0.023637502 -0.023300379)
(0.0056799781 -0.017047814 -0.031549785)
(-0.020764687 0.00050260846 -0.029350899)
(-0.035284602 0.0032548314 -0.023764813)
(-0.04130453 0.0021894857 -0.013771257)
(-0.029372096 -0.0011457258 0.0065297587)
(-0.019723337 -0.00086443717 0.02574077)
(-0.0090974747 0.00021107416 0.037715263)
(7.1249332e-05 0.00024806389 0.044318298)
(0.0059971696 -0.0015619868 0.047253421)
(0.0079265849 -0.0053919494 0.047651726)
(0.0060934475 -0.011569319 0.04546071)
(-0.0040534149 -0.022077489 0.031235619)
(-0.015440632 -0.02552659 -0.007402657)
(-0.016254208 -0.0059498483 -0.059559069)
(0.015914454 0.025388962 -0.096330799)
(0.074274735 0.062354084 -0.1262276)
(0.10570757 -0.002487227 5.5405412e-05)
(0.12000986 -0.0025698584 9.9933398e-05)
(0.13285481 -0.0023988145 0.00012445811)
(0.14332051 -0.0019465767 0.00012783644)
(0.15250172 -0.0012826253 0.00011181085)
(0.16090183 -0.00058427909 7.695726e-05)
(0.16856782 4.8433981e-05 2.1283724e-05)
(0.17550341 0.00059373694 -5.9355007e-05)
(0.18176652 0.0010444212 -0.0001637213)
(0.18745784 0.0013770179 -0.00029371106)
(0.19275478 0.0015174735 -0.00042743502)
(0.19802124 0.0013123351 -0.00047236069)
(0.20330073 0.00069327172 -0.00016297708)
(0.20880273 7.3170569e-05 0.00089634874)
(0.21506001 0.0008447744 0.0025111903)
(0.22113766 0.0021362618 0.004173559)
(0.2260839 0.0033565362 0.0057543467)
(0.22994079 0.0046737418 0.0075776792)
(0.23348722 0.0061906928 0.010048291)
(0.23744605 0.0076226688 0.013432558)
(0.24234022 0.0089700856 0.017874622)
(0.24809269 0.010618002 0.023403955)
(0.25380656 0.012868256 0.029887965)
(0.25815025 0.015533149 0.036964)
(0.25993081 0.01844128 0.043953176)
(0.25806924 0.021729905 0.04976613)
(0.25104901 0.025939895 0.052890968)
(0.23612336 0.03241491 0.051460667)
(0.20980544 0.043455075 0.043013325)
(0.11920346 0.067835629 0.025643256)
(0.099805731 -0.0039261191 5.3893426e-05)
(0.10012896 -0.0047585316 9.9040012e-05)
(0.10160624 -0.0048807955 0.00012059003)
(0.10383563 -0.0045507132 0.00011398325)
(0.10655165 -0.0039588996 7.8686555e-05)
(0.10961273 -0.0033437956 1.2288647e-05)
(0.11288641 -0.0028331975 -9.0552963e-05)
(0.11626782 -0.0024728497 -0.00023402062)
(0.11971798 -0.0023235481 -0.0004289657)
(0.12330674 -0.0025407589 -0.00067667606)
(0.1273081 -0.00349294 -0.0009399756)
(0.13240954 -0.0058797973 -0.0010736587)
(0.13964987 -0.010121522 -0.00069674517)
(0.14903649 -0.011739369 0.00075971185)
(0.15855447 -0.008247521 0.0022404371)
(0.16572384 -0.0039384289 0.0026623792)
(0.17116125 -0.00093611916 0.0023092036)
(0.17612408 0.00069531378 0.001803346)
(0.18100017 0.0011694718 0.0014370709)
(0.18551618 0.0011112353 0.0011475075)
(0.1903768 0.0013322776 0.00089933751)
(0.19669687 0.0030573953 0.0010891169)
(0.2061022 0.0078669597 0.002496625)
(0.21739242 0.016200787 0.0052884885)
(0.22752598 0.026905875 0.008914308)
(0.23496692 0.038928882 0.012384018)
(0.23712419 0.052325179 0.014031414)
(0.23027856 0.067981593 0.011698041)
(0.21257335 0.088204715 0.0028772634)
(0.14426695 0.1193222 -0.015004426)
(0.099952356 -0.0029391215 5.3476438e-05)
(0.099680688 -0.0042599305 9.7722039e-05)
(0.099152862 -0.0046806966 0.00011848506)
(0.098569564 -0.0047937409 0.00010944731)
(0.098071006 -0.0047899278 6.7309258e-05)
(0.097695996 -0.0047423031 -1.3882134e-05)
(0.097402165 -0.0047115694 -0.00014422413)
(0.097104923 -0.004774225 -0.00033917835)
(0.096712597 -0.0050648959 -0.00062845978)
(0.096154016 -0.0058856346 -0.0010497599)
(0.095486494 -0.0079372921 -0.0016345999)
(0.095342031 -0.012760229 -0.0023449789)
(0.096685503 -0.022625812 -0.0028700311)
(0.098489298 -0.025958251 -0.0017041424)
(0.10364614 -0.019515482 0.00093137275)
(0.10269546 -0.012817048 0.00071893546)
(0.099319307 -0.0070869147 -0.0012663801)
(0.092817771 -0.0026117961 -0.0041316616)
(0.085401976 -0.0010317793 -0.0075869342)
(0.075806705 -0.0029896359 -0.012063448)
(0.064479659 -0.0074805058 -0.016774187)
(0.053090407 -0.011922665 -0.019521462)
(0.045524105 -0.013882805 -0.018970724)
(0.052276435 -0.010799502 -0.016177858)
(0.074640355 -0.001531113 -0.014370296)
(0.10774175 0.014905911 -0.015085031)
(0.13174472 0.03331206 -0.016703438)
(0.14475005 0.054602045 -0.021977341)
(0.14841262 0.081843478 -0.03225655)
(0.11561167 0.11975125 -0.047222858)
(0.097941068 -0.0015787847 5.1824726e-05)
(0.096249823 -0.002347129 9.3697472e-05)
(0.093574431 -0.0025969163 0.00011168464)
(0.090410035 -0.0026584949 9.885326e-05)
(0.087255937 -0.0026357107 5.0572992e-05)
(0.08421744 -0.0025582589 -4.1416952e-05)
(0.081212971 -0.0024638373 -0.0001913716)
(0.078096703 -0.0024093747 -0.00042782587)
(0.074639627 -0.002491125 -0.00081020431)
(0.070412667 -0.0029305945 -0.0014513713)
(0.064518778 -0.0043268529 -0.0025816099)
(0.05493491 -0.0085047444 -0.0047392366)
(0.039818888 -0.019966438 -0.0093970763)
(0.0019894514 -0.019916168 -0.017956047)
(-0.038844162 0.0022827058 -0.016800782)
(-0.058526494 0.0058982471 -0.014943991)
(-0.074895847 0.0063708948 -0.01433663)
(-0.083137528 0.0039152446 -0.012040865)
(-0.084820062 -0.00066717018 -0.0078054866)
(-0.076499452 -0.0059432761 -0.0013638547)
(-0.066281586 -0.010470909 0.004195016)
(-0.056560534 -0.014586147 0.0078017544)
(-0.048698059 -0.019222302 0.0094394183)
(-0.042069119 -0.023390054 0.0090907905)
(-0.035324361 -0.023701979 0.0059472794)
(-0.031375383 -0.01534284 -0.003818979)
(0.00097872544 0.015902308 -0.024189011)
(0.011614301 0.038799792 -0.042470989)
(0.028617882 0.067155358 -0.063545232)
(0.047705314 0.10326498 -0.086695733)
(0.10570773 -0.0024871676 -4.8909474e-05)
(0.12001042 -0.0025696221 -8.3633943e-05)
(0.13285584 -0.0023983716 -9.7535385e-05)
(0.14332189 -0.001945944 -9.160857e-05)
(0.15250295 -0.0012819178 -6.8372758e-05)
(0.16090191 -0.0005837252 -2.8203046e-05)
(0.16856525 4.8446232e-05 3.1217589e-05)
(0.17549319 0.00059132168 0.00011393528)
(0.18174341 0.0010360466 0.00022068243)
(0.18742235 0.00135186 0.0003587501)
(0.19272741 0.0014508988 0.0005248698)
(0.1981037 0.0011699638 0.0006821113)
(0.20377156 0.00054722246 0.00071065967)
(0.20998967 0.00032518227 0.00043033174)
(0.21680279 0.0013037316 -0.0001350985)
(0.2233234 0.0025783218 -0.00076462113)
(0.22865496 0.0039471666 -0.0013512784)
(0.23330274 0.0056945008 -0.0020494406)
(0.23791124 0.0079089255 -0.0030561015)
(0.24291262 0.010537982 -0.0045845455)
(0.24845395 0.013523766 -0.0069416061)
(0.25418379 0.016907883 -0.010460232)
(0.25919705 0.020649776 -0.015342009)
(0.26236415 0.024515048 -0.021460889)
(0.26270985 0.028260495 -0.028275744)
(0.259329 0.031944263 -0.034765235)
(0.25065912 0.036274797 -0.039393794)
(0.23368939 0.042370087 -0.040332447)
(0.20481296 0.052278092 -0.035052635)
(0.10870925 0.074495289 -0.021455183)
(0.099805711 -0.0039260403 -4.7497596e-05)
(0.10012894 -0.004758273 -8.2703305e-05)
(0.10160619 -0.0048804191 -9.5565711e-05)
(0.10383507 -0.0045504679 -8.547391e-05)
(0.10654939 -0.0039593803 -5.3670101e-05)
(0.10960729 -0.0033459393 1.8662811e-06)
(0.11287597 -0.0028393371 8.7072633e-05)
(0.11624913 -0.0024895077 0.00020694517)
(0.11969001 -0.0023648489 0.00037601325)
(0.1232834 -0.0026426759 0.00060721394)
(0.127352 -0.0037357334 0.00089871602)
(0.13270588 -0.0063789132 0.0012017685)
(0.14040491 -0.010565752 0.0013635581)
(0.15055959 -0.010353186 0.00099765012)
(0.16012319 -0.0062911053 0.00048549677)
(0.16744477 -0.0021603732 0.00046903758)
(0.17393501 0.00099967344 0.00089913042)
(0.18033509 0.003534133 0.0014854852)
(0.18681613 0.0059292413 0.0020929228)
(0.19404433 0.0086188919 0.0027368452)
(0.20259337 0.012350977 0.0031483384)
(0.21250406 0.018101865 0.0027762488)
(0.22299024 0.026364895 0.0011602372)
(0.23283535 0.036614223 -0.0017700366)
(0.24081415 0.047714415 -0.0057869233)
(0.24553885 0.059296128 -0.010088436)
(0.24431747 0.07213628 -0.013037561)
(0.23281837 0.086398352 -0.012818599)
(0.20913555 0.10386984 -0.0072402687)
(0.1273164 0.13080391 0.0069176242)
(0.099952318 -0.0029390964 -4.6986768e-05)
(0.099680525 -0.0042599024 -8.1351898e-05)
(0.099152258 -0.0046808192 -9.3739209e-05)
(0.098567445 -0.0047944244 -8.2540181e-05)
(0.098065276 -0.0047920473 -4.7408262e-05)
(0.097682978 -0.0047472618 1.581091e-05)
(0.097374912 -0.0047229886 0.0001153042)
(0.097050365 -0.0048014541 0.0002632669)
(0.096609657 -0.0051307169 0.0004857232)
(0.095979251 -0.0060484211 0.00081905322)
(0.095266308 -0.0083446247 0.0013091455)
(0.095400479 -0.013742342 0.0020098215)
(0.096812176 -0.024394664 0.0030533596)
(0.10098344 -0.023264546 0.0034171982)
(0.1059592 -0.016635266 0.0022157987)
(0.10550193 -0.010454554 0.0022417032)
(0.10267186 -0.0048365567 0.0033424834)
(0.097762951 -1.9671724e-06 0.0052395528)
(0.093297247 0.0028437951 0.0080255341)
(0.089095688 0.0032065855 0.011640414)
(0.083701817 0.0019380275 0.014788869)
(0.08060034 0.0013274922 0.015932586)
(0.085212518 0.0042099135 0.014041292)
(0.099648845 0.012116759 0.010025001)
(0.12148394 0.02497342 0.0055331212)
(0.14234143 0.040780372 0.0016594234)
(0.15789516 0.057705103 0.00051778788)
(0.16233788 0.076397674 0.0035855056)
(0.15641804 0.10038909 0.011567302)
(0.10425002 0.13531321 0.024429221)
(0.097941017 -0.0015787783 -4.5546777e-05)
(0.096249568 -0.0023471271 -7.784258e-05)
(0.093573463 -0.0025969911 -8.7805997e-05)
(0.090406834 -0.0026588288 -7.3520939e-05)
(0.087247545 -0.0026366903 -3.3901861e-05)
(0.084197885 -0.0025605642 3.6473116e-05)
(0.081168847 -0.0024693194 0.00014736356)
(0.077999876 -0.0024235242 0.00031795754)
(0.074430247 -0.0025288302 0.00058988821)
(0.069961955 -0.003036633 0.0010388054)
(0.063548119 -0.004648057 0.0018178354)
(0.052813552 -0.009570069 0.0033260481)
(0.035710615 -0.022971301 0.0069848279)
(-0.010039516 -0.011579927 0.016728309)
(-0.039245429 0.0044483122 0.015489468)
(-0.058547057 0.0065825232 0.010883701)
(-0.072969149 0.0061634178 0.0065420207)
(-0.080524275 0.0030573937 0.00090747407)
(-0.081892228 -0.001674777 -0.0057352701)
(-0.07692987 -0.0064369491 -0.012476424)
(-0.068592005 -0.010706231 -0.016882418)
(-0.060519145 -0.014628482 -0.019631835)
(-0.052633893 -0.017506222 -0.021229318)
(-0.043586194 -0.017609056 -0.021867719)
(-0.029962894 -0.012063871 -0.021266749)
(-0.011353786 0.0022118406 -0.016682619)
(0.02171221 0.034127536 -0.0037559115)
(0.028586269 0.052162961 0.0076347692)
(0.040491135 0.078066625 0.024144258)
(0.052687985 0.11388706 0.040076501)
(0.10572454 -0.0024833263 -0.00018958549)
(0.1200696 -0.0025628595 -0.0003387319)
(0.13296671 -0.0023897961 -0.00042478494)
(0.14348155 -0.0019372927 -0.00045032461)
(0.15270673 -0.0012755218 -0.00042176407)
(0.16115033 -0.00058085364 -0.00033988728)
(0.16886474 4.8344031e-05 -0.00020480861)
(0.17584946 0.000587731 -2.0942237e-05)
(0.18217197 0.0010447169 0.00021810243)
(0.1879358 0.0014072716 0.00050098994)
(0.19327882 0.0016257118 0.00077019609)
(0.19844496 0.0015811054 0.00085076479)
(0.20328583 0.0011326515 0.00029407108)