/*--------------------------------*- C++ -*----------------------------------*\
| =========                 |                                                 |
| \\      /  F ield         | OpenFOAM: The Open Source CFD Toolbox           |
|  \\    /   O peration     | Version:  v2012                                 |
|   \\  /    A nd           | Website:  www.openfoam.com                      |
|    \\/     M anipulation  |                                                 |
\*---------------------------------------------------------------------------*/
FoamFile
{
    version     2.0;
    format      ascii;
    class       volScalarField;
    location    "510/heater";
    object      T;
}
// * * * * * * * * * * * * * * * * * * * * * * * * * * * * * * * * * * * * * //

dimensions      [0 0 0 1 0 0 0];


internalField   nonuniform List<scalar> 
80
(
734.24776
736.36138
740.46538
746.27953
724.80885
727.2881
732.1359
739.05556
704.98168
708.1673
714.57055
724.00331
672.82885
676.82508
685.42372
699.29082
345.66982
342.95576
342.97578
345.64718
422.69377
419.33981
419.53066
423.0449
488.59595
485.75476
486.42687
490.12016
544.62468
542.86145
544.72598
549.16699
590.91219
591.06757
595.65392
603.19351
626.08102
629.69744
639.18227
658.33316
345.65631
342.97904
343.01368
345.70543
422.7144
419.4003
419.60827
423.13585
488.64151
485.83314
486.52441
490.22575
544.6939
542.96821
544.85506
549.31026
591.00223
591.18975
595.78973
603.33587
626.2247
629.8472
639.33525
658.48726
673.3869
677.38259
685.97303
699.82759
705.70313
708.89132
715.2952
724.72176
725.55851
728.02081
732.85317
739.76972
734.95316
737.04069
741.13941
746.94919
)
;

boundaryField
{
    minY
    {
        type            fixedValue;
        value           uniform 300;
    }
    minZ
    {
        type            zeroGradient;
    }
    maxZ
    {
        type            zeroGradient;
    }
    heater_to_topAir
    {
        type            compressible::turbulentTemperatureCoupledBaffleMixed;
        refValue        nonuniform List<scalar> 
40
(
514.38728
512.08737
507.35804
500.86979
479.60584
468.88734
457.05934
446.27925
490.40306
480.39783
469.09703
458.10211
504.6558
500.99266
499.31157
499.60406
501.39416
498.37064
498.57776
501.10164
500.77331
498.99169
500.25525
502.48997
502.73427
499.21514
498.01932
498.6402
488.76758
478.15948
466.78766
456.16435
478.86069
467.62149
455.56596
444.91934
514.69124
512.12546
507.1279
500.4539
)
;
        refGradient     uniform 0;
        valueFraction   nonuniform List<scalar> 
40
(
0.00032132529
0.00032132529
0.00032132529
0.00032132529
0.00032132529
0.00032132529
0.00032132529
0.00032132529
0.00032132529
0.00032132529
0.00032132529
0.00032132529
0.00032132529
0.00032132529
0.00032132529
0.00032132529
0.00032132529
0.00032132529
0.00032132529
0.00032132529
0.00032132529
0.00032132529
0.00032132529
0.00032132529
0.00032132529
0.00032132529
0.00032132529
0.00032132529
0.00032132529
0.00032132529
0.00032132529
0.00032132529
0.00032132529
0.00032132529
0.00032132529
0.00032132529
0.00032132529
0.00032132529
0.00032132529
0.00032132529
)
;
        value           nonuniform List<scalar> 
40
(
734.17712
736.28931
740.39047
746.20067
724.73006
727.20507
732.04751
738.96148
704.91273
708.09411
714.49167
723.91787
672.77482
676.76858
685.36391
699.22666
626.04096
629.65524
639.13709
658.28264
626.18439
629.80515
639.29056
658.43713
673.33207
677.32534
685.91264
699.76295
705.63343
708.81718
715.21535
724.63547
725.47924
727.93714
732.76407
739.67498
734.88238
736.96842
741.06422
746.86998
)
;
        Tnbr            T;
        thicknessLayers List<scalar> 0();
        kappaLayers     List<scalar> 0();
        kappaMethod     solidThermo;
        kappa           none;
        alphaAni        none;
        alpha           none;
        field           T;
    }
    heater_to_rightSolid
    {
        type            compressible::turbulentTemperatureCoupledBaffleMixed;
        refValue        nonuniform List<scalar> 10(753.37756 747.50312 735.7166 718.18106 697.57875 697.73109 718.70966 736.4263 748.2387 754.07468);
        refGradient     uniform 0;
        valueFraction   nonuniform List<scalar> 10(0.49999997 0.49999997 0.49999997 0.49999997 0.49999997 0.49999997 0.49999997 0.49999997 0.49999997 0.49999997);
        value           nonuniform List<scalar> 10(749.82854 743.27934 729.85996 708.73594 677.95595 678.10917 709.26863 730.57403 744.00421 750.51193);
        Tnbr            T;
        thicknessLayers List<scalar> 0();
        kappaLayers     List<scalar> 0();
        kappaMethod     solidThermo;
        kappa           none;
        alphaAni        none;
        alpha           none;
        field           T;
    }
    heater_to_leftSolid
    {
        type            compressible::turbulentTemperatureCoupledBaffleMixed;
        refValue        nonuniform List<scalar> 10(906.16722 906.18031 906.25414 906.38919 906.54101 906.60549 906.75829 907.15086 907.51846 907.79342);
        refGradient     uniform 0;
        valueFraction   nonuniform List<scalar> 10(2.0832898e-05 2.0832898e-05 2.0832898e-05 2.0832898e-05 2.0832898e-05 2.0832898e-05 2.0832898e-05 2.0832898e-05 2.0832898e-05 2.0832898e-05);
        value           nonuniform List<scalar> 10(734.25135 724.81263 704.98587 672.83372 626.08686 626.23054 673.39176 705.70733 725.5623 734.95676);
        Tnbr            T;
        thicknessLayers List<scalar> 1(0.001);
        kappaLayers     List<scalar> 1(0.0005);
        kappaMethod     solidThermo;
        kappa           none;
        alphaAni        none;
        alpha           none;
        field           T;
    }
    heater_to_bottomWater
    {
        type            compressible::turbulentTemperatureCoupledBaffleMixed;
        refValue        nonuniform List<scalar> 
92
(
937.19549
936.01593
934.57921
932.57933
933.75358
933.65354
932.48315
931.74387
931.85203
929.06974
926.86489
925.35888
926.07761
922.35939
920.22495
919.60783
920.44484
919.08212
921.45924
920.98181
919.62103
920.67019
923.0853
922.75279
918.14159
916.74326
917.35639
919.53339
919.45004
919.45004
916.10599
916.10599
915.12286
915.12286
915.9787
915.9787
926.10382
909.15372
933.63176
912.15263
937.17519
914.25105
939.76616
911.68925
941.87207
913.73405
921.8411
925.87522
927.90505
925.70154
914.30035
927.2735
934.66389
931.50817
933.0157
929.76212
913.50875
933.30017
940.90594
935.15947
934.23898
931.68147
914.30204
931.19622
939.25809
937.10028
937.67573
938.19525
913.95425
932.7405
936.49021
933.17593
931.1889
932.10881
912.39553
933.52622
933.17593
931.1889
932.10881
933.52622
946.51467
944.50328
942.86142
941.77745
949.84937
943.17261
942.12663
942.26363
959.04289
943.85533
944.47104
941.84803
)
;
        refGradient     uniform 0;
        valueFraction   nonuniform List<scalar> 
92
(
0.0075140686
0.0075140686
0.0075140686
0.0075140686
0.0075140686
0.0075140686
0.0075140686
0.0075140686
0.0075140686
0.0075140686
0.0075140686
0.0075140686
0.0075140686
0.0075140686
0.0075140686
0.0075140686
0.0075140686
0.0075140686
0.0075140686
0.0075140686
0.0075140686
0.0075140686
0.0075140686
0.0075140686
0.0075140686
0.0075140686
0.0075140686
0.0075140686
0.0075140686
0.0075140686
0.0075140686
0.0075140686
0.0075140686
0.0075140686
0.0075140686
0.0075140686
0.0075140679
0.0075140679
0.0075140679
0.0075140679
0.0075140679
0.0075140679
0.0075140679
0.0075140679
0.0075140679
0.0075140679
0.0075140679
0.0075140686
0.0075140686
0.0075140686
0.0075140679
0.0075140686
0.0075140679
0.0075140686
0.0075140686
0.0075140686
0.0075140679
0.0075140686
0.0075140679
0.0075140686
0.0075140686
0.0075140686
0.0075140679
0.0075140686
0.0075140679
0.0075140686
0.0075140686
0.0075140686
0.0075140679
0.0075140686
0.0075140679
0.0075140686
0.0075140686
0.0075140686
0.0075140679
0.0075140686
0.0075140686
0.0075140686
0.0075140686
0.0075140686
0.0075140686
0.0075140686
0.0075140686
0.0075140686
0.0075140686
0.0075140686
0.0075140686
0.0075140686
0.0075140686
0.0075140686
0.0075140686
0.0075140686
)
;
        value           nonuniform List<scalar> 
92
(
735.77273
737.8616
741.92396
747.6794
726.37888
728.83874
733.64132
740.50343
706.6864
709.82717
716.16575
725.51631
350.03104
347.30944
347.31327
349.95996
426.43391
423.0949
423.30218
426.78643
491.8347
489.02275
489.70795
493.37099
547.43131
545.67082
547.52596
551.94995
674.68198
593.38085
678.62306
593.50993
687.14969
598.05443
700.91903
605.5438
350.03124
349.88141
426.53299
426.72009
491.96661
493.30711
547.5938
551.891
593.54933
605.52694
349.9858
350.01611
347.37422
347.39203
349.97789
350.07538
426.56122
426.53751
423.25964
423.4416
426.82054
426.96926
492.03985
491.99668
489.2025
489.86935
493.41229
493.53923
547.65868
547.64247
545.93407
547.81065
552.05022
552.19138
593.59825
593.57335
593.74453
598.31685
605.65817
605.81695
675.33897
679.28971
687.82251
701.58362
707.51261
710.66173
717.00515
726.35274
727.24384
729.63748
734.42566
741.29128
736.63698
738.59471
742.66726
748.41367
)
;
        Tnbr            T;
        thicknessLayers List<scalar> 0();
        kappaLayers     List<scalar> 0();
        kappaMethod     solidThermo;
        kappa           none;
        alphaAni        none;
        alpha           none;
        field           T;
    }
}


// ************************************************************************* //
