/*--------------------------------*- C++ -*----------------------------------*\
| =========                 |                                                 |
| \\      /  F ield         | OpenFOAM: The Open Source CFD Toolbox           |
|  \\    /   O peration     | Version:  v2012                                 |
|   \\  /    A nd           | Website:  www.openfoam.com                      |
|    \\/     M anipulation  |                                                 |
\*---------------------------------------------------------------------------*/
FoamFile
{
    version     2.0;
    format      ascii;
    class       volScalarField;
    location    "330/bottomWater";
    object      p;
}
// * * * * * * * * * * * * * * * * * * * * * * * * * * * * * * * * * * * * * //

dimensions      [1 -1 -2 0 0 0 0];


internalField   nonuniform List<scalar> 
1460
(
353.45118
353.45104
353.44942
353.45226
353.45458
353.47303
353.47073
353.46187
353.45402
353.44316
353.44811
353.44951
353.44884
353.45677
353.4548
353.45966
353.45976
353.45836
353.46045
353.46772
353.4554
353.4547
353.46775
353.46696
353.47109
353.48009
353.47041
353.47241
353.46762
353.46913
274.42327
274.42081
274.41923
274.42505
274.43961
274.49881
274.50532
274.47152
274.4511
274.42843
274.42958
274.42722
274.44719
274.49259
274.48907
274.48074
274.46059
274.42826
274.41143
274.41006
274.41027
274.41558
274.47298
274.48597
274.48976
274.50984
274.49305
274.4766
274.44358
274.42205
196.33051
196.31722
196.31414
196.30971
196.3012
196.24464
196.26736
196.25715
196.26296
196.27852
196.29419
196.2805
196.25324
196.24917
196.26139
196.26224
196.26687
196.28017
196.28545
196.2967
196.26778
196.24338
196.23248
196.27116
196.26084
196.26544
196.2643
196.25362
196.23537
196.27242
117.66823
117.65846
117.66499
117.68791
117.68127
117.65686
117.66836
117.66674
117.65627
117.66719
117.6862
117.68594
117.65943
117.6748
117.68509
117.67717
117.67961
117.66378
117.66379
117.67672
117.67448
117.65629
117.65924
117.67513
117.68456
117.71535
117.69279
117.67579
117.66335
117.67509
39.257143
39.25225
39.234734
39.227948
39.224174
39.243081
39.235652
39.240179
39.259944
39.243923
39.248503
39.241544
39.243344
39.234922
39.227665
39.226036
39.231218
39.227853
39.233549
39.251301
39.248038
39.248139
39.243246
39.222464
39.224235
39.239623
39.22958
39.232669
39.242998
39.24184
353.44476
353.44378
353.44266
353.44246
353.4471
353.44561
353.45245
353.44841
353.45187
353.4478
353.44319
353.45076
353.43982
353.46236
353.45625
353.45749
353.4637
353.45812
353.46693
353.46841
353.46909
353.4637
353.45917
353.47318
353.45977
353.47397
353.46614
353.46408
353.46279
353.46908
274.42599
274.43759
274.43586
274.42639
274.43074
274.43409
274.43005
274.40886
274.40893
274.41957
274.41782
274.42152
274.4352
274.45868
274.44926
274.42144
274.41366
274.42354
274.42933
274.41614
274.40142
274.40187
274.40698
274.45706
274.43551
274.46939
274.4492
274.4171
274.40381
274.40748
196.30156
196.27839
196.26526
196.31046
196.32211
196.31394
196.30997
196.30083
196.31833
196.30953
196.29568
196.27876
196.26021
196.24819
196.25309
196.27614
196.2693
196.29003
196.2532
196.28324
196.292
196.2689
196.24517
196.23897
196.26067
196.25222
196.23981
196.24899
196.2584
196.29753
117.65614
117.63217
117.63255
117.65147
117.65248
117.62835
117.62416
117.64822
117.674
117.67828
117.67325
117.67819
117.65127
117.67897
117.67681
117.66834
117.69815
117.65037
117.64638
117.62983
117.68269
117.66955
117.63259
117.64697
117.63266
117.66394
117.66404
117.6397
117.65191
117.67196
39.247368
39.259588
39.237789
39.218458
39.237711
39.256813
39.27527
39.250599
39.263989
39.254652
39.253059
39.246841
39.250741
39.231701
39.240227
39.241683
39.254327
39.231422
39.239833
39.264068
39.267927
39.255656
39.2529
39.249201
39.237539
39.21836
39.23617
39.248951
39.249727
39.253391
353.46262
353.46517
353.46805
353.46475
353.4699
353.46833
353.4582
353.45528
353.45798
353.44038
353.45744
353.44191
353.45002
353.44753
353.4501
353.45319
353.45114
353.46474
353.46006
353.46892
353.45961
353.47166
353.46884
353.46541
353.46712
353.46625
353.46298
353.46852
353.47123
353.47107
274.42961
274.46561
274.50456
274.48076
274.48073
274.46547
274.43577
274.41668
274.4162
274.42451
274.44688
274.43706
274.41715
274.43341
274.42057
274.42043
274.43209
274.45343
274.4707
274.4434
274.4054
274.40385
274.39819
274.41254
274.42557
274.42758
274.4126
274.39531
274.3982
274.40466
196.28926
196.24675
196.23783
196.26277
196.26297
196.26738
196.28338
196.29392
196.2966
196.2711
196.24529
196.27962
196.28803
196.29756
196.29664
196.28253
196.25712
196.25099
196.25524
196.24039
196.2625
196.30799
196.29459
196.28126
196.29051
196.26943
196.28336
196.29344
196.32246
196.31982
117.6693
117.65384
117.66236
117.67092
117.67828
117.67531
117.63365
117.67682
117.67637
117.65362
117.66697
117.65019
117.69729
117.66764
117.6802
117.6824
117.66075
117.67558
117.65801
117.64549
117.65515
117.68001
117.66942
117.63263
117.63765
117.63168
117.64376
117.67561
117.68668
117.68982
39.233741
39.238488
39.229876
39.209026
39.223917
39.224901
39.239369
39.249472
39.261325
39.256019
39.260041
39.263349
39.242457
39.24573
39.256244
39.248655
39.255867
39.231389
39.235058
39.256819
39.259532
39.27398
39.264959
39.270862
39.284632
39.255646
39.248037
39.26098
39.265821
39.266588
353.46568
353.46245
353.47678
353.48472
353.46442
353.45654
353.45666
353.45592
353.4508
353.45255
353.45695
353.45988
353.45143
353.45743
353.45084
353.4501
353.46319
353.46875
353.46677
353.4769
353.46443
353.4648
353.46833
353.46585
353.45874
353.45954
353.45981
353.46614
353.46219
353.45421
274.41728
274.42033
274.478
274.49279
274.44367
274.42147
274.43893
274.42246
274.42624
274.44659
274.48692
274.45245
274.41744
274.42019
274.41994
274.43311
274.47152
274.49165
274.47475
274.48242
274.41159
274.39324
274.40528
274.39485
274.41937
274.41376
274.39648
274.40394
274.40226
274.41664
196.29329
196.2546
196.23675
196.22701
196.25066
196.30235
196.31767
196.30165
196.28707
196.268
196.25636
196.23126
196.26182
196.27972
196.27276
196.25426
196.24359
196.26514
196.26482
196.23393
196.24873
196.27467
196.31757
196.2872
196.27982
196.28826
196.27441
196.32287
196.30465
196.29555
117.66467
117.62104
117.63781
117.64526
117.6325
117.66404
117.65353
117.67856
117.65515
117.677
117.66644
117.66263
117.6635
117.68451
117.68171
117.65695
117.67807
117.68577
117.67048
117.65224
117.65264
117.66628
117.6788
117.67631
117.61845
117.63094
117.67304
117.6752
117.66566
117.64383
39.255604
39.255692
39.249528
39.241756
39.259202
39.233819
39.233832
39.255719
39.248705
39.232816
39.236016
39.255532
39.262124
39.261636
39.249973
39.25453
39.245636
39.231924
39.229741
39.250054
39.25631
39.256783
39.275113
39.271238
39.275252
39.25706
39.23241
39.267884
39.254666
39.272161
353.45887
353.45561
353.45019
353.45276
353.45879
353.45863
353.45479
353.45021
353.45041
353.4623
353.47329
353.46146
353.46278
353.47459
353.46123
353.48469
353.47145
353.47646
353.47491
353.46626
353.48216
353.48527
353.46627
353.4677
353.46377
353.48752
274.41409
274.40599
274.4149
274.43043
274.42212
274.43921
274.41678
274.421
274.42652
274.47864
274.49054
274.42929
274.41732
274.48136
274.42896
274.48426
274.43087
274.40313
274.40253
274.40603
274.47003
274.47231
274.41604
274.41637
274.41402
274.4557
196.34294
196.30419
196.28809
196.2778
196.29712
196.29693
196.29456
196.29232
196.27301
196.25703
196.24297
196.2551
196.28365
196.26031
196.29247
196.22818
196.24658
196.2866
196.28392
196.25475
196.23487
196.23289
196.27201
196.27646
196.26837
196.24547
117.68377
117.67051
117.64393
117.63023
117.65022
117.63645
117.68154
117.68215
117.67492
117.6683
117.65763
117.63833
117.68133
117.70459
117.67202
117.65607
117.65666
117.67381
117.67976
117.61616
117.63049
117.62967
117.64442
117.65864
117.62819
117.64116
39.269075
39.265335
39.258513
39.263007
39.27445
39.248206
39.235937
39.236369
39.235896
39.228862
39.247008
39.256048
39.256276
39.22991
39.212016
39.242502
39.24937
39.248753
39.266879
39.257131
39.252978
39.238686
39.213982
39.222519
39.229848
39.248784
353.45823
353.45126
353.46616
353.45587
353.46235
353.46429
353.45432
353.46213
353.4684
353.46991
353.47424
353.46622
353.47093
353.45622
353.46863
353.45463
353.48637
353.47869
353.47714
353.46704
353.49988
353.4617
353.48318
353.48288
353.49473
353.49253
274.42004
274.42995
274.45778
274.42353
274.40674
274.40505
274.41846
274.44124
274.47191
274.48005
274.45714
274.39847
274.41529
274.43091
274.42555
274.42943
274.44881
274.42778
274.40027
274.44323
274.49487
274.42627
274.4749
274.46689
274.45134
274.44104
196.29956
196.28512
196.25533
196.29167
196.2926
196.30133
196.26883
196.25478
196.26174
196.25741
196.2343
196.25321
196.31869
196.3243
196.29603
196.25944
196.2175
196.30054
196.24919
196.25625
196.23427
196.30622
196.27178
196.27283
196.2826
196.30269
117.67538
117.63536
117.65874
117.64808
117.70813
117.68763
117.63875
117.65819
117.6712
117.68209
117.63475
117.66979
117.68675
117.68438
117.67246
117.6526
117.66837
117.62498
117.6808
117.62555
117.64314
117.65726
117.6886
117.68782
117.64399
117.63636
39.253328
39.262971
39.260965
39.233437
39.270616
39.262924
39.268699
39.25107
39.237918
39.241236
39.246382
39.256621
39.273192
39.232457
39.215401
39.237213
39.251424
39.268482
39.26164
39.25583
39.248178
39.215426
39.215159
39.232231
39.222304
39.255305
353.45793
353.46359
353.47642
353.47472
353.47358
353.47059
353.47032
353.47341
353.45988
353.4703
353.46037
353.44936
353.45392
353.45652
353.45946
353.45572
353.45311
353.45844
353.45526
353.46884
353.4678
353.47055
353.46878
353.4595
353.46345
353.4714
353.4785
353.48751
353.49195
353.49132
274.43688
274.44744
274.51325
274.46339
274.40777
274.40987
274.4438
274.4827
274.47368
274.4924
274.46196
274.42312
274.40522
274.41736
274.41346
274.42193
274.42692
274.42592
274.41387
274.45007
274.43693
274.39821
274.3972
274.41156
274.43764
274.46796
274.47388
274.46256
274.4297
274.39345
196.2989
196.25598
196.24137
196.23699
196.27248
196.28705
196.24493
196.26196
196.27866
196.2654
196.24794
196.25565
196.27815
196.32271
196.32188
196.3195
196.30146
196.29259
196.27304
196.25576
196.24927
196.29696
196.29247
196.27086
196.24836
196.2683
196.25292
196.26941
196.2446
196.28245
117.6822
117.66396
117.66392
117.65083
117.67
117.6799
117.63761
117.66042
117.66353
117.6919
117.66637
117.64338
117.67323
117.69171
117.69556
117.6816
117.65743
117.66559
117.65947
117.65504
117.64982
117.65696
117.66796
117.61215
117.62431
117.64752
117.6729
117.65925
117.61472
117.67215
39.234395
39.21616
39.243958
39.245178
39.255687
39.262571
39.258861
39.246332
39.231987
39.236676
39.232595
39.25354
39.252459
39.239107
39.240023
39.228703
39.2354
39.227793
39.236528
39.255961
39.255631
39.256604
39.27011
39.255931
39.253278
39.221252
39.223478
39.221887
39.229113
39.242457
353.46024
353.45255
353.47118
353.4829
353.48221
353.47798
353.47663
353.47304
353.47652
353.46789
353.4731
353.45895
353.45088
353.46025
353.46004
353.45395
353.46441
353.45881
353.47574
353.47943
353.47488
353.47573
353.47282
353.46615
353.45869
353.47695
353.4784
353.49112
353.49364
353.49157
274.42554
274.41795
274.46491
274.47446
274.40116
274.39823
274.40663
274.42287
274.45981
274.48834
274.51281
274.44584
274.42013
274.41812
274.42511
274.42911
274.45764
274.47204
274.485
274.4523
274.38053
274.39615
274.39968
274.41867
274.42111
274.44979
274.44853
274.43524
274.40025
274.38594
196.30532
196.27586
196.24119
196.25653
196.28961
196.30902
196.29515
196.25606
196.26008
196.2543
196.2378
196.23507
196.26361
196.29825
196.28202
196.30036
196.27056
196.26882
196.253
196.25523
196.26559
196.3345
196.32484
196.29403
196.27476
196.26763
196.30475
196.26997
196.28893
196.32217
117.68044
117.65772
117.65784
117.65359
117.65832
117.68905
117.67248
117.6525
117.68074
117.68391
117.67244
117.67297
117.66526
117.67558
117.65124
117.667
117.64814
117.63634
117.65138
117.64105
117.65491
117.66855
117.66819
117.60481
117.61575
117.63768
117.63766
117.61859
117.59191
117.67533
39.247967
39.248786
39.2615
39.266818
39.266937
39.279373
39.252085
39.252922
39.234707
39.238372
39.242707
39.251855
39.253595
39.2406
39.23411
39.227467
39.228629
39.24323
39.262439
39.259023
39.255613
39.277751
39.27444
39.278957
39.260181
39.240253
39.233651
39.244439
39.263447
39.276622
353.46043
353.46298
353.45868
353.45824
353.47975
353.46657
353.47211
353.46863
353.4652
353.46268
353.46679
353.45441
353.46113
353.46077
353.46636
353.46739
353.46629
353.47178
353.47886
353.47417
353.47018
353.47396
353.46729
353.46069
353.46043
353.45527
353.48005
353.49472
353.49395
353.4938
274.41249
274.40206
274.41618
274.42992
274.44821
274.4074
274.40451
274.40235
274.41346
274.43437
274.4532
274.4225
274.40835
274.432
274.45732
274.47411
274.47941
274.48859
274.46616
274.38239
274.39019
274.39655
274.42227
274.42704
274.42295
274.41258
274.46729
274.45881
274.38049
274.38685
196.31973
196.30905
196.27611
196.26798
196.23087
196.26833
196.28273
196.29497
196.26745
196.26357
196.22579
196.27861
196.26271
196.27319
196.23483
196.27284
196.27171
196.24117
196.24127
196.25053
196.31233
196.33336
196.33051
196.3248
196.31815
196.30337
196.23457
196.25844
196.26488
196.32852
117.67697
117.6802
117.66363
117.65685
117.65473
117.62783
117.67911
117.6895
117.65693
117.65492
117.6595
117.65396
117.68131
117.62922
117.63875
117.65356
117.65946
117.65226
117.6423
117.64471
117.6651
117.67718
117.5967
117.59732
117.64599
117.64575
117.61467
117.63146
117.60687
117.68312
39.259212
39.25769
39.249306
39.253086
39.259314
39.255266
39.242303
39.24199
39.23968
39.257372
39.25741
39.256788
39.258684
39.263577
39.247802
39.230796
39.22332
39.242791
39.24292
39.246077
39.26571
39.276837
39.28804
39.269821
39.246686
39.230589
39.243162
39.258673
39.272087
39.289413
353.46048
353.46188
353.45889
353.46372
353.47173
353.46884
353.4728
353.45843
353.46122
353.45821
353.45106
353.45442
353.45513
353.45126
353.44877
353.44698
353.4432
353.44441
353.46148
353.47061
353.4588
353.47107
353.46555
353.46312
353.45895
353.4598
353.47732
353.49927
353.4878
353.49089
274.45459
274.41309
274.42851
274.44989
274.47845
274.47223
274.45593
274.43018
274.40869
274.41454
274.42715
274.41391
274.41349
274.41286
274.42898
274.44952
274.4547
274.44358
274.48008
274.45608
274.40114
274.40471
274.40786
274.40933
274.42476
274.42355
274.4788
274.47555
274.37936
274.39059
196.28556
196.3016
196.29786
196.27655
196.26514
196.27016
196.25947
196.28737
196.27564
196.31661
196.27667
196.31467
196.32274
196.3103
196.3015
196.30705
196.30614
196.31501
196.27261
196.24278
196.26562
196.30751
196.33501
196.3341
196.34417
196.29947
196.2496
196.25074
196.26186
196.31093
117.65939
117.67245
117.67626
117.685
117.68141
117.66786
117.67024
117.64375
117.68192
117.67987
117.64823
117.67948
117.67211
117.65668
117.6574
117.63868
117.65013
117.66
117.66939
117.65268
117.64486
117.67029
117.65909
117.65866
117.68497
117.67162
117.64133
117.64025
117.61907
117.68728
39.278111
39.251905
39.242849
39.23352
39.238159
39.234335
39.235311
39.257483
39.249931
39.260508
39.275555
39.262798
39.261767
39.250533
39.238541
39.26413
39.244027
39.230141
39.230253
39.238622
39.250264
39.24991
39.246992
39.239894
39.241409
39.226608
39.230258
39.258083
39.275715
39.284625
)
;

boundaryField
{
    minX
    {
        type            calculated;
        value           nonuniform List<scalar> 
50
(
353.45118
274.42327
196.33051
117.66823
39.257143
353.44476
274.42599
196.30156
117.65614
39.247368
353.46262
274.42961
196.28926
117.6693
39.233741
353.46568
274.41728
196.29329
117.66467
39.255604
353.45887
274.41409
196.34294
117.68377
39.269075
353.45823
274.42004
196.29956
117.67538
39.253328
353.45793
274.43688
196.2989
117.6822
39.234395
353.46024
274.42554
196.30532
117.68044
39.247967
353.46043
274.41249
196.31973
117.67697
39.259212
353.46048
274.45459
196.28556
117.65939
39.278111
)
;
    }
    maxX
    {
        type            calculated;
        value           nonuniform List<scalar> 
50
(
353.46913
274.42205
196.27242
117.67509
39.24184
353.46908
274.40748
196.29753
117.67196
39.253391
353.47107
274.40466
196.31982
117.68982
39.266588
353.45421
274.41664
196.29555
117.64383
39.272161
353.48752
274.4557
196.24547
117.64116
39.248784
353.49253
274.44104
196.30269
117.63636
39.255305
353.49132
274.39345
196.28245
117.67215
39.242457
353.49157
274.38594
196.32217
117.67533
39.276622
353.4938
274.38685
196.32852
117.68312
39.289413
353.49089
274.39059
196.31093
117.68728
39.284625
)
;
    }
    minY
    {
        type            calculated;
        value           nonuniform List<scalar> 
292
(
392.4
392.4
392.4
392.4
392.4
392.4
392.4
392.4
392.4
392.4
392.4
392.4
392.4
392.4
392.4
392.4
392.4
392.4
392.4
392.4
392.4
392.4
392.4
392.4
392.4
392.4
392.4
392.4
392.4
392.4
392.4
392.4
392.4
392.4
392.4
392.4
392.4
392.4
392.4
392.4
392.4
392.4
392.4
392.4
392.4
392.4
392.4
392.4
392.4
392.4
392.4
392.4
392.4
392.4
392.4
392.4
392.4
392.4
392.4
392.4
392.4
392.4
392.4
392.4
392.4
392.4
392.4
392.4
392.4
392.4
392.4
392.4
392.4
392.4
392.4
392.4
392.4
392.4
392.4
392.4
392.4
392.4
392.4
392.4
392.4
392.4
392.4
392.4
392.4
392.4
392.4
392.4
392.4
392.4
392.4
392.4
392.4
392.4
392.4
392.4
392.4
392.4
392.4
392.4
392.4
392.4
392.4
392.4
392.4
392.4
392.4
392.4
392.4
392.4
392.4
392.4
392.4
392.4
392.4
392.4
392.4
392.4
392.4
392.4
392.4
392.4
392.4
392.4
392.4
392.4
392.4
392.4
392.4
392.4
392.4
392.4
392.4
392.4
392.4
392.4
392.4
392.4
392.4
392.4
392.4
392.4
392.4
392.4
392.4
392.4
392.4
392.4
392.4
392.4
392.4
392.4
392.4
392.4
392.4
392.4
392.4
392.4
392.4
392.4
392.4
392.4
392.4
392.4
392.4
392.4
392.4
392.4
392.4
392.4
392.4
392.4
392.4
392.4
392.4
392.4
392.4
392.4
392.4
392.4
392.4
392.4
392.4
392.4
392.4
392.4
392.4
392.4
392.4
392.4
392.4
392.4
392.4
392.4
392.4
392.4
392.4
392.4
392.4
392.4
392.4
392.4
392.4
392.4
392.4
392.4
392.4
392.4
392.4
392.4
392.4
392.4
392.4
392.4
392.4
392.4
392.4
392.4
392.4
392.4
392.4
392.4
392.4
392.4
392.4
392.4
392.4
392.4
392.4
392.4
392.4
392.4
392.4
392.4
392.4
392.4
392.4
392.4
392.4
392.4
392.4
392.4
392.4
392.4
392.4
392.4
392.4
392.4
392.4
392.4
392.4
392.4
392.4
392.4
392.4
392.4
392.4
392.4
392.4
392.4
392.4
392.4
392.4
392.4
392.4
392.4
392.4
392.4
392.4
392.4
392.4
392.4
392.4
392.4
392.4
392.4
392.4
392.4
392.4
392.4
392.4
392.4
392.4
392.4
392.4
392.4
392.4
392.4
)
;
    }
    minZ
    {
        type            calculated;
        value           nonuniform List<scalar> 
150
(
353.45118
274.42327
196.33051
117.66823
39.257143
353.45104
274.42081
196.31722
117.65846
39.25225
353.44942
274.41923
196.31414
117.66499
39.234734
353.45226
274.42505
196.30971
117.68791
39.227948
353.45458
274.43961
196.3012
117.68127
39.224174
353.47303
274.49881
196.24464
117.65686
39.243081
353.47073
274.50532
196.26736
117.66836
39.235652
353.46187
274.47152
196.25715
117.66674
39.240179
353.45402
274.4511
196.26296
117.65627
39.259944
353.44316
274.42843
196.27852
117.66719
39.243923
353.44811
274.42958
196.29419
117.6862
39.248503
353.44951
274.42722
196.2805
117.68594
39.241544
353.44884
274.44719
196.25324
117.65943
39.243344
353.45677
274.49259
196.24917
117.6748
39.234922
353.4548
274.48907
196.26139
117.68509
39.227665
353.45966
274.48074
196.26224
117.67717
39.226036
353.45976
274.46059
196.26687
117.67961
39.231218
353.45836
274.42826
196.28017
117.66378
39.227853
353.46045
274.41143
196.28545
117.66379
39.233549
353.46772
274.41006
196.2967
117.67672
39.251301
353.4554
274.41027
196.26778
117.67448
39.248038
353.4547
274.41558
196.24338
117.65629
39.248139
353.46775
274.47298
196.23248
117.65924
39.243246
353.46696
274.48597
196.27116
117.67513
39.222464
353.47109
274.48976
196.26084
117.68456
39.224235
353.48009
274.50984
196.26544
117.71535
39.239623
353.47041
274.49305
196.2643
117.69279
39.22958
353.47241
274.4766
196.25362
117.67579
39.232669
353.46762
274.44358
196.23537
117.66335
39.242998
353.46913
274.42205
196.27242
117.67509
39.24184
)
;
    }
    maxZ
    {
        type            calculated;
        value           nonuniform List<scalar> 
150
(
353.46048
274.45459
196.28556
117.65939
39.278111
353.46188
274.41309
196.3016
117.67245
39.251905
353.45889
274.42851
196.29786
117.67626
39.242849
353.46372
274.44989
196.27655
117.685
39.23352
353.47173
274.47845
196.26514
117.68141
39.238159
353.46884
274.47223
196.27016
117.66786
39.234335
353.4728
274.45593
196.25947
117.67024
39.235311
353.45843
274.43018
196.28737
117.64375
39.257483
353.46122
274.40869
196.27564
117.68192
39.249931
353.45821
274.41454
196.31661
117.67987
39.260508
353.45106
274.42715
196.27667
117.64823
39.275555
353.45442
274.41391
196.31467
117.67948
39.262798
353.45513
274.41349
196.32274
117.67211
39.261767
353.45126
274.41286
196.3103
117.65668
39.250533
353.44877
274.42898
196.3015
117.6574
39.238541
353.44698
274.44952
196.30705
117.63868
39.26413
353.4432
274.4547
196.30614
117.65013
39.244027
353.44441
274.44358
196.31501
117.66
39.230141
353.46148
274.48008
196.27261
117.66939
39.230253
353.47061
274.45608
196.24278
117.65268
39.238622
353.4588
274.40114
196.26562
117.64486
39.250264
353.47107
274.40471
196.30751
117.67029
39.24991
353.46555
274.40786
196.33501
117.65909
39.246992
353.46312
274.40933
196.3341
117.65866
39.239894
353.45895
274.42476
196.34417
117.68497
39.241409
353.4598
274.42355
196.29947
117.67162
39.226608
353.47732
274.4788
196.2496
117.64133
39.230258
353.49927
274.47555
196.25074
117.64025
39.258083
353.4878
274.37936
196.26186
117.61907
39.275715
353.49089
274.39059
196.31093
117.68728
39.284625
)
;
    }
    bottomWater_to_rightSolid
    {
        type            calculated;
        value           nonuniform List<scalar> 
130
(
-0.012146853
-0.0064505272
0.011301403
0.0080379645
0.0081387687
0.003245618
-0.017535733
-0.015765079
-0.00037712851
-0.010420499
-0.0073311897
0.0029977908
0.0018404636
-0.0085782381
-0.00016708738
0.02406818
0.027927206
0.015655922
0.012900228
0.0092011977
-0.0024612135
-0.021640268
-0.003830485
0.0089509152
0.009727007
0.013390953
-0.0086114834
-0.0049422564
0.016818947
0.019531925
0.033979932
0.024959101
0.030861875
0.044631623
0.015646207
0.008036981
0.020980002
0.025820844
0.026587978
-0.0080764671
-0.010259033
0.010054299
0.016310219
0.016783363
0.035112821
0.031237912
0.035251545
0.017059832
-0.0075903793
0.027884458
0.014666148
0.032160696
-0.010090428
-0.027984252
0.0025022666
0.0093699395
0.0087530842
0.026879403
0.017131322
0.012977646
-0.0013141411
-0.026018022
-0.017481455
-0.010152024
0.0087838924
-0.0075428046
-0.024598964
-0.0027872499
0.011423813
0.028481929
0.021640354
0.015830201
0.0081780153
-0.024573954
-0.024841058
-0.00776922
-0.017696404
0.015305389
-0.012206659
-0.0034723799
0.015961084
0.015630632
0.016603817
0.030109851
0.015930528
0.013278181
-0.018748248
-0.016521679
-0.018112915
-0.010886926
0.0024570516
0.0032299732
0.022439328
0.019023327
0.015613211
0.03775068
0.034440309
0.038956883
0.020180961
0.00025266196
-0.0063492241
0.0044389114
0.023446533
0.036622475
0.0027905731
0.0029198237
0.0060771031
0.025709684
0.036836953
0.048040017
0.029821412
0.0066861535
-0.0094106004
0.0031624353
0.018672872
0.032086712
0.04941313
-0.0098592994
-0.009747435
-0.0013777958
0.010263823
0.0099103455
0.0069916044
-0.00010571823
0.0014092624
-0.013392413
-0.0097421506
0.018083033
0.035715493
0.044625457
)
;
    }
    bottomWater_to_leftSolid
    {
        type            calculated;
        value           nonuniform List<scalar> 
130
(
0.017142972
0.012249714
-0.0052662768
-0.01205169
-0.015826328
0.0030813209
-0.0043475007
0.00017865382
0.019943965
0.0039228865
0.0085029564
0.0015444559
0.0033441133
0.0073682727
0.019588252
-0.0022106809
-0.021542228
-0.0022885424
0.016813428
0.035269762
0.010599278
0.023988715
0.014651917
0.013059479
0.0068411087
0.010741371
-0.006259426
-0.0015123354
-0.010123731
-0.03097363
-0.016083205
-0.015099105
-0.00063147633
0.0094720432
0.021325416
0.016019425
0.020040509
0.023348636
0.0024572108
0.015604013
0.015692431
0.0095277623
0.0017558228
0.019202381
-0.006180812
-0.0061680079
0.015718844
0.0087046294
-0.0071841261
-0.0039844698
0.01553158
0.022124404
0.029075301
0.025335025
0.01851303
0.023006569
0.034449707
0.0082055836
-0.0040627263
-0.0036313549
-0.0041037577
-0.011137649
0.0070081679
0.016047613
0.01627649
0.013328392
0.022970707
0.02096545
-0.0065634239
0.030615665
0.02292431
0.028698582
0.0110702
-0.0020818768
0.0012363116
0.0063823932
0.016620646
0.033192232
-0.005605498
-0.0238401
0.0039582513
0.0051781814
0.01568665
0.022570633
0.018861233
0.0063323769
-0.0080133035
-0.0033238736
-0.0074049913
0.013539624
0.012459381
0.0079673035
0.0087864853
0.021500485
0.026818147
0.026936758
0.039372548
0.012085069
0.012921649
-0.0052930682
-0.0016277507
0.0027065867
0.01185536
0.013594631
0.019212046
0.017690367
0.0093061598
0.013085719
0.019314402
0.015266168
0.0023026004
0.0019900036
-0.00032004142
0.017371828
0.017410005
0.016788494
0.018684011
0.038110612
0.011905095
0.0028493387
-0.006480193
-0.0018410101
-0.0056647792
-0.004689484
0.017483273
0.00993113
0.02050769
0.035554916
0.022797555
0.021767461
)
;
    }
    bottomWater_to_heater
    {
        type            calculated;
        value           nonuniform List<scalar> 
92
(
-0.0050775577
-0.012334595
-0.013963546
-0.0087815432
-0.0082988761
0.00022654915
0.0016834409
0.014327081
0.0057303208
0.016243657
0.0086545054
0.015866952
353.45743
353.45084
353.4501
353.46319
274.42019
274.41994
274.43311
274.47152
196.27972
196.27276
196.25426
196.24359
117.68451
117.68171
117.65695
117.67807
0.021636255
39.261636
0.0099729208
39.249973
0.014529914
39.25453
0.0056357609
39.245636
353.46278
353.47459
274.41732
274.48136
196.28365
196.26031
117.68133
117.70459
39.256276
39.22991
353.47093
353.45652
353.45946
353.45572
353.45622
353.45311
274.41529
274.41736
274.41346
274.42193
274.43091
274.42692
196.31869
196.32271
196.32188
196.3195
196.3243
196.30146
117.68675
117.69171
117.69556
117.6816
117.68438
117.65743
39.273192
39.239107
39.240023
39.228703
39.232457
39.2354
-0.00089290902
2.3367626e-05
-0.011296778
-0.0045996768
0.00060010328
-0.0058901875
-0.01253328
-0.011370566
0.023576983
0.0078016322
-0.0092041489
-0.016679509
0.010533035
-0.0014590235
0.024130117
0.0040274099
)
;
    }
}


// ************************************************************************* //
