/*--------------------------------*- C++ -*----------------------------------*\
| =========                 |                                                 |
| \\      /  F ield         | OpenFOAM: The Open Source CFD Toolbox           |
|  \\    /   O peration     | Version:  v2012                                 |
|   \\  /    A nd           | Website:  www.openfoam.com                      |
|    \\/     M anipulation  |                                                 |
\*---------------------------------------------------------------------------*/
FoamFile
{
    version     2.0;
    format      ascii;
    class       volScalarField;
    location    "330/bottomWater";
    object      p_rgh;
}
// * * * * * * * * * * * * * * * * * * * * * * * * * * * * * * * * * * * * * //

dimensions      [1 -1 -2 0 0 0 0];


internalField   nonuniform List<scalar> 
1460
(
0.29117972
0.29104131
0.28942275
0.29226406
0.29457676
0.31302965
0.31072519
0.30187118
0.29401921
0.28315956
0.28811045
0.28950854
0.28884471
0.29676973
0.29479908
0.29965671
0.29976249
0.29836398
0.30044941
0.30771621
0.29539692
0.29469911
0.30775215
0.30696496
0.31108832
0.32009149
0.3104135
0.31240975
0.3076216
0.30913269
-0.25673465
-0.25919015
-0.26076938
-0.25495384
-0.2403907
-0.18119473
-0.17468036
-0.20848089
-0.22890314
-0.25157136
-0.25042395
-0.25277927
-0.23281251
-0.18740754
-0.19092757
-0.19925933
-0.21941124
-0.25173948
-0.26856885
-0.26994435
-0.26972977
-0.26442022
-0.20701537
-0.19403303
-0.19024233
-0.170164
-0.18695141
-0.20339815
-0.23641615
-0.25795164
0.13050692
0.11721592
0.11414276
0.10971328
0.1011983
0.044641108
0.067358858
0.057146072
0.062959834
0.078524848
0.094189142
0.080501303
0.053244654
0.049172874
0.0613913
0.062238398
0.066871392
0.080168188
0.08545226
0.096697341
0.067781844
0.043380069
0.032476094
0.071162566
0.060838269
0.065441002
0.064296813
0.053622935
0.035370251
0.072417392
-0.051766378
-0.061541822
-0.05500638
-0.032091846
-0.038728827
-0.063142432
-0.05164099
-0.053264879
-0.063726333
-0.052809025
-0.033800481
-0.034058588
-0.060570164
-0.045204961
-0.034909957
-0.04282831
-0.040385485
-0.056223071
-0.056209076
-0.043284914
-0.045520329
-0.063710499
-0.060756017
-0.0448655
-0.035438742
-0.0046486009
-0.027212352
-0.0442054
-0.05664747
-0.044905072
0.017142972
0.012249714
-0.0052662768
-0.01205169
-0.015826328
0.0030813209
-0.0043475007
0.00017865382
0.019943965
0.0039228865
0.0085029564
0.0015444559
0.0033441133
-0.0050775577
-0.012334595
-0.013963546
-0.0087815432
-0.012146853
-0.0064505272
0.011301403
0.0080379645
0.0081387687
0.003245618
-0.017535733
-0.015765079
-0.00037712851
-0.010420499
-0.0073311897
0.0029977908
0.0018404636
0.2847615
0.28378268
0.28266287
0.28245937
0.28710437
0.2856116
0.29244944
0.28840596
0.29187471
0.28779941
0.28318667
0.29075859
0.27982264
0.30236331
0.29625458
0.29748518
0.30370112
0.2981175
0.30692809
0.30840584
0.30908763
0.30370132
0.29917308
0.31318243
0.29976879
0.31396547
0.30614378
0.30407664
0.30278841
0.30907939
-0.25400588
-0.24240857
-0.24414398
-0.25361226
-0.24925862
-0.2459096
-0.24994995
-0.27113894
-0.27106781
-0.26043019
-0.26217637
-0.2584773
-0.24480199
-0.22131961
-0.23074384
-0.25855875
-0.26634373
-0.25646411
-0.25067454
-0.26385973
-0.27857835
-0.27813051
-0.2730172
-0.22293734
-0.2444939
-0.21061343
-0.23079807
-0.26290496
-0.27618945
-0.27251733
0.10156114
0.078391365
0.065260192
0.11046319
0.12210802
0.11394294
0.10997164
0.10083206
0.11833051
0.10952509
0.095677761
0.078758859
0.060214316
0.048187876
0.053087403
0.076137403
0.06929852
0.090030493
0.053203194
0.083238262
0.09199727
0.068896694
0.045173761
0.038972356
0.060674244
0.052219818
0.039811155
0.048988574
0.058401833
0.097533219
-0.063859367
-0.087829812
-0.087448457
-0.068533323
-0.067523304
-0.091654011
-0.095840938
-0.071781905
-0.046004394
-0.041721397
-0.046745709
-0.041811929
-0.06873253
-0.041026424
-0.043188197
-0.051661849
-0.021850855
-0.069631227
-0.073621994
-0.090167463
-0.037312019
-0.050446357
-0.08740854
-0.073033522
-0.087338013
-0.056055489
-0.055959345
-0.080298667
-0.068094206
-0.048035187
0.0073682727
0.019588252
-0.0022106809
-0.021542228
-0.0022885424
0.016813428
0.035269762
0.010599278
0.023988715
0.014651917
0.013059479
0.0068411087
0.010741371
-0.0082988761
0.00022654915
0.0016834409
0.014327081
-0.0085782381
-0.00016708738
0.02406818
0.027927206
0.015655922
0.012900228
0.0092011977
-0.0024612135
-0.021640268
-0.003830485
0.0089509152
0.009727007
0.013390953
0.30261545
0.30516969
0.30804951
0.30475063
0.30990192
0.30833306
0.2981959
0.29527621
0.29797647
0.28037888
0.2974387
0.28191078
0.29001645
0.2875335
0.29009836
0.2931915
0.2911413
0.30474395
0.30005665
0.30891809
0.29961265
0.31166231
0.30884426
0.30540535
0.30712278
0.30625061
0.30298426
0.30851938
0.31122614
0.31107362
-0.25038761
-0.21438801
-0.17544069
-0.19924166
-0.19927476
-0.21453067
-0.24422684
-0.26331816
-0.263801
-0.25548772
-0.23311547
-0.24293969
-0.26284672
-0.24659359
-0.25943025
-0.25957364
-0.24790696
-0.22657123
-0.20930336
-0.2366017
-0.27460248
-0.27614771
-0.28181357
-0.26746248
-0.25442906
-0.2524225
-0.2673956
-0.28469208
-0.28180466
-0.27534131
0.089256719
0.046750931
0.037827374
0.062767993
0.062966312
0.067377806
0.083379731
0.093915909
0.09659861
0.071096256
0.045290201
0.079624401
0.088026573
0.097563442
0.096641202
0.082531204
0.057118673
0.050993347
0.055236369
0.040388966
0.062495413
0.10798966
0.094594815
0.081259412
0.090505079
0.069427503
0.083362115
0.09343732
0.12246257
0.11982195
-0.05069552
-0.066163094
-0.057638723
-0.049083749
-0.041720419
-0.044685165
-0.086345245
-0.043177713
-0.043628714
-0.066382711
-0.053034418
-0.069805814
-0.022712575
-0.052357081
-0.039800951
-0.03759938
-0.059248845
-0.04441789
-0.061987001
-0.074511535
-0.064845635
-0.039990067
-0.050584728
-0.087371598
-0.082348536
-0.088320162
-0.07624264
-0.044387778
-0.03332288
-0.030181929
-0.006259426
-0.0015123354
-0.010123731
-0.03097363
-0.016083205
-0.015099105
-0.00063147633
0.0094720432
0.021325416
0.016019425
0.020040509
0.023348636
0.0024572108
0.0057303208
0.016243657
0.0086545054
0.015866952
-0.0086114834
-0.0049422564
0.016818947
0.019531925
0.033979932
0.024959101
0.030861875
0.044631623
0.015646207
0.008036981
0.020980002
0.025820844
0.026587978
0.30568385
0.30244927
0.31677802
0.32472316
0.30442113
0.29653991
0.29666443
0.29592423
0.29080197
0.29255494
0.29694943
0.29988269
0.29143081
0.29743198
0.29083553
0.29010075
0.30319336
0.30874997
0.30676847
0.31690153
0.30442953
0.30479627
0.30832916
0.30584666
0.29874439
0.29954192
0.299805
0.3061399
0.30219149
0.29420561
-0.26271764
-0.25967089
-0.20200378
-0.1872114
-0.23632983
-0.25853345
-0.24106895
-0.25753896
-0.25376078
-0.23341239
-0.1930771
-0.22755391
-0.2625646
-0.25980536
-0.26005512
-0.2468939
-0.20847919
-0.18835242
-0.20524522
-0.19758202
-0.26841467
-0.2867594
-0.27471824
-0.28514711
-0.26063068
-0.26623898
-0.28352262
-0.27606177
-0.27774125
-0.26336025
0.093293014
0.054601116
0.036749142
0.027010522
0.050658925
0.10235185
0.11766994
0.10165066
0.087072661
0.068003201
0.056361697
0.031261884
0.061821123
0.079723811
0.072756574
0.05426243
0.043587337
0.065139487
0.064823372
0.033927113
0.048727129
0.074667672
0.11757242
0.087201459
0.079817396
0.088255221
0.07440741
0.12287141
0.10465075
0.095552692
-0.055327572
-0.09896118
-0.082186841
-0.074744285
-0.087499206
-0.055960724
-0.06646562
-0.041436446
-0.064852155
-0.042998954
-0.053558531
-0.057371675
-0.056504329
-0.035491138
-0.038294451
-0.063048758
-0.041930868
-0.034231927
-0.049519853
-0.067763741
-0.067363413
-0.053718157
-0.041199066
-0.043693261
-0.10155198
-0.089060793
-0.04696119
-0.044802688
-0.054336051
-0.076168023
0.015604013
0.015692431
0.0095277623
0.0017558228
0.019202381
-0.006180812
-0.0061680079
0.015718844
0.0087046294
-0.0071841261
-0.0039844698
0.01553158
0.022124404
0.021636255
0.0099729208
0.014529914
0.0056357609
-0.0080764671
-0.010259033
0.010054299
0.016310219
0.016783363
0.035112821
0.031237912
0.035251545
0.017059832
-0.0075903793
0.027884458
0.014666148
0.032160696
0.29886532
0.29560748
0.29018593
0.29276352
0.29878516
0.29863305
0.29479479
0.29020566
0.29041035
0.30230456
0.31328787
0.30145954
0.30277848
0.31459009
0.30123079
0.32468569
0.31144753
0.31645701
0.31490753
0.30626382
0.32216353
0.32527365
0.30627149
0.30770418
0.30377362
0.32752258
-0.26590997
-0.27400563
-0.26510257
-0.24956974
-0.25787688
-0.24079415
-0.26322491
-0.25900463
-0.25347826
-0.20136115
-0.18946166
-0.25070737
-0.26267638
-0.198636
-0.2510375
-0.19573811
-0.24912818
-0.27686751
-0.27746802
-0.27397233
-0.20997463
-0.20768548
-0.2639641
-0.26363389
-0.26597717
-0.22429799
0.14293746
0.10419204
0.088088417
0.077795286
0.097124905
0.096928443
0.094556729
0.092320346
0.073014898
0.0570332
0.042969217
0.05510141
0.083654203
0.060306847
0.092474256
0.02818019
0.046576031
0.086604171
0.083917561
0.054749118
0.034873443
0.032887352
0.072014568
0.076462822
0.068369457
0.045470767
-0.036229481
-0.049489769
-0.076071882
-0.089772606
-0.069776894
-0.083546312
-0.038463895
-0.037846738
-0.045081413
-0.051701767
-0.062372284
-0.081667595
-0.038665867
-0.015412282
-0.047984522
-0.063927346
-0.063341118
-0.046187019
-0.040243054
-0.10384266
-0.089505233
-0.09032638
-0.075583485
-0.061357184
-0.091810019
-0.078838067
0.029075301
0.025335025
0.01851303
0.023006569
0.034449707
0.0082055836
-0.0040627263
-0.0036313549
-0.0041037577
-0.011137649
0.0070081679
0.016047613
0.01627649
-0.010090428
-0.027984252
0.0025022666
0.0093699395
0.0087530842
0.026879403
0.017131322
0.012977646
-0.0013141411
-0.026018022
-0.017481455
-0.010152024
0.0087838924
0.2982346
0.29125577
0.30616164
0.29586924
0.3023471
0.30428535
0.29432302
0.30212692
0.30840339
0.30990657
0.31424461
0.306221
0.3109321
0.29621694
0.30863004
0.29462558
0.32636506
0.31868846
0.31713937
0.30703761
0.33987808
0.30169727
0.32317925
0.32287731
0.33472543
0.33252698
-0.25996182
-0.25005146
-0.22221864
-0.25646878
-0.27326152
-0.27494652
-0.26153966
-0.23876062
-0.20809029
-0.19994804
-0.22286482
-0.28152867
-0.2647084
-0.24909153
-0.25445056
-0.25056996
-0.2311874
-0.25222024
-0.27972903
-0.2367666
-0.18512981
-0.25372717
-0.20509771
-0.21310911
-0.22866308
-0.23896326
0.099560836
0.085117546
0.055327906
0.091670805
0.092598543
0.1013269
0.068830414
0.05478266
0.061735406
0.057414686
0.034303782
0.053210613
0.11868833
0.12429841
0.096034927
0.059443774
0.017501413
0.10054266
0.049193123
0.05624809
0.034269
0.10622138
0.071781588
0.072826535
0.082602508
0.10269354
-0.044616118
-0.0846429
-0.061259711
-0.071920859
-0.011873962
-0.032372176
-0.081245284
-0.061814293
-0.048800877
-0.037912761
-0.085253562
-0.050209527
-0.033250604
-0.035618555
-0.047544559
-0.067399506
-0.051628761
-0.095015806
-0.039202107
-0.094454122
-0.076864728
-0.062743833
-0.031400078
-0.032183569
-0.076012688
-0.083638766
0.013328392
0.022970707
0.02096545
-0.0065634239
0.030615665
0.02292431
0.028698582
0.0110702
-0.0020818768
0.0012363116
0.0063823932
0.016620646
0.033192232
-0.0075428046
-0.024598964
-0.0027872499
0.011423813
0.028481929
0.021640354
0.015830201
0.0081780153
-0.024573954
-0.024841058
-0.00776922
-0.017696404
0.015305389
0.29792569
0.30358617
0.31642164
0.31471671
0.31358094
0.31059198
0.31031623
0.31341003
0.29988009
0.31029675
0.30037338
0.28935507
0.29392482
0.2965152
0.29945523
0.29572383
0.29310751
0.29844292
0.29525782
0.30884199
0.30779609
0.31054801
0.30878238
0.29950034
0.30345289
0.3113964
0.31849966
0.32751354
0.33194942
0.33132222
-0.24312002
-0.23256494
-0.16674608
-0.21660916
-0.27222636
-0.27013392
-0.23620375
-0.19730041
-0.20631983
-0.1876047
-0.21804464
-0.25687508
-0.2747843
-0.26264492
-0.26654326
-0.25807343
-0.25308243
-0.25408048
-0.26613463
-0.22992695
-0.24306764
-0.28179004
-0.28279869
-0.26843552
-0.24235557
-0.21204193
-0.20611688
-0.21743564
-0.25029938
-0.28654602
0.098897265
0.055981351
0.041373489
0.036990394
0.072480289
0.087048877
0.044927717
0.061957421
0.078664892
0.065402235
0.047938068
0.055645476
0.078150187
0.12270732
0.12187918
0.11949638
0.10146273
0.092591462
0.073035731
0.055764099
0.049266821
0.096960641
0.09246702
0.070855371
0.048355687
0.068297678
0.052918774
0.069413778
0.04459874
0.082448915
-0.037804179
-0.056037368
-0.056076367
-0.069173511
-0.049997834
-0.040095227
-0.082392722
-0.059584316
-0.056465908
-0.028100434
-0.05363047
-0.076621612
-0.046770399
-0.028285814
-0.024443477
-0.038403446
-0.062565347
-0.054405539
-0.060532939
-0.064955705
-0.070178737
-0.063036327
-0.052039976
-0.10785233
-0.095691268
-0.072475062
-0.047103843
-0.060748833
-0.10528312
-0.047850268
-0.005605498
-0.0238401
0.0039582513
0.0051781814
0.01568665
0.022570633
0.018861233
0.0063323769
-0.0080133035
-0.0033238736
-0.0074049913
0.013539624
0.012459381
-0.00089290902
2.3367626e-05
-0.011296778
-0.0045996768
-0.012206659
-0.0034723799
0.015961084
0.015630632
0.016603817
0.030109851
0.015930528
0.013278181
-0.018748248
-0.016521679
-0.018112915
-0.010886926
0.0024570516
0.30024272
0.29254784
0.31118117
0.3229043
0.32220797
0.31797952
0.31663227
0.31303717
0.31652084
0.30788841
0.31309875
0.29895133
0.29088337
0.30024603
0.30004142
0.29395435
0.30440863
0.29881116
0.31573704
0.31942979
0.3148772
0.31572788
0.31282129
0.30615339
0.29869001
0.31694668
0.31840444
0.3311229
0.33363723
0.33156804
-0.25445933
-0.26205092
-0.21509453
-0.20553553
-0.27883732
-0.2817674
-0.27336798
-0.25713101
-0.22019383
-0.19165785
-0.16719418
-0.23415848
-0.2598662
-0.26187928
-0.25489365
-0.25089029
-0.2223597
-0.20795975
-0.19500398
-0.22769592
-0.29946546
-0.28385241
-0.28031966
-0.26132948
-0.25888736
-0.2302137
-0.23147343
-0.24475516
-0.27974628
-0.29406393
0.10531783
0.075861437
0.041191125
0.056529616
0.089607399
0.10901924
0.095145668
0.056055384
0.060077524
0.054301292
0.037795992
0.035071667
0.063610772
0.09825427
0.082024048
0.1003568
0.070557163
0.068820135
0.053000361
0.055225683
0.06559349
0.13449825
0.12483653
0.09402741
0.07475993
0.067627599
0.10474718
0.069965686
0.088933218
0.12217121
-0.039563643
-0.062279736
-0.062156518
-0.066409663
-0.061682872
-0.030949865
-0.047521227
-0.067502698
-0.03926012
-0.036089949
-0.047562238
-0.047027308
-0.054739704
-0.044415697
-0.068761694
-0.052995722
-0.071855463
-0.083660588
-0.068622935
-0.078946321
-0.065093259
-0.051451485
-0.051805484
-0.11519356
-0.10424694
-0.082322633
-0.082338575
-0.10141229
-0.12808965
-0.044668849
0.0079673035
0.0087864853
0.021500485
0.026818147
0.026936758
0.039372548
0.012085069
0.012921649
-0.0052930682
-0.0016277507
0.0027065867
0.01185536
0.013594631
0.00060010328
-0.0058901875
-0.01253328
-0.011370566
0.0032299732
0.022439328
0.019023327
0.015613211
0.03775068
0.034440309
0.038956883
0.020180961
0.00025266196
-0.0063492241
0.0044389114
0.023446533
0.036622475
0.30042559
0.30298294
0.29867524
0.2982427
0.31974984
0.30657169
0.31211309
0.30863363
0.30520181
0.30268419
0.30678717
0.29440848
0.30113389
0.30076575
0.30636426
0.30739087
0.30629087
0.31178048
0.3188573
0.31416581
0.3101759
0.31396298
0.30728591
0.3006941
0.30043343
0.29527369
0.32004645
0.3347155
0.33395339
0.33379634
-0.26751305
-0.27794063
-0.26382203
-0.25007825
-0.23178626
-0.27260206
-0.27549467
-0.27765297
-0.26653932
-0.24562618
-0.2268047
-0.25749586
-0.27164541
-0.24799924
-0.22268417
-0.20589125
-0.20059109
-0.19140504
-0.21384331
-0.29760568
-0.28980877
-0.28345265
-0.25773101
-0.25296093
-0.2570525
-0.26741793
-0.21271496
-0.22119382
-0.29950544
-0.29314505
0.11972643
0.10905372
0.076110143
0.067981371
0.030867442
0.068331259
0.082730958
0.094968529
0.067445689
0.063566909
0.025787502
0.078607018
0.06271398
0.07319233
0.034828655
0.072837923
0.071708646
0.041170629
0.041274033
0.050530495
0.11233231
0.13335945
0.13051338
0.12480046
0.11815301
0.10336732
0.034570657
0.058443335
0.064876948
0.12851747
-0.043034252
-0.039803248
-0.056369566
-0.063152228
-0.065273733
-0.092169751
-0.04088841
-0.03050118
-0.063065561
-0.065082338
-0.060498096
-0.066041568
-0.038692191
-0.090781658
-0.081251197
-0.066435236
-0.060537374
-0.067744576
-0.077702994
-0.075292914
-0.054895282
-0.042815502
-0.12330455
-0.12268315
-0.07400901
-0.074249408
-0.10533066
-0.088536729
-0.11312837
-0.036875598
0.019212046
0.017690367
0.0093061598
0.013085719
0.019314402
0.015266168
0.0023026004
0.0019900036
-0.00032004142
0.017371828
0.017410005
0.016788494
0.018684011
0.023576983
0.0078016322
-0.0092041489
-0.016679509
0.0027905731
0.0029198237
0.0060771031
0.025709684
0.036836953
0.048040017
0.029821412
0.0066861535
-0.0094106004
0.0031624353
0.018672872
0.032086712
0.04941313
0.30048487
0.30187714
0.2988911
0.30371959
0.31172618
0.30884294
0.31280271
0.2984305
0.30121839
0.29821412
0.29105504
0.29442423
0.29512864
0.29125832
0.28876732
0.28698096
0.28319696
0.28441012
0.30148469
0.31060815
0.29880164
0.3110658
0.30555476
0.30311992
0.29894967
0.29980079
0.31732474
0.3392683
0.32779757
0.33088977
-0.22540831
-0.26690555
-0.25149296
-0.23010586
-0.20155081
-0.20777284
-0.2240736
-0.24981967
-0.27130741
-0.26546409
-0.25284747
-0.26609426
-0.26650716
-0.26714455
-0.25102158
-0.23048409
-0.2252971
-0.23642384
-0.19991541
-0.22392005
-0.27886155
-0.27528631
-0.27213736
-0.27066996
-0.255242
-0.25645289
-0.20120385
-0.20444901
-0.30063672
-0.2894123
0.085561216
0.10160234
0.097864963
0.076551234
0.065135965
0.070163283
0.059470694
0.087368457
0.075644939
0.11660905
0.076666955
0.11466652
0.12273901
0.11030009
0.10149631
0.10704605
0.10613664
0.11500938
0.072611658
0.042778578
0.065623945
0.10751264
0.13501048
0.13410382
0.14417036
0.099474466
0.049597021
0.050743309
0.061856114
0.11093093
-0.060606646
-0.047547711
-0.043735083
-0.034996966
-0.038590439
-0.052138356
-0.049763846
-0.076250329
-0.038084933
-0.040127485
-0.071772251
-0.040518124
-0.047893185
-0.063318109
-0.062601649
-0.081319702
-0.069873903
-0.060004247
-0.050613771
-0.067317768
-0.075144708
-0.049710792
-0.060907781
-0.061337539
-0.035031008
-0.048378302
-0.078665822
-0.079745341
-0.10092843
-0.032724116
0.038110612
0.011905095
0.0028493387
-0.006480193
-0.0018410101
-0.0056647792
-0.004689484
0.017483273
0.00993113
0.02050769
0.035554916
0.022797555
0.021767461
0.010533035
-0.0014590235
0.024130117
0.0040274099
-0.0098592994
-0.009747435
-0.0013777958
0.010263823
0.0099103455
0.0069916044
-0.00010571823
0.0014092624
-0.013392413
-0.0097421506
0.018083033
0.035715493
0.044625457
)
;

boundaryField
{
    minX
    {
        type            fixedFluxPressure;
        gradient        uniform 0;
        value           nonuniform List<scalar> 
50
(
0.29117972
-0.25673465
0.13050692
-0.051766378
0.017142972
0.2847615
-0.25400588
0.10156114
-0.063859367
0.0073682727
0.30261545
-0.25038761
0.089256719
-0.05069552
-0.006259426
0.30568385
-0.26271764
0.093293014
-0.055327572
0.015604013
0.29886532
-0.26590997
0.14293746
-0.036229481
0.029075301
0.2982346
-0.25996182
0.099560836
-0.044616118
0.013328392
0.29792569
-0.24312002
0.098897265
-0.037804179
-0.005605498
0.30024272
-0.25445933
0.10531783
-0.039563643
0.0079673035
0.30042559
-0.26751305
0.11972643
-0.043034252
0.019212046
0.30048487
-0.22540831
0.085561216
-0.060606646
0.038110612
)
;
    }
    maxX
    {
        type            fixedFluxPressure;
        gradient        uniform 0;
        value           nonuniform List<scalar> 
50
(
0.30913269
-0.25795164
0.072417392
-0.044905072
0.0018404636
0.30907939
-0.27251733
0.097533219
-0.048035187
0.013390953
0.31107362
-0.27534131
0.11982195
-0.030181929
0.026587978
0.29420561
-0.26336025
0.095552692
-0.076168023
0.032160696
0.32752258
-0.22429799
0.045470767
-0.078838067
0.0087838924
0.33252698
-0.23896326
0.10269354
-0.083638766
0.015305389
0.33132222
-0.28654602
0.082448915
-0.047850268
0.0024570516
0.33156804
-0.29406393
0.12217121
-0.044668849
0.036622475
0.33379634
-0.29314505
0.12851747
-0.036875598
0.04941313
0.33088977
-0.2894123
0.11093093
-0.032724116
0.044625457
)
;
    }
    minY
    {
        type            fixedValue;
        value           uniform 0;
    }
    minZ
    {
        type            fixedFluxPressure;
        gradient        uniform 0;
        value           nonuniform List<scalar> 
150
(
0.29117972
-0.25673465
0.13050692
-0.051766378
0.017142972
0.29104131
-0.25919015
0.11721592
-0.061541822
0.012249714
0.28942275
-0.26076938
0.11414276
-0.05500638
-0.0052662768
0.29226406
-0.25495384
0.10971328
-0.032091846
-0.01205169
0.29457676
-0.2403907
0.1011983
-0.038728827
-0.015826328
0.31302965
-0.18119473
0.044641108
-0.063142432
0.0030813209
0.31072519
-0.17468036
0.067358858
-0.05164099
-0.0043475007
0.30187118
-0.20848089
0.057146072
-0.053264879
0.00017865382
0.29401921
-0.22890314
0.062959834
-0.063726333
0.019943965
0.28315956
-0.25157136
0.078524848
-0.052809025
0.0039228865
0.28811045
-0.25042395
0.094189142
-0.033800481
0.0085029564
0.28950854
-0.25277927
0.080501303
-0.034058588
0.0015444559
0.28884471
-0.23281251
0.053244654
-0.060570164
0.0033441133
0.29676973
-0.18740754
0.049172874
-0.045204961
-0.0050775577
0.29479908
-0.19092757
0.0613913
-0.034909957
-0.012334595
0.29965671
-0.19925933
0.062238398
-0.04282831
-0.013963546
0.29976249
-0.21941124
0.066871392
-0.040385485
-0.0087815432
0.29836398
-0.25173948
0.080168188
-0.056223071
-0.012146853
0.30044941
-0.26856885
0.08545226
-0.056209076
-0.0064505272
0.30771621
-0.26994435
0.096697341
-0.043284914
0.011301403
0.29539692
-0.26972977
0.067781844
-0.045520329
0.0080379645
0.29469911
-0.26442022
0.043380069
-0.063710499
0.0081387687
0.30775215
-0.20701537
0.032476094
-0.060756017
0.003245618
0.30696496
-0.19403303
0.071162566
-0.0448655
-0.017535733
0.31108832
-0.19024233
0.060838269
-0.035438742
-0.015765079
0.32009149
-0.170164
0.065441002
-0.0046486009
-0.00037712851
0.3104135
-0.18695141
0.064296813
-0.027212352
-0.010420499
0.31240975
-0.20339815
0.053622935
-0.0442054
-0.0073311897
0.3076216
-0.23641615
0.035370251
-0.05664747
0.0029977908
0.30913269
-0.25795164
0.072417392
-0.044905072
0.0018404636
)
;
    }
    maxZ
    {
        type            fixedFluxPressure;
        gradient        uniform 0;
        value           nonuniform List<scalar> 
150
(
0.30048487
-0.22540831
0.085561216
-0.060606646
0.038110612
0.30187714
-0.26690555
0.10160234
-0.047547711
0.011905095
0.2988911
-0.25149296
0.097864963
-0.043735083
0.0028493387
0.30371959
-0.23010586
0.076551234
-0.034996966
-0.006480193
0.31172618
-0.20155081
0.065135965
-0.038590439
-0.0018410101
0.30884294
-0.20777284
0.070163283
-0.052138356
-0.0056647792
0.31280271
-0.2240736
0.059470694
-0.049763846
-0.004689484
0.2984305
-0.24981967
0.087368457
-0.076250329
0.017483273
0.30121839
-0.27130741
0.075644939
-0.038084933
0.00993113
0.29821412
-0.26546409
0.11660905
-0.040127485
0.02050769
0.29105504
-0.25284747
0.076666955
-0.071772251
0.035554916
0.29442423
-0.26609426
0.11466652
-0.040518124
0.022797555
0.29512864
-0.26650716
0.12273901
-0.047893185
0.021767461
0.29125832
-0.26714455
0.11030009
-0.063318109
0.010533035
0.28876732
-0.25102158
0.10149631
-0.062601649
-0.0014590235
0.28698096
-0.23048409
0.10704605
-0.081319702
0.024130117
0.28319696
-0.2252971
0.10613664
-0.069873903
0.0040274099
0.28441012
-0.23642384
0.11500938
-0.060004247
-0.0098592994
0.30148469
-0.19991541
0.072611658
-0.050613771
-0.009747435
0.31060815
-0.22392005
0.042778578
-0.067317768
-0.0013777958
0.29880164
-0.27886155
0.065623945
-0.075144708
0.010263823
0.3110658
-0.27528631
0.10751264
-0.049710792
0.0099103455
0.30555476
-0.27213736
0.13501048
-0.060907781
0.0069916044
0.30311992
-0.27066996
0.13410382
-0.061337539
-0.00010571823
0.29894967
-0.255242
0.14417036
-0.035031008
0.0014092624
0.29980079
-0.25645289
0.099474466
-0.048378302
-0.013392413
0.31732474
-0.20120385
0.049597021
-0.078665822
-0.0097421506
0.3392683
-0.20444901
0.050743309
-0.079745341
0.018083033
0.32779757
-0.30063672
0.061856114
-0.10092843
0.035715493
0.33088977
-0.2894123
0.11093093
-0.032724116
0.044625457
)
;
    }
    bottomWater_to_rightSolid
    {
        type            fixedFluxPressure;
        gradient        uniform 0;
        value           nonuniform List<scalar> 
130
(
-0.012146853
-0.0064505272
0.011301403
0.0080379645
0.0081387687
0.003245618
-0.017535733
-0.015765079
-0.00037712851
-0.010420499
-0.0073311897
0.0029977908
0.0018404636
-0.0085782381
-0.00016708738
0.02406818
0.027927206
0.015655922
0.012900228
0.0092011977
-0.0024612135
-0.021640268
-0.003830485
0.0089509152
0.009727007
0.013390953
-0.0086114834
-0.0049422564
0.016818947
0.019531925
0.033979932
0.024959101
0.030861875
0.044631623
0.015646207
0.008036981
0.020980002
0.025820844
0.026587978
-0.0080764671
-0.010259033
0.010054299
0.016310219
0.016783363
0.035112821
0.031237912
0.035251545
0.017059832
-0.0075903793
0.027884458
0.014666148
0.032160696
-0.010090428
-0.027984252
0.0025022666
0.0093699395
0.0087530842
0.026879403
0.017131322
0.012977646
-0.0013141411
-0.026018022
-0.017481455
-0.010152024
0.0087838924
-0.0075428046
-0.024598964
-0.0027872499
0.011423813
0.028481929
0.021640354
0.015830201
0.0081780153
-0.024573954
-0.024841058
-0.00776922
-0.017696404
0.015305389
-0.012206659
-0.0034723799
0.015961084
0.015630632
0.016603817
0.030109851
0.015930528
0.013278181
-0.018748248
-0.016521679
-0.018112915
-0.010886926
0.0024570516
0.0032299732
0.022439328
0.019023327
0.015613211
0.03775068
0.034440309
0.038956883
0.020180961
0.00025266196
-0.0063492241
0.0044389114
0.023446533
0.036622475
0.0027905731
0.0029198237
0.0060771031
0.025709684
0.036836953
0.048040017
0.029821412
0.0066861535
-0.0094106004
0.0031624353
0.018672872
0.032086712
0.04941313
-0.0098592994
-0.009747435
-0.0013777958
0.010263823
0.0099103455
0.0069916044
-0.00010571823
0.0014092624
-0.013392413
-0.0097421506
0.018083033
0.035715493
0.044625457
)
;
    }
    bottomWater_to_leftSolid
    {
        type            fixedFluxPressure;
        gradient        uniform 0;
        value           nonuniform List<scalar> 
130
(
0.017142972
0.012249714
-0.0052662768
-0.01205169
-0.015826328
0.0030813209
-0.0043475007
0.00017865382
0.019943965
0.0039228865
0.0085029564
0.0015444559
0.0033441133
0.0073682727
0.019588252
-0.0022106809
-0.021542228
-0.0022885424
0.016813428
0.035269762
0.010599278
0.023988715
0.014651917
0.013059479
0.0068411087
0.010741371
-0.006259426
-0.0015123354
-0.010123731
-0.03097363
-0.016083205
-0.015099105
-0.00063147633
0.0094720432
0.021325416
0.016019425
0.020040509
0.023348636
0.0024572108
0.015604013
0.015692431
0.0095277623
0.0017558228
0.019202381
-0.006180812
-0.0061680079
0.015718844
0.0087046294
-0.0071841261
-0.0039844698
0.01553158
0.022124404
0.029075301
0.025335025
0.01851303
0.023006569
0.034449707
0.0082055836
-0.0040627263
-0.0036313549
-0.0041037577
-0.011137649
0.0070081679
0.016047613
0.01627649
0.013328392
0.022970707
0.02096545
-0.0065634239
0.030615665
0.02292431
0.028698582
0.0110702
-0.0020818768
0.0012363116
0.0063823932
0.016620646
0.033192232
-0.005605498
-0.0238401
0.0039582513
0.0051781814
0.01568665
0.022570633
0.018861233
0.0063323769
-0.0080133035
-0.0033238736
-0.0074049913
0.013539624
0.012459381
0.0079673035
0.0087864853
0.021500485
0.026818147
0.026936758
0.039372548
0.012085069
0.012921649
-0.0052930682
-0.0016277507
0.0027065867
0.01185536
0.013594631
0.019212046
0.017690367
0.0093061598
0.013085719
0.019314402
0.015266168
0.0023026004
0.0019900036
-0.00032004142
0.017371828
0.017410005
0.016788494
0.018684011
0.038110612
0.011905095
0.0028493387
-0.006480193
-0.0018410101
-0.0056647792
-0.004689484
0.017483273
0.00993113
0.02050769
0.035554916
0.022797555
0.021767461
)
;
    }
    bottomWater_to_heater
    {
        type            fixedFluxPressure;
        gradient        uniform 0;
        value           nonuniform List<scalar> 
92
(
-0.0050775577
-0.012334595
-0.013963546
-0.0087815432
-0.0082988761
0.00022654915
0.0016834409
0.014327081
0.0057303208
0.016243657
0.0086545054
0.015866952
0.29743198
0.29083553
0.29010075
0.30319336
-0.25980536
-0.26005512
-0.2468939
-0.20847919
0.079723811
0.072756574
0.05426243
0.043587337
-0.035491138
-0.038294451
-0.063048758
-0.041930868
0.021636255
0.021636255
0.0099729208
0.0099729208
0.014529914
0.014529914
0.0056357609
0.0056357609
0.30277848
0.31459009
-0.26267638
-0.198636
0.083654203
0.060306847
-0.038665867
-0.015412282
0.01627649
-0.010090428
0.3109321
0.2965152
0.29945523
0.29572383
0.29621694
0.29310751
-0.2647084
-0.26264492
-0.26654326
-0.25807343
-0.24909153
-0.25308243
0.11868833
0.12270732
0.12187918
0.11949638
0.12429841
0.10146273
-0.033250604
-0.028285814
-0.024443477
-0.038403446
-0.035618555
-0.062565347
0.033192232
-0.00089290902
2.3367626e-05
-0.011296778
-0.0075428046
-0.0045996768
-0.00089290902
2.3367626e-05
-0.011296778
-0.0045996768
0.00060010328
-0.0058901875
-0.01253328
-0.011370566
0.023576983
0.0078016322
-0.0092041489
-0.016679509
0.010533035
-0.0014590235
0.024130117
0.0040274099
)
;
    }
}


// ************************************************************************* //
