/*--------------------------------*- C++ -*----------------------------------*\
| =========                 |                                                 |
| \\      /  F ield         | OpenFOAM: The Open Source CFD Toolbox           |
|  \\    /   O peration     | Version:  v2012                                 |
|   \\  /    A nd           | Website:  www.openfoam.com                      |
|    \\/     M anipulation  |                                                 |
\*---------------------------------------------------------------------------*/
FoamFile
{
    version     2.0;
    format      ascii;
    class       surfaceScalarField;
    location    "330/bottomWater";
    object      phi;
}
// * * * * * * * * * * * * * * * * * * * * * * * * * * * * * * * * * * * * * //

dimensions      [1 0 -1 0 0 0 0];
oriented        oriented;


internalField   nonuniform List<scalar> 
3858
(
-8.050177e-05
0.00014056646
-5.7309527e-05
-0.00016716928
0.00014452007
-5.4952208e-05
-0.00024373936
0.00014119096
-6.1235885e-05
-0.00028015744
0.00012258705
-8.3314246e-05
-0.00027115559
5.0266272e-05
-5.6975032e-05
-1.1643164e-05
-0.00026250754
1.1577078e-06
0.00024377542
-0.00030468392
4.7984157e-05
0.00036290405
-0.00016275215
4.4446748e-05
0.00042190513
-4.7019679e-05
-9.4225626e-06
0.00032398355
0.00013109004
-2.8191611e-05
0.00014314289
0.00015420583
3.033647e-05
-8.7831868e-05
0.00012300257
0.00011122265
-0.0001574643
-2.8584632e-05
0.00010154356
-5.0908908e-06
-0.00018349565
3.2711162e-05
0.00012064586
-0.00020685544
8.3170095e-05
0.00020690444
-0.00018696336
0.00010185326
0.00024961357
-0.0001126838
7.1119174e-05
0.0001553227
8.6705379e-05
8.9236498e-06
5.2760739e-06
0.00014722252
3.5512034e-06
-0.00013274422
0.0001527388
-1.5591909e-05
-0.00031471333
0.00017914972
4.91149e-06
-0.00038134691
1.7004818e-05
5.197935e-05
-0.00026838533
-0.0002318066
0.00011853792
-0.00020717147
-0.00016463687
0.00010307662
-0.00011049637
-0.00024139453
0.00014343802
9.5456719e-05
-0.00033481566
0.00012558178
0.00021905182
-0.00023900181
0.00011424363
0.0002940747
-0.00021728015
0.00014082821
0.00023362933
-7.4968082e-05
0.00013491861
0.00012397297
0.00010862479
-0.00015668567
0.00033290277
-3.5650647e-05
-0.00025589594
0.00029044437
-4.6714026e-05
-0.00033627176
0.00031189042
-9.0323622e-05
-0.0003980176
0.00037528675
-0.00019095385
-0.00028111868
9.014454e-05
-0.00015677718
3.8789721e-05
-0.00056350154
-1.8914389e-05
0.00022769569
-0.00058625536
9.2665477e-05
0.00034763072
-0.00038857992
0.00010589274
0.00044656752
-0.00021420067
6.8244189e-05
0.00038694077
0.0002201929
-2.9476119e-05
1.3852136e-05
0.00050585065
2.1443812e-05
-0.00031176458
0.00037613386
7.2485416e-05
-0.00023439134
-0.00019319933
8.7241458e-05
1.0996272e-05
-0.00044226765
1.3384386e-05
0.00019307494
-0.00048078056
9.1846461e-05
0.0002920651
-0.00044801177
0.00016205825
0.00043525082
-0.00033266836
7.6798835e-05
0.00046170071
0.00012939676
-6.9141269e-05
0.00025009556
0.00038478238
-2.5954699e-05
-0.0001677633
0.00063060239
-6.0004727e-05
-0.00043351441
0.0003921508
5.2750035e-05
-0.00042680292
-0.00012912621
0.00013941953
-0.00025062659
-0.00058689566
0.00017891273
-0.00016646231
-0.00036425963
0.00011545848
-8.103395e-05
-0.00049896933
0.00017214643
9.9116562e-05
-0.00060749644
9.2530269e-05
0.00025621329
-0.00048739654
9.1298007e-05
0.00035909836
-0.00050296167
0.00018279645
0.00038250539
-0.00028688572
0.00018851061
0.00033318139
0.00017329697
-6.3774055e-05
0.00027075138
0.00012592546
-0.00019473894
0.00019525149
0.00022615777
-0.00024365776
0.00017864117
0.00018216808
3.7592337e-05
3.768329e-05
5.635337e-05
0.00037912483
-0.00021883895
-3.2548995e-05
0.00012651939
-9.4331123e-05
-0.00021656496
-9.0211343e-06
-0.00024496177
-0.00020575307
-5.4761469e-05
-0.0001822921
-0.00016054748
-2.5362358e-05
-7.1294177e-05
-0.00017230561
0.00016338649
0.0001180362
-8.6592158e-05
0.00021516722
0.00039878338
5.5286534e-05
0.00028115575
0.00025496766
5.517766e-05
0.00025206182
-7.6196875e-05
-8.7908536e-05
9.8410507e-05
-0.0001795833
-0.00010903304
8.5744507e-05
-0.00036568101
-0.00010243355
-1.3550588e-05
-0.00035192652
3.2098419e-06
-1.8964812e-05
-0.00029818638
-2.906775e-05
0.00015818989
-9.8844351e-05
5.1086405e-05
0.00017775895
0.00023810344
0.00012710988
0.00012977246
0.00054004915
0.00013853974
0.00021994302
0.0002802183
2.1761938e-05
0.00024347372
-0.00010859414
-4.4062766e-05
-4.3708324e-05
-0.00012785753
-0.00017185609
-4.7264994e-05
-0.00031492837
-4.5774588e-05
9.8520396e-06
-0.00048694747
-6.9138899e-05
1.5110935e-05
-0.00055887071
-5.3884627e-05
7.2221745e-05
-0.00046655869
-7.7948651e-05
-5.9095667e-05
-0.00025739296
-0.00011425129
-0.00011143775
-0.00012232678
-0.00011221686
0.00018387581
3.7867838e-05
-9.732892e-05
0.0002349714
0.00013310891
-0.0003171043
0.00024779324
0.00016723365
-0.0003060307
4.035513e-05
0.00012721246
-0.00010692215
-0.00026633017
0.00010490493
-1.0448544e-05
-0.00028467236
-3.064018e-05
-0.00012502364
1.0452627e-05
9.7913593e-06
-0.0001712065
-0.00018382417
-1.4954736e-05
-0.00011028512
-0.00015197219
-9.1241287e-05
-0.00017616084
0.00012191408
-0.00012733254
-3.661403e-05
2.4476091e-05
-4.5986711e-05
0.00023730428
3.4760149e-05
9.0104913e-05
0.00037811794
1.3770686e-05
0.0001003833
0.00021882056
6.9157878e-05
1.3942621e-05
0.00014658144
-7.3009096e-05
-3.4335088e-05
0.00017327829
-0.00033107417
-6.1303696e-05
9.2643871e-05
-0.00027493333
3.6412266e-06
8.0201326e-05
-0.00025244225
-3.3301585e-05
7.9735357e-05
-0.0001482516
4.9873224e-05
0.0001137484
8.8921744e-05
0.00011516867
0.00019089411
0.00025592464
0.0002069788
0.00031709264
8.9202055e-05
6.4817714e-05
0.00020664361
3.7672167e-05
-3.5817276e-05
8.4331805e-05
-1.2884316e-05
7.3385906e-06
8.3694355e-05
-0.00030669957
-7.5913573e-06
2.311502e-05
-0.00046366561
3.7297477e-05
2.0026605e-06
-0.00050052701
-3.7231342e-05
1.3975319e-05
-0.00043340144
-4.5129906e-05
-5.107922e-05
-0.00016868394
-2.3654481e-05
-0.00015310608
2.1481648e-06
-2.2448084e-05
3.4686821e-06
2.730105e-05
4.8297671e-05
0.00018667373
0.0001629742
0.00013311672
0.00010297139
0.00010035796
-0.00019473513
3.1376358e-05
-0.00033246277
-0.00014694472
-0.00019934574
-0.00012266439
-0.00021122808
-0.00017194183
-0.00020315944
-0.00016004083
3.3219163e-05
-0.00011446454
0.00015189338
-9.4198134e-05
0.00022665044
-3.9996912e-05
0.00028338247
-4.2961351e-05
0.00039005185
-3.7511509e-05
0.00037291523
-5.5872477e-05
0.00019077098
-0.00014892992
2.9271646e-05
-0.000113434
-8.7919957e-05
-0.00013525064
-0.00022384982
-1.2321726e-05
-0.00017127424
3.634617e-05
1.0845983e-05
7.3804418e-05
0.00012070836
-2.0660318e-05
0.00026184275
-0.00010346223
0.00041602836
-0.00016706993
0.00035584604
-0.00024651725
0.00018424314
-0.00029206271
-9.1158059e-05
-0.00022512581
-0.00031563112
-0.00020892838
-0.00028257643
-0.00020173863
-0.000127302
-0.00015312627
-0.00012383332
-9.1761267e-05
0.00013347086
-9.4785773e-05
-7.900041e-05
-8.0905958e-06
-5.525957e-05
-9.4014442e-06
-3.2081338e-05
-9.4155003e-05
1.5941763e-05
0.00010781374
-0.00021171154
4.560291e-05
7.8550643e-05
-0.00016149976
7.4332281e-05
9.4781899e-05
-0.0001183576
0.00011120885
7.2549911e-05
-5.8923548e-05
9.9421855e-05
0.00013704996
-7.732886e-05
7.3596373e-05
0.00013959993
-0.0001204912
9.6380619e-06
0.00016257386
-0.00012324289
-6.411534e-05
0.00018847672
-7.9829332e-05
-0.00013740461
0.00016378613
2.3721978e-05
-0.00017074268
0.00011915232
2.1159592e-05
5.089607e-05
-0.00026307639
7.467668e-05
0.0001077057
-7.4289151e-05
0.00010237583
5.1016051e-05
8.4476592e-05
7.5524222e-05
-3.0406968e-05
0.00014307895
9.4623592e-06
-7.4578795e-05
0.00013948445
-8.513592e-05
4.5126384e-05
-9.8006296e-05
-1.8911344e-05
3.2471519e-05
4.4473192e-05
-4.854427e-05
-0.00010597745
0.00015488134
-1.2700288e-05
-0.00023864828
0.00017510337
9.7729283e-06
-0.00026130545
7.1679478e-05
7.0877511e-05
-0.00014105577
-0.00016543266
0.00014660836
-0.00012441995
6.030378e-06
0.00012182284
6.5188971e-05
-0.00025603779
0.00019014119
0.00022214557
-0.00018515158
0.00014225145
0.00024782056
1.8967475e-05
9.6448022e-05
0.00014511373
0.00016357008
7.4631621e-05
0.00017072392
8.2019716e-05
-0.00021773963
0.00024448953
7.1070314e-05
-0.00018935657
-0.00018957183
0.00010638414
-5.0487027e-05
-0.00027164617
1.0371673e-05
4.8705751e-05
-6.3962686e-06
-0.00017593662
6.2229646e-05
7.6026122e-05
-0.00016777655
0.00022174196
-3.2464358e-05
-5.1180439e-05
0.00037958763
-2.3919592e-05
3.1289308e-05
0.00029106344
0.00030262903
2.8837874e-05
2.6181191e-05
0.0004928718
-2.0145439e-05
-0.00013472802
0.00040823696
-0.00011423001
-0.00021162476
0.00031896406
-3.2146801e-05
-0.00031363282
0.00038739792
-4.9118315e-05
-0.00013765326
-3.0100091e-05
6.0514297e-05
0.00016697841
-0.0006426084
8.8284729e-05
0.00031873497
-0.00026114387
0.00012694462
0.00018272715
0.00031945869
6.3083984e-05
-0.00013860806
0.00062321527
-8.2002276e-05
6.5958846e-06
6.4233779e-05
-0.00013909453
0.00036033111
-0.00040922272
-6.8473494e-05
0.00028572952
0.00013083293
-7.1762878e-05
-0.00016389406
0.00067515061
-1.7895646e-05
-0.00043879105
0.00048713
0.00010228989
-0.00038936493
-1.6980354e-05
0.00021814643
-0.00017284355
-0.00048988711
0.00022339154
-0.0001364283
-9.8830328e-05
0.00024059189
7.4802629e-05
-0.00057211505
0.00019737661
0.00029343948
-0.00051121234
0.00019872191
0.00037917519
-9.7467909e-05
0.00021349613
0.00030712595
0.00024090928
0.00018322064
0.00054206037
0.00010908647
6.6892239e-05
0.00013599143
0.00016753132
-0.00014912406
-5.9067802e-05
0.00031167006
-0.00037575382
-0.0001243655
0.00026151719
-0.00012727515
-0.00040873107
0.00021020951
9.6078224e-05
-0.00021958398
3.9707738e-05
9.338406e-05
-0.00013076315
-0.000115572
0.00013556541
-0.00011417042
-0.00015768358
0.0001769193
0.00018057839
-7.9850738e-05
0.00012584749
0.00041480982
-4.3171828e-05
0.00010972332
0.00033784968
-8.0714115e-08
0.00010693468
0.00022195742
0.0001550818
0.00018479785
0.00024053744
0.00012417497
0.00023797777
-8.0213595e-05
-9.0974966e-05
6.493454e-06
-0.00035098157
-0.00016917555
8.3716637e-08
-0.00027557099
-8.1596703e-05
4.9961489e-05
0.00020451635
6.8274408e-05
5.4493468e-05
0.00048316728
0.00010644827
0.00027872787
-0.0002254541
0.00011653989
7.3713214e-05
-0.00016802464
9.0926466e-05
3.3459653e-05
2.2447433e-05
0.0002871788
3.0941539e-05
0.00060594895
9.3481715e-05
8.5533432e-05
0.00038305519
5.4201535e-06
0.00012809557
-9.1000538e-05
-0.00014039804
-0.00012235933
-0.00012951329
-0.00015569351
-6.7408159e-05
-0.00018155528
-4.1365123e-05
-4.4434906e-05
-0.00048507253
-0.00016390041
-0.00018569386
-0.00028275227
-0.00016514976
-0.00016776131
-8.6735417e-05
-0.00014291634
-6.8964704e-05
0.00011083626
-8.0940442e-05
0.00047585657
3.5106929e-05
0.00021563102
-3.5541015e-05
8.901035e-05
-4.9262567e-05
0.00026172557
0.00011133388
-9.7241985e-05
-1.4367937e-05
6.5194326e-05
6.0871651e-05
-0.0004826485
2.070873e-05
0.00017263778
-0.00026233977
-9.9650503e-05
-1.7615969e-05
0.00019209475
-0.00012281278
-0.00029036391
0.00029855492
-0.00015493213
-0.00013623191
9.5971423e-05
-0.00016076632
3.8065668e-05
0.0001937146
-8.0534903e-05
0.00012443592
0.00021243958
-6.9468686e-06
0.00019868963
0.00015959054
7.8218068e-05
0.00027730479
0.00010069781
0.00016160777
0.00014349414
0.00010627267
-3.8732995e-05
9.5689332e-05
-0.00028033597
-5.7175888e-05
-1.608835e-05
-0.00018259652
-4.2500483e-05
-4.6085374e-05
0.00015863249
7.9522108e-05
0.00016470607
9.2325037e-05
0.00014674922
0.00025551614
-0.00027236697
5.9760263e-06
0.0001357074
3.1602219e-05
3.535055e-05
-7.4438466e-05
0.00030042319
0.00013914892
0.00011009614
0.00034336334
0.00014286872
0.00031372766
0.00015108171
-7.4753128e-06
0.00029938461
4.7740618e-05
-0.00011705952
0.00012463472
0.00010301525
-6.5370012e-05
-8.2768102e-05
5.08475e-06
5.8060267e-05
-9.3883403e-05
-0.00047787154
-3.3317026e-05
-0.00015074455
-0.00020549365
-6.5527384e-05
-0.00027274095
0.00015338299
-0.00014177649
-0.00022565272
0.00012304824
-8.1748302e-05
0.0002278617
4.9643194e-05
3.5943895e-05
0.00011518883
0.00033107238
9.9713813e-05
0.00038584372
3.1218682e-05
-2.8454752e-05
-3.6973662e-05
-0.00028206222
-0.00015567702
-0.00022883819
1.6206345e-05
-0.00010209937
-1.2571693e-07
-4.7236647e-05
-0.00011893213
8.1395834e-05
-4.938242e-05
0.00018552566
1.411162e-05
0.00025532003
4.9799252e-05
0.00029598689
1.7069592e-05
0.00036650691
-1.7588708e-06
0.00014535051
-0.00011505205
-6.30181e-05
-0.00012315782
1.7158615e-05
-3.4978219e-05
-6.5324419e-06
-1.9234543e-05
-0.00033682488
4.5603752e-05
-0.00036734565
9.8469166e-05
-0.00011702468
0.00012390665
0.00011710905
8.8569293e-05
0.00020765567
-4.2927135e-05
0.00025585027
-0.00016752391
0.00033678369
-0.00022443543
0.00031119894
-0.00026139322
-0.0001111523
-0.00028064611
-0.00035326897
-0.00017230537
-0.00023852386
-0.00016310074
-0.00016355357
-0.00010504832
-5.9525185e-05
-0.00019626134
7.9874045e-05
2.1929845e-05
-0.00018899503
-0.00014229813
7.9742924e-05
-5.0824068e-05
-0.00028074167
4.7756583e-05
3.3521293e-05
-0.00018672245
-0.00010932975
0.00012870615
-0.00023372768
-2.4088582e-05
0.00025662669
-0.00022677557
-2.0150619e-05
0.00022070319
3.2988157e-05
-5.4522968e-05
0.0001258064
0.00012969518
-0.00010999156
-1.0829787e-05
0.00013643454
-0.0001188654
-9.9577964e-05
0.00013670591
-0.00016590244
7.7410534e-05
-0.00016857337
-8.6702812e-05
4.5651784e-05
0.00011234744
-5.2075934e-05
-5.2071759e-05
0.00016028074
-3.8382311e-05
-8.3990945e-05
0.0001148696
-4.7031128e-06
-0.00014623338
0.00014739419
2.0364905e-05
-0.0002148973
0.00015761148
-1.0877643e-05
-0.00022825848
9.3368139e-05
-6.7543588e-05
-2.0838384e-05
-0.00021651446
-7.6006668e-05
0.00013723341
-0.0001891858
1.3062866e-05
0.00021475151
-0.00010036953
-2.6653835e-05
0.00010400681
0.00013471305
-3.5611704e-05
2.6709041e-06
0.00014312605
-3.3776874e-05
-6.3885433e-05
0.00015856504
-2.2250912e-05
-9.6845376e-05
0.00011873549
6.0607578e-05
-5.1325324e-05
0.00010897857
-3.3339212e-05
3.6759848e-05
4.2039732e-05
5.9517348e-05
6.54638e-05
0.00012378781
-1.0023586e-05
5.7541655e-05
0.00016365297
-6.0226648e-05
2.8053507e-05
0.00015448822
-5.1970582e-05
0.00015579902
-4.7320144e-05
-0.00034197157
0.00029316267
0.00019975327
-0.00024939144
-0.00039407173
0.00026557761
-7.3992573e-05
-0.00057950726
0.0001337384
3.8159204e-05
-0.00042243164
-5.2379207e-05
0.00011691784
-0.00051601224
3.5749373e-05
0.00034073368
-0.00053766956
3.5897714e-05
0.00046047703
-2.670029e-05
-2.8765589e-05
0.00017595398
0.00056239464
-0.00011933855
-0.00018182746
0.0006261523
-0.00015208176
-0.00017592283
0.0001401016
-0.00012353033
0.00017406249
-0.00052243662
-2.8268862e-05
0.00024138878
8.9075259e-06
-1.3004699e-05
5.2029786e-05
0.00039029532
1.9858704e-05
3.5406128e-05
8.4904499e-05
0.00013487348
-0.00013366694
0.00038143614
6.1975733e-05
-0.00034049936
0.00047978871
-5.2260825e-05
-0.00024024896
1.3584221e-05
-0.00010246875
4.1788727e-05
-0.00056730145
-7.0345226e-05
0.00027745817
-0.00048633964
-6.9890936e-06
0.00044425964
-0.0003507929
1.1859026e-05
0.00033066559
0.00025829547
-2.7884009e-05
-5.9378238e-05
0.00063389344
1.5663233e-06
-0.00034053589
0.00056980802
8.8061104e-05
-0.00027331361
0.0001242371
0.00015066764
-7.8246305e-05
0.00012759574
2.6907407e-05
0.00018613824
-8.2338315e-05
5.737011e-05
0.00032168023
0.00010917354
7.7794196e-05
0.00024320185
0.00049031301
-3.4685539e-05
0.00010203467
0.00052479701
-4.5920959e-05
0.00045646421
-8.9544047e-05
0.0002056629
0.00011660431
0.00013842679
8.5906647e-05
-8.5098837e-05
0.00012245342
-0.00017669839
-0.0001239083
6.8523269e-05
-7.9823643e-05
-0.00032022858
1.1131708e-05
-5.2669642e-05
-0.00040105013
-0.00010240836
-0.00013362193
-0.00042716786
-0.0001451214
5.4533382e-05
-0.00016961162
-0.00020292756
0.0001951879
0.00045293451
-0.00011104513
0.00025296709
0.00056764383
-4.2442546e-05
0.00023767575
0.00010153103
5.3781197e-05
-0.00015385332
-9.8430125e-05
0.00012260437
-0.00017472763
-4.4289741e-05
0.00019824654
-7.4645404e-06
9.3237975e-05
3.8819281e-05
7.3277129e-05
-0.00015253233
-1.2480396e-05
7.3586408e-05
0.0002417553
5.7774866e-05
0.00015469368
0.00035902274
0.0001079331
0.00019220164
-6.6678174e-05
0.00014920271
0.00013295878
-0.00043716575
4.564705e-05
1.9465652e-05
-0.00027886926
-3.0507748e-06
-0.00013954506
-0.00011225741
0.00020765403
-7.1460926e-05
0.00016143481
0.00012225824
-5.4418154e-05
0.00060310407
1.9166751e-05
-8.3453784e-05
0.00046105914
-2.6135369e-06
-4.133403e-05
-2.4811444e-05
-4.8764723e-05
-6.3123348e-05
-1.9964373e-05
0.0001279843
-0.00015717907
-0.00012846949
-2.371352e-05
-4.9504824e-05
-4.162326e-05
-0.00012202721
3.0583391e-05
0.00039966872
-0.00013236026
4.2319446e-05
0.00046232602
-3.0205516e-05
0.00035997108
0.00017391949
0.00025276634
-0.00010945999
6.2308323e-05
0.00016810444
5.5767964e-05
5.5128983e-05
0.00013516816
-6.6401442e-05
4.0623761e-05
0.0001581522
-0.00035141305
2.8909164e-05
0.00012374705
-0.000389873
-7.642248e-05
5.4708847e-05
-0.00039192753
-8.9014892e-05
-4.4176696e-05
3.5558035e-06
-0.000229214
0.00010199024
0.00026957459
-0.00012357333
0.00027139345
0.00031814278
-4.3706132e-07
0.00025857171
9.9140305e-05
8.26559e-06
0.00011525754
7.3162284e-05
4.9939823e-05
-3.8096135e-05
0.00016111609
0.0001095556
0.00012223643
-0.00014668972
4.0862137e-05
6.5328118e-05
-0.00013288767
-1.991224e-05
5.2084325e-05
0.0001856598
2.6838804e-05
0.00016749337
0.00018907902
0.00013405678
9.2458933e-05
5.4608205e-05
0.00010049729
5.1350398e-05
-0.00039649428
6.4131046e-06
-5.7495093e-05
-0.00016060479
2.5931583e-05
-0.00022737635
0.00014809611
4.8676669e-05
-0.0001793276
0.0001306321
0.00012562269
5.8795176e-05
0.00032060581
3.6900178e-05
0.00030781236
0.00016154311
-6.6560676e-05
0.00015022921
0.00014516815
-7.7766461e-05
-0.00021393094
0.00038480533
1.7450704e-05
-0.00040216327
5.050581e-05
-2.4059992e-05
-0.00031915971
-8.4903576e-05
-0.00010525063
-0.00011391528
0.00019054456
-0.00013789676
-3.1733421e-05
0.00028909003
9.3058169e-06
0.00020033871
0.00017754214
7.2401607e-05
-6.6672752e-05
0.00030393017
-7.6046781e-05
0.00041325881
-0.00014451139
0.00025893801
-0.00023406591
-2.4643059e-05
-0.00026196894
-0.000299118
-0.00010124624
-0.0002465876
-4.9100306e-05
-4.3825171e-05
-5.2119967e-05
0.00014134635
8.3588837e-05
0.00013566898
0.0001189293
0.00016428527
9.4345239e-05
0.00030174798
4.0722962e-05
0.00017289991
-1.9600528e-05
1.0030967e-05
-8.5070789e-05
7.0057383e-05
2.4755548e-06
0.00019994828
2.4209909e-05
0.00016118556
7.4136389e-05
-0.0002697607
8.0055733e-05
-0.00045459323
0.00012269691
-0.00029483715
0.00011224668
-0.00018419524
0.00010855949
2.5139443e-05
6.8343989e-05
0.00012062078
-0.00010146214
0.00010657262
-6.5219116e-05
0.00024861436
-1.8629633e-05
7.2588687e-05
-5.4114634e-05
-0.00023003061
4.5410344e-05
-0.00017681139
-2.5775413e-05
-6.0618066e-05
6.7848387e-05
8.0195453e-05
-0.00021757544
0.0001377062
0.00010152511
-0.00029413669
5.3177612e-05
0.00010376222
-0.00011843199
-0.00020137599
7.091899e-05
0.00019986077
-0.00043815579
6.4095646e-06
0.00027713974
-6.4359997e-05
-3.6922797e-05
0.00017001125
0.00010372736
-1.495276e-05
4.4313542e-05
0.00011433638
-4.1521177e-05
-9.4590189e-05
0.00013902115
-0.00010824854
-0.00018804682
9.9407737e-05
-0.00012173428
-0.00011552568
-0.00011297445
-0.00012268548
6.0042077e-05
-0.00022874156
-3.187153e-05
0.00017828292
-0.00017343747
4.0911099e-06
5.5936249e-05
0.00014530976
-5.851564e-05
-0.00011430084
0.00016694822
-0.00026053318
0.00016963501
-0.00031022136
4.2055121e-05
-0.00014738079
-0.00022989729
1.1610046e-05
-0.00025757339
2.1640547e-05
0.00011716715
-0.00019133637
9.8272837e-05
0.00027778333
-0.0002597171
6.9927641e-05
0.00027268479
8.4711162e-06
-3.8875005e-05
0.00016688249
0.00015871303
-8.658877e-05
8.8555489e-05
0.00014704919
-9.1814269e-05
1.4756487e-05
0.00017976984
-4.5765543e-05
-2.176812e-07
0.00012417343
-0.00014144315
3.3271325e-05
0.00012660497
-9.9652301e-05
2.3802152e-05
0.00019156798
-0.00019114988
2.5138576e-05
0.00013996078
-0.00020193953
-8.8932894e-06
0.00016232793
-0.00017983511
0.00010025267
-0.00015435792
-0.00038696749
0.0005747931
0.00014963385
-0.00034051199
7.6673805e-05
0.00019562593
-0.00012067014
-0.0004562896
0.00016881016
0.00011579041
-0.00083082943
0.00010383389
0.00022314632
-0.00024388107
0.00010791453
0.00015880862
9.0205667e-05
0.00011375711
8.2028466e-05
0.00010297284
5.9378111e-05
-0.00021710057
0.00044463979
-0.00012582815
-0.00031397026
0.00016858785
-0.00012439219
-0.00012126857
-0.00037567698
-5.352949e-05
9.5703448e-05
-0.00051198337
3.8000926e-05
0.00024583376
-0.00053027696
0.00019370448
0.00012960919
0.00018000234
0.00010139069
-0.00020907576
0.00064050665
-0.0004043011
0.00042683608
-0.00033700861
-7.7498188e-05
-0.00010616152
-0.00056321314
9.5126598e-05
-0.00052983377
6.2703889e-07
0.00017805879
-0.0004538206
0.00017256296
0.00047317167
-0.00059692497
5.395402e-05
0.00057343235
-7.5082471e-05
-4.4591103e-05
0.00038319953
0.0004412635
-9.0751331e-05
1.6394242e-05
0.00065110254
-4.9186965e-05
-0.00026489186
0.00066155356
-4.982998e-05
-7.5936367e-06
-3.3262498e-05
-7.2954887e-05
0.00025591614
4.6243764e-05
-0.00012577846
0.00019470018
0.00055987541
-0.00022929729
-1.2715531e-05
0.00061097614
-0.0002982852
-0.00016154032
0.00049080252
-0.00022557077
-6.6940175e-05
-8.3891526e-05
0.00015293738
0.00049603181
6.4250714e-05
0.00036157091
-6.2169566e-06
-3.2893449e-06
9.4148612e-05
-7.1273109e-05
-4.9070924e-05
-0.00035104174
-0.00012692608
-0.0002475813
-0.00038952438
-8.4170598e-05
-0.0002236362
-0.00011893815
-0.00024908487
-7.6417084e-05
8.6125836e-05
-0.00030739355
2.3748496e-06
0.00013333266
0.00031567742
-2.9289583e-05
0.00013992043
5.1316287e-05
6.8241251e-05
0.00011827596
-0.00039204064
9.1789324e-05
-7.9763181e-05
-0.00027270822
8.1368357e-05
-0.00031012394
-0.00012589776
2.4228097e-05
-0.00019947472
6.8641736e-05
3.9530659e-05
-0.00012005068
0.00054860222
8.242918e-05
0.00028213108
0.00022127463
-0.00010841054
5.2543954e-05
-0.00024527975
7.5990756e-05
-0.00047331472
-3.4318786e-05
3.5713487e-05
-0.00036323962
-5.3354477e-05
-0.00026292664
-0.00012309662
3.246582e-05
-0.00014554681
-0.00012496123
5.4757182e-05
0.00011132974
0.00030106303
-9.7509332e-05
9.8724854e-05
0.00063014722
3.0946665e-05
8.4981093e-06
0.00059989576
0.00010311981
-4.8180421e-05
-0.00012944834
0.00028084867
-2.7927723e-05
-0.00010678179
0.00010905933
2.9995508e-05
0.00039322179
-1.3296821e-05
3.4403439e-05
0.0005751182
-0.00010091026
7.6940862e-05
0.00043934416
-2.1284592e-05
-5.4291699e-05
0.00023821187
0.00031289541
0.00021452867
3.0916064e-05
0.00028456275
9.9823607e-05
-2.2578909e-05
0.00025048752
2.0546979e-05
-1.7121099e-05
0.00012458076
-6.4211105e-06
3.4310957e-05
-2.4344639e-05
0.0001850466
-0.00019671428
-1.7973842e-05
-0.00023637667
-0.00010809388
-4.2840211e-05
-0.00040564706
-0.00010609411
3.1146182e-06
0.00015834292
-1.219365e-05
-0.00010209084
9.9170589e-05
5.6914099e-05
-0.00014008531
-0.00038111768
3.5337084e-05
-0.00020523352
-0.00025196076
9.4340569e-05
-0.00027290853
3.7653781e-05
1.367906e-05
-0.00028344791
0.0001109579
9.0853484e-06
-3.072599e-05
0.00027596805
0.00017236819
0.0001058757
8.1313306e-05
0.00011670113
6.3903516e-05
-0.00012737267
2.9073771e-05
-0.00045452161
2.2449746e-05
-5.3951333e-05
-0.00030601367
5.1730758e-05
-0.00018389947
9.266778e-05
-3.7139587e-05
-0.00024075134
5.7915939e-05
-4.0260792e-07
-1.2919142e-05
0.0001057914
4.3396062e-06
0.00017688373
0.00036428683
9.4968356e-06
0.0002783936
0.00028190579
0.00013871364
-0.00016904349
0.00027327932
6.2160131e-05
-0.00039733503
0.00012689528
-2.944553e-05
-4.9718181e-05
-9.4384572e-05
3.4738865e-05
0.00014085217
0.00023793659
8.7144821e-06
0.0002380443
0.00021283883
0.000138619
0.00015223177
0.00020906297
0.00018955068
-4.1694753e-05
0.00029577651
-8.2448998e-05
0.00028778688
-0.00011597478
0.00019055097
-0.00014325112
0.00031569006
-0.00020206141
0.00021300574
-0.00023493858
-6.0801177e-05
-0.00018094044
2.32787e-05
2.2143079e-05
6.1389563e-05
0.00014464856
-0.000248603
4.7804181e-05
-0.00040426366
-1.954861e-06
-0.00028583111
-4.0055821e-05
-0.00013694643
-5.7527306e-05
5.3950829e-05
0.00016230209
0.00030321313
0.00024997685
-0.00019114517
6.6656165e-05
-0.00047446728
0.00010000535
-0.00034016714
7.0614337e-05
-0.00024305476
6.9363048e-05
-0.00011499174
4.607237e-05
0.0001191137
2.8719246e-05
0.00022757384
0.00010822652
0.00032230231
0.00015992121
0.00021789783
0.00017718513
-5.5455011e-05
0.0002243786
-4.276293e-05
0.00019946909
-2.7131887e-06
0.00024063746
0.00022971403
-4.0024232e-05
0.00012912302
1.3489439e-05
-5.9787447e-05
0.0001604
-3.5022036e-05
-5.0779552e-05
0.00016265665
-9.7669446e-05
-4.327525e-05
0.00010727897
-0.00010596347
-3.6145572e-05
0.000131218
-0.00017409673
-6.07914e-05
0.00013564987
-0.00012478997
-0.00014334011
0.00015813784
-0.00011498443
-0.00023074832
0.00013091912
-0.00014843829
-0.00023239366
1.1966168e-05
-0.00012880659
-2.6791894e-05
-0.00023964064
-8.8010583e-05
0.00022358128
-0.0002953854
1.1273977e-05
0.00020077993
-1.9835644e-06
2.9494051e-05
0.00013028255
1.2281733e-05
0.00010999737
-0.00025815222
0.00016763645
1.8137664e-05
5.5826381e-05
0.0001349397
0.00015639496
-0.0002250784
0.00015241511
0.00016953807
-4.4108773e-05
-9.5165586e-06
5.5870965e-06
0.00010173751
-2.710548e-05
-0.00019721556
0.00015317419
-4.4489298e-05
-0.00026156053
6.81823e-05
-4.9903922e-05
-2.4995105e-05
-0.00031513794
-6.6489386e-05
0.00015179936
-0.00023536388
-4.5601417e-05
8.9419031e-05
5.027227e-05
-0.00017931226
-4.8855324e-05
0.00010556492
-0.00016985221
-0.00018079446
0.00013748902
-0.00018505178
-0.00029492497
-4.5114436e-05
-0.00020085254
0.00053740578
-5.779635e-05
-0.00027691343
0.00049440732
-6.2320509e-05
-0.00025156864
0.000256892
4.9230011e-05
-0.00013348551
4.1622487e-05
5.1407242e-05
-1.8861371e-05
8.7731291e-05
3.67771e-05
8.4390884e-05
8.237667e-05
6.377806e-05
-0.00014716726
0.00048277654
-3.3702448e-05
-0.00035661519
0.0003242283
-0.00010968939
-0.00025560554
-9.3220844e-05
-0.00012021482
2.8355493e-05
-0.00053568122
-4.1449938e-05
0.00034317241
-0.00061607396
4.3872563e-05
0.00042937147
-2.1911834e-05
0.00012743369
0.0005686968
9.2347903e-05
0.00012260311
-0.00057935984
0.00019923155
0.00011962907
-5.5200626e-06
0.00023688344
0.0003480969
-0.00056063785
0.00016104566
0.00046566772
-0.00017991273
-2.6357962e-05
8.7337555e-05
0.00045570752
-6.6391187e-05
-0.00040586987
0.00066357588
-6.6381239e-05
-0.00034621282
8.4762281e-05
-0.00012606702
-2.6345408e-05
-0.00068065098
-2.7309256e-05
0.0002080572
-0.00056021182
-3.5333132e-05
0.0002757763
-1.3755716e-05
-0.00023298842
-1.364548e-05
0.00029298912
-0.00019628762
-0.00011867686
0.00011344668
-9.6497053e-05
-0.00066670667
0.00016921331
7.3129204e-05
0.00052972456
-1.1972597e-06
2.6205713e-05
0.00044308533
9.4956149e-05
-5.2585984e-05
0.00015376903
0.00013284375
-9.6058695e-05
-0.00010296353
-5.9522573e-05
-0.00010358508
-3.9508156e-05
-8.8870363e-05
-3.7908171e-06
-8.6714604e-05
-7.1200661e-06
3.5603186e-05
0.00021517233
0.00023058506
0.00012952232
6.8993811e-05
0.00013202577
0.00030838225
-0.00028765712
8.38176e-05
0.00011764001
-0.00027129511
1.8145454e-05
-0.00025590203
-0.00014025121
-2.0912351e-05
-0.00012302791
-7.8233515e-05
-5.2324342e-05
0.00046728182
1.7917722e-05
1.1710243e-05
-0.00054901077
-7.6378079e-05
0.00026849827
-0.00036476786
4.9105307e-05
-0.00015758809
-0.00010572058
3.6349118e-06
-0.00020068551
-0.00010241487
2.0356745e-05
3.5614558e-06
0.000285214
-0.00013126278
0.00010097758
0.00060413821
-7.0317896e-06
0.00029529426
2.4603913e-05
-3.1038511e-05
-1.9009591e-05
-0.00010189782
1.6399355e-05
-0.00027563642
-9.6863759e-05
-9.766191e-05
1.678601e-05
-0.00037239302
5.2918039e-05
0.00025675926
-8.2686567e-05
3.4792166e-05
0.00031974955
-5.4978001e-05
8.4149777e-05
-9.1388968e-05
-1.7356302e-05
0.00019737197
0.00037222064
-8.9519743e-06
0.00033933686
0.00027324822
5.2933141e-06
0.00036350864
0.00012980785
-1.7331702e-05
0.00014903107
0.00014257851
3.2464871e-06
-9.838385e-05
0.00020977357
-0.00019858109
-0.0002631117
8.8095884e-05
-0.00011817651
-8.6813047e-05
-0.00013407503
6.6854611e-05
7.8004477e-05
-0.00022374943
0.00011573207
7.4734644e-05
-0.00027373271
4.6259519e-05
6.2497328e-05
-0.00020147397
-2.2246744e-05
-0.00010729095
8.5963088e-05
3.7914546e-05
-0.00026128277
0.0001550248
-6.558744e-05
0.00022164417
-6.5597754e-06
-4.4330695e-05
-0.00050368436
2.1454041e-05
-1.1785053e-05
-0.00032819194
-1.7390788e-05
-0.00014727551
4.6246583e-05
-5.3616282e-05
-0.00021926057
1.5500899e-05
-4.633331e-05
1.7668274e-05
5.4118517e-05
-1.4937462e-06
0.00035325303
0.00027722772
8.2255453e-07
0.00035875032
8.9826122e-05
6.7994143e-05
0.00022526785
6.3935421e-05
2.9809348e-05
0.00011618302
3.1871278e-05
-4.9095748e-05
0.00012838503
-0.00039100748
4.11513e-05
0.00021646832
-0.00029338457
0.00013132917
0.00016524719
-5.4371582e-05
0.00018923369
0.00012857572
0.00015434545
0.00019763683
0.00013288906
0.0002950887
9.3347361e-05
0.00025543317
5.348861e-05
0.00018047682
7.4283744e-05
0.00027675532
-8.8566339e-05
0.00030380278
-0.00017389014
0.0001447477
-0.0001559604
-2.3301252e-05
-3.3557392e-05
-0.00019648569
4.4100291e-05
-0.00036368564
1.3530155e-05
-0.00029800101
1.8323594e-05
-0.00017288124
-1.0150794e-05
-8.7643739e-06
-0.00037958766
-5.7440518e-05
-0.0005401761
-6.7598135e-05
-0.00037545731
-4.7857858e-05
-0.00024597287
-4.4620492e-05
-9.6006526e-05
-4.9775458e-05
0.00019392387
1.6016567e-05
0.00032896006
6.3016455e-05
0.00045269546
0.00010012122
0.00049815387
0.00016359799
0.00017882846
0.00015269652
-0.00012131599
0.00020622895
-0.0001756988
0.00024064866
0.00018259094
-8.7517148e-05
0.00014130741
-3.9101251e-05
-0.00010916513
7.9296842e-05
-8.986178e-05
0.00010486776
-0.00020415902
-0.00010782071
0.0001259756
5.5602923e-05
-0.00018074028
3.7157289e-06
0.00013774175
-0.00018901643
-0.00014486962
0.00013866923
-0.00011482101
-0.00026472073
0.00011805241
-0.00011077071
-0.00022038396
-0.00011303568
-7.8970693e-05
-2.6808576e-05
-0.00025717787
-6.5910126e-05
0.00017474052
-0.00022731329
-6.3380024e-05
0.00029332976
-7.9819796e-05