/*--------------------------------*- C++ -*----------------------------------*\
| =========                 |                                                 |
| \\      /  F ield         | OpenFOAM: The Open Source CFD Toolbox           |
|  \\    /   O peration     | Version:  v2012                                 |
|   \\  /    A nd           | Website:  www.openfoam.com                      |
|    \\/     M anipulation  |                                                 |
\*---------------------------------------------------------------------------*/
FoamFile
{
    version     2.0;
    format      ascii;
    class       volScalarField;
    location    "330/bottomWater";
    object      T;
}
// * * * * * * * * * * * * * * * * * * * * * * * * * * * * * * * * * * * * * //

dimensions      [0 0 0 1 0 0 0];


internalField   nonuniform List<scalar> 
1460
(
992.5061
988.97805
986.93841
985.2065
982.72619
979.87733
979.18776
979.95402
980.82723
981.7189
982.97129
980.23792
975.31084
973.50235
968.10797
965.04534
964.30726
965.82554
963.74114
958.20343
960.65773
958.87925
957.08942
956.73431
956.70788
958.48411
964.00384
966.68655
968.46159
970.12548
988.47402
985.45624
983.68517
982.70504
981.09357
979.04247
978.33913
978.90138
978.95157
979.26356
980.04007
975.68435
974.43222
973.12258
966.68808
961.98254
959.00101
959.47378
959.9725
957.78662
957.74003
956.314
955.95585
954.5686
954.71913
958.10232
964.58495
967.69096
969.48909
970.07241
987.66458
984.21992
982.90093
982.34897
978.346
978.64281
977.85694
978.8987
978.75403
978.24121
979.42465
976.95618
975.97022
973.77627
967.07724
960.57312
955.65129
958.40819
959.36264
957.71045
957.53079
956.48317
956.51006
954.11986
953.90312
957.68029
965.48441
968.73261
971.04997
970.71253
985.65015
979.95928
978.20397
976.14665
976.12179
977.33527
976.30383
976.90985
978.10666
978.24021
979.13749
978.00484
977.82426
974.88464
967.81363
960.2729
953.3638
949.28136
955.25669
956.30253
956.10601
955.37459
955.02449
953.12132
953.1214
957.0106
965.31938
968.57732
972.23786
971.72829
984.44739
979.22083
977.77501
975.62882
975.55777
975.30269
975.02342
974.69332
975.19579
974.48734
974.91892
974.61088
974.64094
972.65351
966.94779
958.05997
948.89601
946.16508
948.79322
951.57503
951.11284
951.72244
951.79103
952.19421
952.90429
956.48168
964.87226
965.8169
966.4381
966.92498
989.73203
987.23142
985.52918
987.00126
986.75724
985.99508
985.09703
984.23351
978.22411
973.72286
977.89529
977.99923
974.32336
970.04054
969.0825
967.40245
960.8576
954.83926
952.4041
951.97708
956.64757
960.6257
959.56981
958.74889
960.12055
959.91809
964.974
966.85216
968.61995
970.40592
985.11129
982.45195
981.28994
984.10448
983.65501
983.24933
982.72868
982.54937
980.03817
972.75918
975.31612
973.74076
972.07102
969.25797
964.98442
964.20739
957.32988
952.86304
952.91436
952.21705
954.81503
958.19545
957.65332
957.82213
957.52805
959.95987
965.19681
966.67054
968.05725
969.45641
985.92406
983.3305
980.74962
979.85093
980.70384
979.14774
977.75299
980.66556
979.45821
974.26176
975.34028
974.13083
972.79807
969.45397
961.6344
963.18594
956.61916
953.05741
953.67896
953.99896
954.60886
958.09411
958.567
958.5111
958.13972
960.14815
965.81126
967.31146
968.46146
969.81587
985.48477
982.95212
979.72165
978.9634
978.99091
978.21606
977.27668
978.42581
977.95181
974.72275
975.77854
975.32197
974.54466
969.60086
961.96796
960.85375
955.50438
950.73257
951.49541
953.34354
954.38158
957.29575
957.40049
957.45163
957.25775
958.69517
966.15647
967.96508
969.44699
970.24284
983.16838
981.25525
980.02389
979.3329
977.74989
976.90311
976.5397
975.40597
975.16433
974.06896
974.06427
973.64433
973.11487
968.37674
958.77306
955.85898
951.48723
948.00473
949.26029
951.10231
952.21974
953.83593
953.25428
953.78557
954.74881
956.54385
964.58186
966.17123
967.46976
968.59828
986.71185
984.65559
983.59817
983.30488
982.73463
980.93153
981.77121
979.63946
971.99702
966.98945
968.6783
971.52596
972.10647
968.89576
963.49788
956.57774
951.05471
950.35574
952.20366
951.38692
951.52737
951.79072
959.78263
961.5559
962.16317
962.00455
966.70222
966.72414
967.57354
969.02458
984.43635
983.49775
982.57409
981.97327
981.11793
977.65996
977.97306
976.8267
969.74386
967.27486
971.2606
970.35715
970.88314
968.38055
961.08643
952.35477
949.4529
950.82237
950.77597
951.48017
950.95305
952.97589
959.12726
959.52504
959.61598
961.11245
964.34555
965.54124
966.78684
967.82365
985.06801
984.22752
982.40032
981.72827
980.54308
976.16665
973.2867
975.65899
970.97962
969.90392
971.99478
971.63437
970.41534
965.42466
961.5914
954.72297
954.78943
951.83128
950.94737
952.51801
951.74775
953.49999
959.18475
959.38443
960.82404
962.68661
962.75535
964.33128
966.62689
967.91628
984.80936
984.68989
983.95545
982.79708
981.49592
976.54995
973.40052
974.90447
971.69529
971.41887
972.64059
973.55651
970.25593
964.67053
961.56124
956.31722
955.45124
950.18219
949.96898
952.29661
952.86822
953.58512
957.35356
957.07114
960.04352
963.08134
963.21201
963.90432
966.92148
968.26006
982.64179
982.28894
982.01058
981.91737
980.66135
974.49222
973.60086
973.71333
971.02996
970.74014
971.34649
971.73792
969.81123
959.18334
957.53692
954.00566
951.58861
948.78133
949.19727
950.46083
951.34881
952.56265
952.36281
953.51101
957.2862
956.15539
962.22177
963.95541
965.90824
966.40332
986.97632
985.03616
983.4563
981.11616
982.80075
982.77801
979.75667
971.09781
963.51402
961.84002
960.41562
961.5613
961.50869
947.04312
940.94233
940.29124
941.14655
942.33539
945.50658
946.25971
945.92561
945.33621
950.28716
956.862
960.45298
961.76692
959.22192
959.56586
961.97379
964.55538
984.78115
983.79232
983.50234
980.53947
980.00949
979.69243
975.9246
967.36119
961.75108
961.33324
960.52795
960.79306
961.51335
951.67085
941.53226
941.17409
943.13384
941.50019
944.00598
947.42077
946.68885
945.67733
949.01069
958.71013
960.09911
960.12074
959.09059
958.11196
962.23326
964.37238
985.02042
984.61542
984.33294
980.07694
976.59651
975.13022
971.40917
968.82491
964.40693
961.35671
960.90273
961.13429
956.47476
949.42381
942.19274
945.4784
945.19051
941.47864
944.46369
948.73035
947.9543
945.33111
948.31942
957.42327
959.7403
960.57061
959.46193
958.31281
962.02825
965.78067
985.2304
985.2538
985.18274
985.23905
980.1589
975.57918
971.05607
969.54856
962.71186
958.63571
956.39088
957.78732
952.36831
948.18303
942.02674
946.13241
942.83094
940.74053
945.51005
947.35269
948.13759
946.05497
948.23658
955.42098
957.42361
959.41695
959.23721
958.78992
961.50993
964.48238
984.31043
983.64104
982.85259
982.31571
980.01036
977.47128
972.59133
969.17415
965.62439
958.99189
953.00643
949.44587
946.79466
944.44026
936.42417
937.77281
937.06184
940.53941
945.80902
946.39708
946.6996
946.45538
947.38888
952.16088
954.49854
955.31832
956.48861
958.95644
961.656
963.6891
988.45443
984.36924
981.89638
980.34433
977.63616
971.88823
968.83978
962.84021
961.07329
958.89002
951.9168
954.25245
946.75317
924.90827
938.14622
941.59098
941.54589
941.86825
958.26643
958.48884
957.54546
956.0582
955.60446
957.25132
959.47281
960.57247
983.86898
982.16485
981.22451
979.41969
977.9411
973.48007
969.68986
961.46303
960.40586
960.07665
952.64583
954.81418
951.27593
929.58614
938.19645
942.06982
942.37318
942.08529
955.97725
958.03631
958.46543
956.4588
955.0186
955.84443
960.33227
962.01066
983.94155
982.3519
981.17852
979.3591
975.58766
969.86364
970.46088
962.51418
961.17358
959.97304
952.71148
948.88386
948.81937
932.45624
941.47114
942.72404
943.95679
943.07083
955.78636
957.48034
958.4612
956.31996
955.30282
956.67457
958.50413
961.87829
983.92302
982.85266
982.2877
982.56343
977.06868
968.23702
967.10833
961.9087
958.30687
954.80918
952.65471
945.64482
945.67696
935.63361
942.15342
943.97739
944.10329
943.12221
955.61539
956.03735
956.65913
955.89326
955.0662
957.29561
959.68674
962.65876
983.27775
982.52842
981.94206
981.59833
977.71051
973.55588
970.57456
962.03786
954.34063
946.45538
944.56913
941.67691
939.28486
937.47008
941.67974
942.24137
943.02534
944.8726
953.87575
953.22196
953.50727
953.69197
954.19848
957.53238
961.37999
962.49315
981.6089
978.48683
977.45571
976.7516
976.3104
965.34162
962.52748
961.01751
958.85304
948.82194
949.64315
952.07678
944.21094
919.91415
941.09004
942.83556
939.99139
946.20513
955.52841
955.10333
953.61651
955.68159
953.09356
954.93579
955.66995
953.9581
977.66691
976.73727
978.80289
977.34154
976.48528
964.35556
962.56392
962.63319
958.81024
946.6629
945.7483
947.82971
944.91373
921.18262
936.53302
941.09078
939.69881
940.60696
952.38114
955.05442
954.89716
955.42317
953.15625
955.0076
957.885
960.12958
977.37118
978.80883
978.99593
977.59881
976.2582
965.03262
967.91718
965.2829
959.17165
945.86907
943.91039
947.77628
942.82153
928.81201
934.01741
935.08129
939.34329
947.04876
952.80412
954.80002
954.77491
953.77678
952.63625
955.14539
959.10058
961.66451
977.27341
977.5013
978.40158
977.79189
976.10657
967.65557
968.41742
964.5829
958.34753
941.90962
944.78738
945.44139
940.52337
934.84861
941.6494
942.7671
948.23168
950.68094
953.17542
954.32007
955.00128
952.1896
952.07504
955.63535
959.17403
961.2315
980.9746
978.78045
978.53809
977.96054
972.27616
967.5924
968.03934
967.37358
959.23392
939.70317
939.72779
939.27276
936.49262
937.30456
941.35628
942.72376
944.39619
947.00499
951.7325
951.54462
951.6283
951.55969
951.74004
956.14441
960.6834
961.08821
976.74698
974.54428
973.95287
973.64378
973.30069
965.31128
962.14772
960.97358
959.22539
951.14491
949.68094
952.60961
952.5808
949.2667
944.5859
942.00563
939.28743
936.57019
942.80596
939.84983
941.31404
943.56956
956.10446
956.76805
955.45506
954.50128
954.1734
955.01224
954.67506
953.00734
975.58817
973.70863
974.3378
973.6272
972.76244
965.27562
963.29725
961.09871
956.89949
948.54063
943.20922
945.95801
947.8874
945.7403
940.46365
937.76109
935.75144
934.23042
940.75239
937.79744
939.70051
940.52721
953.40791
955.14614
954.49897
953.83764
954.08295
956.00909
957.78103
958.31264
974.25011
973.67711
974.54101
974.10135
972.52495
965.41591
966.10049
962.55607
958.71734
947.79447
941.37534
943.48563
945.32081
942.45501
938.71681
934.22776
933.29623
933.63666
936.11312
936.70685
941.06246
942.34911
953.56381
955.29939
955.00612
953.51199
953.78355
956.4673
959.70101
958.82293
974.05066
972.18721
974.3552
974.88063
972.78649
965.34099
964.59635
962.18773
959.4812
947.84311
940.0996
940.58579
941.16275
938.78858
933.67987
933.71344
933.97586
934.72624
937.69797
942.79792
944.59491
944.53437
953.53172
954.24431
954.6773
952.39976
953.45414
956.70078
959.49393
959.35885
974.30693
972.16429
971.3617
970.9958
970.65392
964.56477
964.38956
963.76527
963.1135
948.73987
939.97885
936.99298
936.99895
936.24855
930.4137
935.37643
937.25609
939.28153
940.4345
942.17546
943.11635
944.51693
952.05905
951.75927
951.86045
951.36414
953.23547
956.97692
957.81522
958.63029
978.86655
975.44801
972.98207
972.05092
969.16429
964.68528
962.19223
960.98417
959.40464
957.37572
950.59822
952.104
954.81863
957.0616
949.35034
945.88025
942.08921
940.55955
941.31503
942.13344
943.30791
945.90285
957.1835
956.98599
955.99464
954.5142
954.71574
953.97342
952.49573
951.32868
976.3595
974.18797
972.65925
970.48737
969.36185
965.41007
961.76994
960.64947
959.26814
956.14268
949.81807
950.0792
951.78372
951.4789
945.01846
941.72428
939.42477
937.39914
939.7835
940.20617
940.49893
941.61452
955.41106
955.66113
954.87043
954.23063
955.50381
956.83063
957.14033
956.84464
975.50462
974.16363
972.69977
969.93167
969.0475
965.1921
962.42608
962.78603
960.43999
956.8834
949.90459
950.23928
949.36567
949.2854
942.9892
939.93564
938.6095
936.87235
939.2892
942.78633
941.6034
942.01035
954.64259
955.27124
954.84115
954.04329
955.27413
957.69121
958.69988
957.35652
970.61154
971.13422
970.59538
969.1441
968.15991
965.11915
963.20503
962.32377
959.44518
953.48586
945.46178
944.85597
945.22833
946.46716
939.37878
941.32778
939.6999
937.47413
943.05896
945.07766
943.63201
942.59804
952.27121
952.71953
952.85245
952.38725
954.89022
957.21481
958.71155
957.77157
969.95802
968.75329
968.31686
967.68361
966.97063
964.45417
963.36036
962.86718
960.44573
956.31212
954.05397
951.79578
946.72833
946.46324
945.82052
942.88389
939.55182
940.10903
942.40859
942.54495
942.97925
942.72435
949.53025
950.73785
951.07292
950.83359
954.82389
956.86383
957.44427
957.07444
979.18532
975.33646
972.46804
969.86732
966.4449
967.17841
966.84994
965.23733
962.85405
961.78764
961.19826
962.36526
957.94759
950.96436
948.236
946.55018
945.39955
944.47212
945.47259
947.07378
948.58858
952.66101
958.46357
958.21059
958.24929
957.20815
955.85816
954.56402
952.03452
949.88967
975.53958
972.58427
970.2066
968.21013
966.39553
965.34693
964.84546
962.10457
961.01946
960.81997
961.65369
960.59968
954.56643
949.08353
947.49565
945.77846
944.28746
943.76606
945.78882
946.25583
946.94321
952.02555
956.90726
956.67194
957.26528
956.65465
956.24862
957.15464
956.86904
955.98691
975.56157
972.80476
970.68217
969.51955
966.34743
964.96068
964.47664
962.46096
962.06755
963.26366
961.51601
959.0703
954.72428
952.84944
947.89767
946.10904
944.43206
943.79952
947.58293
946.50834
947.47693
952.24391
955.27838
955.15977
955.00399
955.38219
955.99869
957.49861
957.56784
956.32113
975.52335
973.39806
971.6257
969.03176
964.91132
964.16003
963.9019
961.91766
962.00037
963.02779
956.86913
957.77663
954.67725
951.10565
944.73479
946.94332
944.16249
943.69309
948.64219
948.27689
948.4029
952.76184
953.91682
952.91127
952.24051
955.1906
957.64071
957.5814
957.39316
956.63411
973.55792
972.44608
969.43266
965.76534
964.82569
963.70944
962.80829
961.1169
960.49396
960.25838
957.63844
957.00931
954.22508
951.36617
949.49044
948.36213
944.40822
944.33943
946.31135
947.34658
948.54474
951.09416
952.11273
951.77717
951.08733
954.58682
955.70171
956.0254
956.06557
956.09918
976.78563
975.29588
971.18078
968.73857
966.84457
965.18557
964.49656
966.3289
966.71858
967.20548
968.20762
968.48595
960.56189
956.1737
954.58728
953.8458
953.24012
952.68091
952.21867
953.91648
954.33605
954.9822
960.57609
961.12105
959.93503
958.44006
956.76454
956.13059
954.34993
951.80703
972.5727
972.5494
969.03304
967.69688
966.08279
964.0379
963.39572
964.13225
964.36661
964.55052
967.02965
964.06116
954.0091
951.02918
949.86274
949.34909
949.18498
948.51169
950.82484
954.18773
954.05987
954.25594
958.81011
958.61379
957.6491
956.52144
956.53742
957.73892
957.58656
956.58975
972.99754
972.39563
969.58902
968.15754
965.87703
963.51477
963.1778
963.63652
964.53263
964.88401
964.18052
960.92855
953.1526
950.7953
949.95846
949.33306
946.46928
946.61772
950.75305
954.31611
955.07248
955.66269
957.43362
955.72267
953.76654
955.35173
956.232
957.7464
957.60126
956.78036
972.74006
971.57044
969.75162
967.81053
964.50429
962.72197
962.55616
963.67904
964.68803
965.14518
960.54088
959.02799
953.3085
951.21963
949.52916
948.89589
946.26441
946.36661
949.41473
953.71037
955.39652
955.58767
955.63836
951.42263
953.29976
955.78559
957.28311
957.82401
957.40428
957.01087
971.39058
970.54351
969.70647
967.35809
963.58881
962.34004
961.82294
962.1307
962.34387
961.52433
959.52395
958.0517
953.1007
951.04481
948.70684
947.5293
945.65566
944.49508
945.87966
946.95026
948.4519
949.71827
950.16226
950.12602
952.38416
955.00781
955.49513
955.84607
955.94517
956.16743
)
;

boundaryField
{
    minX
    {
        type            zeroGradient;
    }
    maxX
    {
        type            zeroGradient;
    }
    minY
    {
        type            fixedValue;
        value           uniform 1073;
    }
    minZ
    {
        type            zeroGradient;
    }
    maxZ
    {
        type            zeroGradient;
    }
    bottomWater_to_rightSolid
    {
        type            compressible::turbulentTemperatureCoupledBaffleMixed;
        refValue        nonuniform List<scalar> 
130
(
738.95329
746.63452
754.68103
762.67028
770.29627
777.33726
783.66018
789.18824
793.88276
797.70132
800.56545
802.47574
803.43275
733.39189
742.35055
751.51171
760.39819
768.70199
776.22828
782.89004
788.64495
793.47917
797.3887
800.31427
802.26372
803.24068
722.14255
734.05344
745.61684
756.30175
765.88745
774.30528
781.57363
787.73029
792.80426
796.8593
799.87957
801.88766
802.89026
705.23122
722.74229
738.19251
751.44007
762.68602
772.18604
780.15307
786.74032
792.07884
796.27599
799.39508
801.46647
802.5022
685.27871
711.97866
732.03824
747.7465
760.38604
770.71865
779.15039
786.00826
791.50752
795.79861
798.98104
801.09215
802.14227
685.14948
711.84042
731.89453
747.5962
760.22316
770.52548
778.93062
785.76143
791.23654
795.50898
798.6814
800.78421
801.82675
704.80545
722.29341
737.72516
750.95043
762.17357
771.64999
779.54499
786.0529
791.31965
795.45971
798.53545
800.56775
801.58033
721.40978
733.32658
744.86513
755.50954
765.04614
773.42583
780.61635
786.66793
791.64027
795.58951
798.52902
800.47546
801.44437
732.51507
741.48582
750.62236
759.4612
767.70088
775.15299
781.7147
787.35008
792.05675
795.81291
798.62112
800.48877
801.42221
738.0162
745.70421
753.71917
761.65789
769.21272
776.1668
782.38253
787.78917
792.33407
795.97777
798.71245
800.53606
801.44933
)
;
        refGradient     uniform 0;
        valueFraction   uniform 0.99248593;
        value           nonuniform List<scalar> 
130
(
740.51027
748.15345
756.16037
764.08625
771.65955
778.64815
784.92659
790.41844
795.10459
798.95749
801.80719
803.70779
804.66127
735.00452
743.90524
753.01138
761.83949
770.09313
777.55851
784.1742
789.89307
794.70448
798.64505
801.56056
803.50511
804.48322
723.84553
735.67003
747.15602
757.76734
767.29016
775.64324
782.8656
789.00431
794.03165
798.10193
801.11248
803.12014
804.11891
706.99929
724.4184
739.75694
752.90725
764.06687
773.50254
781.44556
788.00089
793.30546
797.47988
800.59409
802.67017
803.71338
687.17369
713.70462
733.61768
749.21378
761.77219
772.09494
780.4584
787.26688
792.7262
796.98886
800.17244
802.29658
803.34718
687.04422
713.56503
733.4787
749.07493
761.6266
771.8871
780.22767
787.00777
792.44122
796.68291
799.86464
801.98572
803.02347
706.56738
723.93257
739.26145
752.3944
763.54374
773.00562
780.83904
787.29881
792.52227
796.64529
799.726
801.74932
802.76043
723.05316
734.8977
746.35054
756.91824
766.38131
774.74911
781.89469
787.90332
792.83651
796.78604
799.71878
801.65495
802.61381
734.10676
743.02492
752.10058
760.88203
769.07892
776.48267
782.99256
788.58042
793.27804
797.01435
799.80388
801.65781
802.58449
739.56771
747.20835
755.17111
763.06143
770.56901
777.47423
783.64299
789.02597
793.55644
797.17642
799.89318
801.70385
802.61192
)
;
        Tnbr            T;
        thicknessLayers List<scalar> 0();
        kappaLayers     List<scalar> 0();
        kappaMethod     fluidThermo;
        kappa           none;
        alphaAni        none;
        alpha           none;
        field           T;
    }
    bottomWater_to_leftSolid
    {
        type            compressible::turbulentTemperatureCoupledBaffleMixed;
        refValue        nonuniform List<scalar> 
130
(
855.96487
855.88461
855.76378
855.60492
855.42489
855.2287
855.0241
854.8195
854.62609
854.44958
854.30441
854.19609
854.13651
855.90356
855.83893
855.72364
855.56355
855.36392
855.13995
854.90578
854.6673
854.43734
854.22756
854.05468
853.92646
853.85412
855.77289
855.71673
855.6043
855.43579
855.20851
854.92734
854.63809
854.34584
854.0514
853.78607
853.56694
853.40569
853.31156
855.56317
855.50343
855.38206
855.19693
854.94139
854.62701
854.26814
853.8943
853.51589
853.15007
852.83893
852.61371
852.49
855.24093
855.17786
855.05114
854.85502
854.57751
854.23669
853.84674
853.41125
852.96606
852.54064
852.1982
851.94672
851.80719
854.8338
854.76601
854.64081
854.44792
854.17331
853.84601
853.48951
853.08714
852.62782
852.14887
851.78771
851.53343
851.39036
854.38982
854.32729
854.21255
854.04235
853.81044
853.51379
853.19856
852.85183
852.46753
852.03991
851.67396
851.41849
851.28556
854.04008
853.98525
853.88003
853.72365
853.51897
853.26895
852.99731
852.70579
852.39286
852.07587
851.80018
851.59227
851.4673
853.85415
853.79919
853.68569
853.52212
853.32832
853.10899
852.87399
852.62726
852.38038
852.14315
851.92755
851.76394
851.6629
853.74168
853.69087
853.58748
853.43114
853.23613
853.0289
852.81691
852.60529
852.39606
852.19232
852.00521
851.85604
851.75666
)
;
        refGradient     uniform 0;
        valueFraction   uniform 0.99248593;
        value           nonuniform List<scalar> 
130
(
856.93031
856.81134
856.68058
856.5068
856.32758
856.13096
855.9258
855.72025
855.53205
855.35159
855.21076
855.10094
855.04201
856.85985
856.78132
856.65766
856.49358
856.28355
856.05491
855.81978
855.57458
855.34448
855.12807
854.95644
854.82603
854.75026
856.72622
856.66783
856.55416
856.38621
856.15123
855.82579
855.53205
855.24283
854.9304
854.66489
854.45197
854.29485
854.18698
856.53061
856.46628
856.3399
856.15216
855.88122
855.55015
855.1572
854.76056
854.35829
853.94536
853.59159
853.34132
853.19868
856.20302
856.1348
856.00462
855.8074
855.50278
855.13338
854.72381
854.22727
853.72782
853.24638
852.89235
852.62096
852.46451
855.78168
855.69788
855.5718
855.37604
855.06075
854.70081
854.35033
853.94594
853.42874
852.80677
852.44848
852.19268
852.02978
855.2909
855.21274
855.09284
854.9212
854.68847
854.34823
854.0341
853.68528
853.29897
852.76667
852.33751
852.06144
851.92952
854.91109
854.84762
854.73993
854.57998
854.37148
854.1044
853.82661
853.53357
853.20478
852.8591
852.56854
852.34524
852.18319
854.75361
854.69072
854.55546
854.36555
854.16614
853.94006
853.70007
853.44248
853.19276
852.95555
852.72189
852.55479
852.43361
854.62569
854.5689
854.46001
854.28722
854.06535
853.85029
853.63599
853.42827
853.22222
853.01386
852.81314
852.65402
852.5182
)
;
        Tnbr            T;
        thicknessLayers List<scalar> 0();
        kappaLayers     List<scalar> 0();
        kappaMethod     fluidThermo;
        kappa           none;
        alphaAni        none;
        alpha           none;
        field           T;
    }
    bottomWater_to_heater
    {
        type            compressible::turbulentTemperatureCoupledBaffleMixed;
        refValue        nonuniform List<scalar> 
92
(
720.88239
722.82332
726.6398
732.1319
711.82925
714.12719
718.69889
725.28034
692.79028
695.81609
701.91303
710.91982
345.10888
342.30296
342.32439
345.08255
420.6023
417.12319
417.3277
420.99532
484.68477
481.7438
482.45633
486.33505
538.75094
536.91474
538.81568
543.44696
661.77153
583.05659
665.57131
583.12899
673.80514
587.64454
687.10098
595.2147
345.10888
345.08255
420.6023
420.99532
484.68477
486.33505
538.75094
543.44696
583.05659
595.2147
345.08532
345.08532
342.29394
342.30973
345.04095
345.04095
420.5175
420.5175
417.07658
417.27436
420.89733
420.89733
484.57696
484.57696
481.67368
482.37845
486.23521
486.23521
538.63368
538.63368
536.82998
538.73659
543.3723
543.3723
582.94395
582.94395
583.04094
587.5756
595.15766
595.15766
661.24222
665.06717
673.34444
686.67392
691.93116
694.98516
701.11776
710.15631
710.72965
713.09219
717.72588
724.3583
719.61703
721.62833
725.55439
731.14124
)
;
        refGradient     uniform 0;
        valueFraction   nonuniform List<scalar> 
92
(
0.99248593
0.99248593
0.99248593
0.99248593
0.99248593
0.99248593
0.99248593
0.99248593
0.99248593
0.99248593
0.99248593
0.99248593
0.99248593
0.99248593
0.99248593
0.99248593
0.99248593
0.99248593
0.99248593
0.99248593
0.99248593
0.99248593
0.99248593
0.99248593
0.99248593
0.99248593
0.99248593
0.99248593
0.99248593
0.99248593
0.99248593
0.99248593
0.99248593
0.99248593
0.99248593
0.99248593
0.99248593
0.99248593
0.99248593
0.99248593
0.99248593
0.99248593
0.99248593
0.99248593
0.99248593
0.99248593
0.99248593
0.99248593
0.99248593
0.99248593
0.99248593
0.99248593
0.99248593
0.99248593
0.99248593
0.99248593
0.99248593
0.99248593
0.99248593
0.99248593
0.99248593
0.99248593
0.99248593
0.99248593
0.99248593
0.99248593
0.99248593
0.99248593
0.99248593
0.99248593
0.99248593
0.99248593
0.99248593
0.99248593
0.99248593
0.99248593
0.99248593
0.99248593
0.99248593
0.99248593
0.99248593
0.99248593
0.99248593
0.99248593
0.99248593
0.99248593
0.99248593
0.99248593
0.99248593
0.99248593
0.99248593
0.99248593
)
;
        value           nonuniform List<scalar> 
92
(
722.77423
724.65763
728.37854
733.76071
713.75695
715.96538
720.4809
726.98009
694.79198
697.78266
703.80726
712.72821
349.63191
346.80116
346.81754
349.56139
424.59282
421.0636
421.26388
424.91867
488.17687
485.20361
485.9355
489.78288
541.82747
539.95879
541.87628
546.44792
663.89556
585.77209
667.60653
585.78368
675.78861
590.27543
688.97917
597.78332
349.62972
349.43946
424.58979
424.81692
488.17229
489.68724
541.8086
546.39388
585.73332
597.78642
349.58726
349.62516
346.81964
346.81593
349.36064
349.50622
424.45785
424.46399
421.00935
421.18534
424.65652
424.76599
488.02022
488.01742
485.10794
485.77368
489.56071
489.59448
541.65347
541.64039
539.81192
541.70449
546.3139
546.3074
585.60049
585.59881
585.65108
590.18905
597.72861
597.72831
663.30874
667.06095
675.31342
688.5569
693.84381
696.87003
702.93442
711.88006
712.53786
714.86859
719.45893
726.01174
721.35603
723.3346
727.22234
732.75312
)
;
        Tnbr            T;
        thicknessLayers List<scalar> 0();
        kappaLayers     List<scalar> 0();
        kappaMethod     fluidThermo;
        kappa           none;
        alphaAni        none;
        alpha           none;
        field           T;
    }
}


// ************************************************************************* //
