/*--------------------------------*- C++ -*----------------------------------*\
| =========                 |                                                 |
| \\      /  F ield         | OpenFOAM: The Open Source CFD Toolbox           |
|  \\    /   O peration     | Version:  v2012                                 |
|   \\  /    A nd           | Website:  www.openfoam.com                      |
|    \\/     M anipulation  |                                                 |
\*---------------------------------------------------------------------------*/
FoamFile
{
    version     2.0;
    format      ascii;
    class       volScalarField;
    location    "750/bottomWater";
    object      p_rgh;
}
// * * * * * * * * * * * * * * * * * * * * * * * * * * * * * * * * * * * * * //

dimensions      [1 -1 -2 0 0 0 0];


internalField   nonuniform List<scalar> 
1460
(
0.29653659
0.28997353
0.30915962
0.29818055
0.30052479
0.28597792
0.30874313
0.30367499
0.27950403
0.28433404
0.2825964
0.29729253
0.28801859
0.29198128
0.29358872
0.29177962
0.29198137
0.29347416
0.30020699
0.30764511
0.31391092
0.30920514
0.31354164
0.30915814
0.30778733
0.30890001
0.31068969
0.31744675
0.32038851
0.31340911
-0.25592667
-0.25006964
-0.21526797
-0.22569789
-0.26012257
-0.25013629
-0.21916065
-0.19041829
-0.23629922
-0.25118873
-0.23875698
-0.22874397
-0.25209552
-0.26460328
-0.24414792
-0.2310255
-0.26940679
-0.24908525
-0.21775209
-0.19553645
-0.18404551
-0.19829369
-0.22372772
-0.2518375
-0.28099464
-0.22812061
-0.22337991
-0.19213485
-0.21280227
-0.24010571
0.10491859
0.077889985
0.05644425
0.085667377
0.096855955
0.10193134
0.056908926
0.039175099
0.088830668
0.057712635
0.12662868
0.049764616
0.12672039
0.085032628
0.074097609
0.090110133
0.076249703
0.055462183
0.043638404
0.068612542
0.057279732
0.068904378
0.043079137
0.074887073
0.056273071
0.058696246
0.058607601
0.079090271
0.07411642
0.092263282
-0.017337076
-0.049308477
-0.036962027
-0.038567333
-0.039986541
-0.060236287
-0.065693648
-0.064939917
-0.068848366
-0.024569203
-0.058104685
-0.049431815
-0.061441107
-0.048912531
-0.090795989
-0.079659629
-0.056055242
-0.072532383
-0.068018225
-0.051780289
-0.018012889
-0.059278187
-0.07006522
-0.099170895
-0.049700787
-0.098351316
-0.069764417
-0.048098473
-0.045626085
-0.070621881
0.017366866
0.0096180157
-0.0014514135
-0.0045410771
0.001338054
0.00029168728
-0.0054841874
-0.0053929155
-0.021572313
-0.016723673
-0.0077155173
-0.0165539
0.0054060693
0.013203657
0.029137414
0.026096008
-0.014285229
0.011985337
-0.015563407
-0.018647532
-0.010207709
-0.02179107
-0.0074031598
0.020908138
0.013278466
0.01770853
-0.0046385797
-0.0082401459
-0.01230543
0.0097023743
0.29573914
0.28453854
0.31472042
0.30638219
0.2985964
0.29666325
0.29653443
0.29195058
0.28620296
0.28618262
0.28343496
0.28331304
0.28393
0.28583973
0.31728225
0.31344122
0.31245028
0.31167768
0.30632109
0.31200045
0.31335368
0.30979533
0.30551344
0.30956268
0.30930125
0.30794026
0.30115648
0.31576007
0.30698568
0.31159552
-0.2549179
-0.26826382
-0.20981363
-0.21796792
-0.27391343
-0.26449298
-0.25377834
-0.26901816
-0.24843026
-0.23054163
-0.24837097
-0.25149704
-0.24795868
-0.23703152
-0.17571507
-0.21004469
-0.26873039
-0.28049814
-0.27482555
-0.23715646
-0.22066878
-0.23767311
-0.27319668
-0.28923024
-0.28597615
-0.28490666
-0.26719748
-0.23427199
-0.26011842
-0.28044894
0.11784661
0.081595615
0.051294643
0.04554478
0.089330806
0.10776983
0.089905277
0.099645904
0.092451376
0.087079994
0.10912127
0.10569948
0.076779713
0.03853978
0.034750164
0.048382934
0.078505031
0.090704432
0.056070259
0.043001382
0.058014898
0.029150198
0.052024581
0.072931595
0.11492921
0.061392029
0.066885598
0.048932289
0.052255312
0.084149527
-0.017682864
-0.06862877
-0.067966056
-0.08437179
-0.074139775
-0.084343863
-0.11842377
-0.07002337
-0.095686673
-0.10943523
-0.086444569
-0.053526533
-0.074943707
-0.078222779
-0.059530426
-0.070641849
-0.069793418
-0.05229139
-0.074520544
-0.094857462
-0.063621435
-0.091735381
-0.088495098
-0.055974571
-0.04364603
-0.053972851
-0.10154354
-0.06372638
-0.087270277
-0.054391538
0.00059942892
-0.010553272
0.0069187293
0.018932839
0.010117495
0.017363791
0.028882428
0.001371613
-0.0031750753
0.011863316
-0.0054689116
-0.026480562
0.00065093648
0.0039569103
0.00057563423
-0.00093728612
0.0069826227
0.026297305
-0.0040062142
-0.0023181263
-0.032382231
0.0036099419
0.0097231422
0.013014917
0.031956818
0.017738327
0.014240217
0.0072062113
0.0049136379
0.0050983842
0.29473034
0.31290222
0.30827993
0.31060517
0.31163554
0.30568973
0.30192588
0.30319147
0.30089767
0.29225605
0.27485061
0.28756715
0.27477349
0.28702479
0.29967955
0.3023048
0.30291464
0.30298649
0.30060021
0.29859149
0.29244847
0.30267432
0.30444892
0.30934228
0.30590039
0.30094823
0.30471968
0.30678693
0.31083108
0.3130827
-0.24683551
-0.22034106
-0.24374961
-0.28498477
-0.28207622
-0.28253737
-0.27764335
-0.26454026
-0.20992167
-0.2196883
-0.25116635
-0.2494293
-0.24726857
-0.2340127
-0.1987985
-0.23851761
-0.27851593
-0.28640575
-0.25252924
-0.26532793
-0.26381086
-0.28107019
-0.28572377
-0.25854649
-0.26881655
-0.26274535
-0.27920055
-0.27316515
-0.29032433
-0.286801
0.095605787
0.038881697
0.072924875
0.090034375
0.13678785
0.12766508
0.085627176
0.075275671
0.033446229
0.0251749
0.10047309
0.097223645
0.10754251
0.053750763
0.040321841
0.054107644
0.093901145
0.11284581
0.12030009
0.11329482
0.1051367
0.099693695
0.11138503
0.12414687
0.10809713
0.11279579
0.1075287
0.11059681
0.10788238
0.14984402
-0.047171653
-0.078794313
-0.079313142
-0.048348745
-0.031379403
-0.041898068
-0.0503758
-0.07806972
-0.080926636
-0.073139535
-0.058434317
-0.023042454
-0.054784922
-0.06844814
-0.082209079
-0.087585959
-0.058478397
-0.04218867
-0.11651329
-0.10065248
-0.081238767
-0.055366263
-0.049453404
-0.091564696
-0.09513244
-0.089503919
-0.062806276
-0.071125296
-0.05056058
-0.038028466
0.008928225
0.019422849
0.030653591
0.034904865
0.042822651
0.034511235
0.024076099
0.011003677
0.0063533264
-0.0035340953
-0.016692681
-0.0078149048
-0.015127305
-0.020025938
0.0049020228
0.018077815
0.014712705
0.03530423
0.042676731
0.02750449
-0.0064836792
0.0015681639
0.0076512007
0.036085788
0.064283472
0.032844451
0.0015780591
0.043864168
0.027710333
0.036677263
0.28895543
0.30382154
0.30775958
0.30982817
0.30730689
0.29990535
0.29989088
0.30453564
0.30319978
0.29113727
0.27566232
0.27960289
0.28320757
0.28304753
0.2840805
0.28985614
0.29372859
0.29156605
0.3120109
0.31351506
0.31617235
0.31293707
0.30826389
0.31633925
0.30089487
0.31889597
0.3068689
0.3074143
0.30735349
0.31192833
-0.24383836
-0.23671409
-0.27659017
-0.27885747
-0.27494248
-0.28278935
-0.27233971
-0.22554424
-0.17810264
-0.21179233
-0.24654995
-0.25396022
-0.26073776
-0.25100109
-0.25156763
-0.25078037
-0.26520372
-0.26157984
-0.23060852
-0.20982644
-0.22287523
-0.25817089
-0.2851087
-0.28584519
-0.26966573
-0.23741297
-0.24558476
-0.26280871
-0.26876245
-0.28664792
0.088243542
0.041210279
0.095073545
0.11361759
0.12843148
0.094286096
0.066017209
0.052361702
0.033364387
0.057280962
0.083160954
0.088371892
0.10822144
0.11664707
0.097398981
0.093160587
0.081013445
0.06194916
0.044744651
0.06425194
0.053622934
0.044743681
0.078224366
0.08495921
0.071812193
0.03554381
0.07523796
0.084642663
0.080827861
0.10417051
-0.061511933
-0.086252244
-0.087775218
-0.037785922
-0.045981577
-0.061525099
-0.080387366
-0.083425288
-0.0929027
-0.060251704
-0.057007807
-0.052802512
-0.037110022
-0.038544362
-0.056901994
-0.069557284
-0.06459075
-0.093657701
-0.081252506
-0.068066736
-0.056072386
-0.095204791
-0.052189328
-0.030943571
-0.09954589
-0.07177632
-0.087600713
-0.093214404
-0.11644454
-0.060130365
0.014057055
0.022138559
0.033997108
0.038079885
0.02861099
0.018679328
0.01091964
0.009226534
0.0026906719
-0.015178561
-0.0027491366
-0.0033228253
0.0076300855
-0.011631945
-0.015419293
-0.0075416097
-0.0052861363
0.013148819
0.00018673023
-0.015353531
-0.007041402
0.0054708195
0.011603561
0.014259639
0.024021799
0.0032587387
-0.017053132
0.0035407156
0.018968758
0.015593388
0.29098548
0.29924261
0.30791175
0.30459036
0.30220756
0.30316006
0.31515663
0.30993282
0.29839599
0.30136638
0.28443739
0.28728334
0.2897007
0.31063071
0.30710089
0.31609108
0.31879186
0.32123914
0.31529541
0.31429902
0.31176042
0.32286912
0.32305578
0.32973858
0.32740671
0.3243502
-0.25080821
-0.25334954
-0.25817515
-0.27144148
-0.27857183
-0.25939761
-0.20439153
-0.18949896
-0.20463205
-0.21128061
-0.24875656
-0.26525451
-0.25318966
-0.26963667
-0.26796554
-0.23149635
-0.20833347
-0.22533641
-0.25494669
-0.28899531
-0.2563462
-0.21788989
-0.20177441
-0.2120886
-0.23937141
-0.26239464
0.11519845
0.068951477
0.11619146
0.088448
0.066918259
0.048643935
0.04167944
0.04301834
0.075707069
0.067595931
0.064465188
0.090269508
0.10271091
0.094799639
0.085323006
0.059242939
0.059312458
0.054430853
0.062612417
0.067001272
0.066612884
0.059724073
0.058513793
0.061863673
0.041894551
0.068761681
-0.056174588
-0.087027025
-0.11621504
-0.054979854
-0.072663032
-0.096363814
-0.080753228
-0.089190913
-0.058564799
-0.048078884
-0.087925636
-0.051251501
-0.073831277
-0.048815175
-0.072247477
-0.051987356
-0.067014667
-0.04796701
-0.069578235
-0.026290357
-0.098617108
-0.047028108
-0.032637636
-0.054442444
-0.085073953
-0.088015297
0.002323513
-0.0035154056
0.026876852
0.01512498
0.0076291375
0.0057518437
0.0078796512
0.00012150148
-0.0074709769
-0.0071681337
0.0052282534
0.0055760005
0.018405785
-0.012301289
-0.017788977
-0.017219887
-0.010733638
-0.014813621
-0.0035757572
0.017860559
0.0043425144
-0.021688043
-0.017772536
-0.017199928
-0.013073976
0.0032514172
0.29142533
0.305187
0.30647196
0.30243069
0.30648688
0.30518564
0.2991546
0.29021915
0.30145325
0.30301994
0.29304183
0.29151169
0.28784244
0.30028543
0.30599455
0.30537826
0.30381042
0.32217442
0.30237965
0.31512161
0.2993287
0.31866187
0.32022561
0.32783666
0.33096841
0.32882105
-0.24315772
-0.23733904
-0.26710099
-0.25840456
-0.22851445
-0.20455874
-0.2022711
-0.23206351
-0.20781865
-0.21757768
-0.24968479
-0.26785754
-0.23637227
-0.27280142
-0.28280048
-0.28162293
-0.26739771
-0.23891223
-0.25852981
-0.28114025
-0.26295088
-0.2335087
-0.2092903
-0.2126608
-0.2416539
-0.27590918
0.094408083
0.06998643
0.096768973
0.061889503
0.039701064
0.064906917
0.071323343
0.11439221
0.083405406
0.054676816
0.061150073
0.081029914
0.10258224
0.10242335
0.089436624
0.062420556
0.066899772
0.034089377
0.076191608
0.066285304
0.066207754
0.045862295
0.052015149
0.060977477
0.046093041
0.087143391
-0.055984781
-0.058715085
-0.048930651
-0.064408749
-0.069054535
-0.055923816
-0.05960043
-0.045284912
-0.055126416
-0.07042142
-0.087697958
-0.043132328
-0.079333542
-0.040575042
-0.041873515
-0.073122235
-0.08957889
-0.072068686
-0.07726014
-0.01971297
-0.077353846
-0.026128011
-0.032064601
-0.050186361
-0.079250018
-0.060273462
-0.0072991407
-0.02155584
-0.017938539
-0.011359995
-0.0083738734
-0.020513363
-0.015598414
-0.01198064
-0.0157336
-0.0054177107
0.014213348
0.0074528247
0.041148112
-0.00094824782
0.0011608415
-0.001618961
0.022185425
0.019109333
0.0047950106
-0.01303919
-0.010971203
-0.013889191
-0.017345082
-0.024427447
-0.0079216566
-0.00011256029
0.29470307
0.28974644
0.28998097
0.29999759
0.30273556
0.30609984
0.30846138
0.29052465
0.29902889
0.29892043
0.29745794
0.30076798
0.29281295
0.28656994
0.30605668
0.30676806
0.31177726
0.31313746
0.3119034
0.31276327
0.31678742
0.31365797
0.32296359
0.31235974
0.31585198
0.31421072
0.30434141
0.33378464
0.32545699
0.32842424
-0.26310866
-0.26701508
-0.2490229
-0.20984028
-0.1959454
-0.18063175
-0.1968628
-0.24085804
-0.23410778
-0.25904745
-0.28682643
-0.27435138
-0.25700731
-0.25808847
-0.20463383
-0.19288176
-0.20478506
-0.23248624
-0.27301953
-0.2847742
-0.28911453
-0.2831741
-0.24945757
-0.26119456
-0.29636255
-0.2601711
-0.27029423
-0.22936089
-0.28387372
-0.29571789
0.11107073
0.067538355
0.064337765
0.030053579
0.069348206
0.058386887
0.056515215
0.089249415
0.079609622
0.074766756
0.082526271
0.11457428
0.077502343
0.047164565
0.032945196
0.068227257
0.071777701
0.065340212
0.084855431
0.10782781
0.10192995
0.088662329
0.028266606
0.079245803
0.058637872
0.064020674
0.060275024
0.042688992
0.05780434
0.087695298
-0.049128505
-0.065641317
-0.075182616
-0.066890897
-0.0564411
-0.023931601
-0.039559231
-0.06615437
-0.08470181
-0.098095863
-0.059357022
-0.041007395
-0.064047455
-0.062931353
-0.058962564
-0.039676616
-0.048589236
-0.075418102
-0.063574623
-0.043853533
-0.03232655
-0.066646556
-0.061787873
-0.079919674
-0.039031181
-0.070866593
-0.078977768
-0.082916287
-0.10647529
-0.053547543
0.017773733
0.007360688
0.021899472
0.0020283556
-0.023605898
-0.0061052111
-0.015667389
-0.014290258
0.0052997348
0.021357557
0.013438615
0.031192909
0.0053596278
0.0064763194
-0.0063958155
-0.010307309
-0.0051932246
0.006259772
0.015144352
0.021206782
0.032254751
0.027741013
0.023979151
0.020325585
0.01307285
0.0059522396
-0.01048248
-0.0025175239
0.012810512
0.015305166
0.29836705
0.29356363
0.29281195
0.30069969
0.30356936
0.30493748
0.30207491
0.30944946
0.29834417
0.29884106
0.30868065
0.30040909
0.30033844
0.29469883
0.2974174
0.31109361
0.31375715
0.31507705
0.32263762
0.30796315
0.3174501
0.31379077
0.31966755
0.30889673
0.31100481
0.31385648
0.29424799
0.33915804
0.33225812
0.33477632
-0.26553786
-0.26538409
-0.24266828
-0.20472247
-0.19766074
-0.18231488
-0.18306525
-0.20742296
-0.26421226
-0.29189082
-0.27888458
-0.27359355
-0.27214995
-0.27122228
-0.25718345
-0.20950667
-0.19912449
-0.20460399
-0.22811196
-0.26048608
-0.28184952
-0.25795033
-0.24080606
-0.27605283
-0.28822351
-0.2751552
-0.26646736
-0.23970956
-0.2983261
-0.29739617
0.097183954
0.069641544
0.048272491
0.036412928
0.067498997
0.057693554
0.06524355
0.033659346
0.053029212
0.063580966
0.12322513
0.1125244
0.11021593
0.079656065
0.052416344
0.052195335
0.0646137
0.05775288
0.029191147
0.068320267
0.048990154
0.093467857
0.026958076
0.078683066
0.091509123
0.078869227
0.058316922
0.034574986
0.071704236
0.12695772
-0.0411183
-0.057551064
-0.077398297
-0.063547857
-0.047111737
-0.029603245
-0.052942224
-0.068857904
-0.07844994
-0.058232324
-0.029604675
-0.02767332
-0.032409882
-0.049145632
-0.07853506
-0.052334865
-0.041717653
-0.048758769
-0.061162275
-0.071100488
-0.025761438
-0.077738538
-0.058641026
-0.072583028
-0.038629109
-0.032204917
-0.082557816
-0.058931589
-0.080954442
-0.025446875
0.018811682
0.0090249303
0.011815512
-0.0009831095
-0.011986558
-0.0073486068
-0.012260044
0.006406494
0.011489187
0.015261632
0.037115561
0.03180699
0.026683515
0.011401739
0.0057428049
-0.0041563084
-0.011782586
-0.0042926234
0.016654801
-0.010230605
0.0058134328
0.0172104
0.026171114
0.021779546
0.031172308
-0.0011984839
0.011648362
0.024268086
0.032817863
0.048393415
0.29434042
0.29668557
0.29189268
0.28835318
0.29076767
0.29939225
0.30848625
0.29296021
0.29233887
0.29944666
0.29514255
0.29358749
0.29442619
0.2976576
0.30036467
0.30490302
0.31241625
0.29604423
0.31644238
0.30735225
0.30868289
0.31626479
0.31994325
0.30922884
0.31386242
0.31755107
0.29232334
0.33453571
0.32744824
0.33000987
-0.25381344
-0.27265661
-0.26610722
-0.25646613
-0.25654658
-0.21084518
-0.20770954
-0.27309348
-0.27903012
-0.27900631
-0.26480871
-0.26726707
-0.25544535
-0.27164038
-0.27695245
-0.24269133
-0.23585097
-0.26638915
-0.2605758
-0.28331861
-0.27517019
-0.23486696
-0.22463606
-0.2779637
-0.28982551
-0.27462341
-0.27533983
-0.24481699
-0.27884354
-0.29805071
0.091765994
0.087043896
0.082037196
0.067486146
0.067914596
0.049446266
0.034164164
0.050725882
0.067590961
0.098991569
0.097352198
0.082857117
0.088995979
0.089836259
0.078625417
0.055585506
0.062744525
0.075628693
0.095991602
0.085652965
0.08389184
0.065915919
0.03575849
0.068623843
0.092592682
0.10271594
0.065141196
0.040422993
0.061520463
0.09118324
-0.089600319
-0.05185555
-0.054470387
-0.061010751
-0.060656756
-0.059955679
-0.064305959
-0.071322745
-0.053431583
-0.037897127
-0.053435871
-0.07471662
-0.087985466
-0.0465078
-0.036002994
-0.060888459
-0.047741495
-0.068971951
-0.071355312
-0.031036142
-0.053422947
-0.052144589
-0.072555278
-0.082462419
-0.048273472
-0.026134009
-0.098290339
-0.07954209
-0.10537142
-0.04332894
0.031422848
0.0029175111
-0.0034415748
-0.006537332
-0.0094061645
-0.01407403
-0.0042688571
-0.0061542913
0.0054883694
0.023957192
0.026615052
0.045249508
0.018662677
7.004483e-05
-0.0069362891
0.0051231539
-0.0056661424
0.012003011
0.024381221
0.01375999
0.0022858261
-0.0099621945
0.0061162499
0.012794054
0.011653608
-0.0094728783
-0.014853803
0.0073317798
0.026453857
0.031290144
0.2999206
0.30013412
0.29204673
0.29170883
0.29390876
0.29015493
0.29024448
0.29243402
0.29373059
0.29398168
0.31052424
0.30819337
0.30447651
0.31095133
0.30756678
0.30562602
0.30763652
0.31004214
0.31366012
0.3066255
0.31748313
0.3176988
0.31711963
0.3051073
0.31200962
0.3109442
0.29986311
0.31995281
0.32932203
0.32636058
-0.20489484
-0.21666862
-0.23643156
-0.26506937
-0.26742349
-0.24695644
-0.24840486
-0.26629609
-0.26299281
-0.25071254
-0.20865728
-0.18917024
-0.21006829
-0.20260506
-0.22574702
-0.25148334
-0.2758353
-0.272358
-0.27802932
-0.26224736
-0.23202433
-0.19629139
-0.22815993
-0.27090787
-0.28066361
-0.26312672
-0.26823583
-0.22985358
-0.23326444
-0.28242955
0.075846578
0.059925742
0.07527566
0.0699854
0.087819412
0.077262223
0.078532792
0.084220485
0.079084732
0.059662889
0.03635281
0.055214696
0.062270807
0.069124927
0.076421997
0.073314081
0.086389546
0.10616401
0.082663695
0.067890256
0.051054348
0.072956359
0.048139498
0.067793352
0.094181935
0.11490457
0.089948325
0.062265248
0.034669428
0.078097706
-0.055387114
-0.06274221
-0.094712683
-0.035751198
-0.040762323
-0.080401865
-0.080296132
-0.04240669
-0.029299636
-0.058045812
-0.048140726
-0.05432246
-0.049832707
-0.041932583
-0.0468237
-0.078432615
-0.049641838
-0.038405715
-0.027685032
-0.085378386
-0.043084052
-0.032234612
-0.034534177
-0.056393156
-0.031865171
-0.018878187
-0.047045919
-0.067937417
-0.089268233
-0.076066688
-0.0031795413
-0.0043261434
0.019409583
0.016865952
0.021739337
0.033668037
0.033674172
0.018163697
0.015417206
0.018280736
0.020461967
0.010865734
-0.009713883
-0.0065509053
-0.0038245124
0.012719285
0.0075197925
0.013158672
0.021482982
0.023735526
-0.00048983998
-0.006305593
-0.0072603285
-0.0045736745
-0.0018415566
0.00024106152
-0.017375642
-0.018732869
0.015142102
0.021081588
)
;

boundaryField
{
    minX
    {
        type            fixedFluxPressure;
        gradient        uniform 0;
        value           nonuniform List<scalar> 
50
(
0.29653659
-0.25592667
0.10491859
-0.017337076
0.017366866
0.29573914
-0.2549179
0.11784661
-0.017682864
0.00059942892
0.29473034
-0.24683551
0.095605787
-0.047171653
0.008928225
0.28895543
-0.24383836
0.088243542
-0.061511933
0.014057055
0.29098548
-0.25080821
0.11519845
-0.056174588
0.002323513
0.29142533
-0.24315772
0.094408083
-0.055984781
-0.0072991407
0.29470307
-0.26310866
0.11107073
-0.049128505
0.017773733
0.29836705
-0.26553786
0.097183954
-0.0411183
0.018811682
0.29434042
-0.25381344
0.091765994
-0.089600319
0.031422848
0.2999206
-0.20489484
0.075846578
-0.055387114
-0.0031795413
)
;
    }
    maxX
    {
        type            fixedFluxPressure;
        gradient        uniform 0;
        value           nonuniform List<scalar> 
50
(
0.31340911
-0.24010571
0.092263282
-0.070621881
0.0097023743
0.31159552
-0.28044894
0.084149527
-0.054391538
0.0050983842
0.3130827
-0.286801
0.14984402
-0.038028466
0.036677263
0.31192833
-0.28664792
0.10417051
-0.060130365
0.015593388
0.3243502
-0.26239464
0.068761681
-0.088015297
0.0032514172
0.32882105
-0.27590918
0.087143391
-0.060273462
-0.00011256029
0.32842424
-0.29571789
0.087695298
-0.053547543
0.015305166
0.33477632
-0.29739617
0.12695772
-0.025446875
0.048393415
0.33000987
-0.29805071
0.09118324
-0.04332894
0.031290144
0.32636058
-0.28242955
0.078097706
-0.076066688
0.021081588
)
;
    }
    minY
    {
        type            fixedValue;
        value           uniform 0;
    }
    minZ
    {
        type            fixedFluxPressure;
        gradient        uniform 0;
        value           nonuniform List<scalar> 
150
(
0.29653659
-0.25592667
0.10491859
-0.017337076
0.017366866
0.28997353
-0.25006964
0.077889985
-0.049308477
0.0096180157
0.30915962
-0.21526797
0.05644425
-0.036962027
-0.0014514135
0.29818055
-0.22569789
0.085667377
-0.038567333
-0.0045410771
0.30052479
-0.26012257
0.096855955
-0.039986541
0.001338054
0.28597792
-0.25013629
0.10193134
-0.060236287
0.00029168728
0.30874313
-0.21916065
0.056908926
-0.065693648
-0.0054841874
0.30367499
-0.19041829
0.039175099
-0.064939917
-0.0053929155
0.27950403
-0.23629922
0.088830668
-0.068848366
-0.021572313
0.28433404
-0.25118873
0.057712635
-0.024569203
-0.016723673
0.2825964
-0.23875698
0.12662868
-0.058104685
-0.0077155173
0.29729253
-0.22874397
0.049764616
-0.049431815
-0.0165539
0.28801859
-0.25209552
0.12672039
-0.061441107
0.0054060693
0.29198128
-0.26460328
0.085032628
-0.048912531
0.013203657
0.29358872
-0.24414792
0.074097609
-0.090795989
0.029137414
0.29177962
-0.2310255
0.090110133
-0.079659629
0.026096008
0.29198137
-0.26940679
0.076249703
-0.056055242
-0.014285229
0.29347416
-0.24908525
0.055462183
-0.072532383
0.011985337
0.30020699
-0.21775209
0.043638404
-0.068018225
-0.015563407
0.30764511
-0.19553645
0.068612542
-0.051780289
-0.018647532
0.31391092
-0.18404551
0.057279732
-0.018012889
-0.010207709
0.30920514
-0.19829369
0.068904378
-0.059278187
-0.02179107
0.31354164
-0.22372772
0.043079137
-0.07006522
-0.0074031598
0.30915814
-0.2518375
0.074887073
-0.099170895
0.020908138
0.30778733
-0.28099464
0.056273071
-0.049700787
0.013278466
0.30890001
-0.22812061
0.058696246
-0.098351316
0.01770853
0.31068969
-0.22337991
0.058607601
-0.069764417
-0.0046385797
0.31744675
-0.19213485
0.079090271
-0.048098473
-0.0082401459
0.32038851
-0.21280227
0.07411642
-0.045626085
-0.01230543
0.31340911
-0.24010571
0.092263282
-0.070621881
0.0097023743
)
;
    }
    maxZ
    {
        type            fixedFluxPressure;
        gradient        uniform 0;
        value           nonuniform List<scalar> 
150
(
0.2999206
-0.20489484
0.075846578
-0.055387114
-0.0031795413
0.30013412
-0.21666862
0.059925742
-0.06274221
-0.0043261434
0.29204673
-0.23643156
0.07527566
-0.094712683
0.019409583
0.29170883
-0.26506937
0.0699854
-0.035751198
0.016865952
0.29390876
-0.26742349
0.087819412
-0.040762323
0.021739337
0.29015493
-0.24695644
0.077262223
-0.080401865
0.033668037
0.29024448
-0.24840486
0.078532792
-0.080296132
0.033674172
0.29243402
-0.26629609
0.084220485
-0.04240669
0.018163697
0.29373059
-0.26299281
0.079084732
-0.029299636
0.015417206
0.29398168
-0.25071254
0.059662889
-0.058045812
0.018280736
0.31052424
-0.20865728
0.03635281
-0.048140726
0.020461967
0.30819337
-0.18917024
0.055214696
-0.05432246
0.010865734
0.30447651
-0.21006829
0.062270807
-0.049832707
-0.009713883
0.31095133
-0.20260506
0.069124927
-0.041932583
-0.0065509053
0.30756678
-0.22574702
0.076421997
-0.0468237
-0.0038245124
0.30562602
-0.25148334
0.073314081
-0.078432615
0.012719285
0.30763652
-0.2758353
0.086389546
-0.049641838
0.0075197925
0.31004214
-0.272358
0.10616401
-0.038405715
0.013158672
0.31366012
-0.27802932
0.082663695
-0.027685032
0.021482982
0.3066255
-0.26224736
0.067890256
-0.085378386
0.023735526
0.31748313
-0.23202433
0.051054348
-0.043084052
-0.00048983998
0.3176988
-0.19629139
0.072956359
-0.032234612
-0.006305593
0.31711963
-0.22815993
0.048139498
-0.034534177
-0.0072603285
0.3051073
-0.27090787
0.067793352
-0.056393156
-0.0045736745
0.31200962
-0.28066361
0.094181935
-0.031865171
-0.0018415566
0.3109442
-0.26312672
0.11490457
-0.018878187
0.00024106152
0.29986311
-0.26823583
0.089948325
-0.047045919
-0.017375642
0.31995281
-0.22985358
0.062265248
-0.067937417
-0.018732869
0.32932203
-0.23326444
0.034669428
-0.089268233
0.015142102
0.32636058
-0.28242955
0.078097706
-0.076066688
0.021081588
)
;
    }
    bottomWater_to_rightSolid
    {
        type            fixedFluxPressure;
        gradient        uniform 0;
        value           nonuniform List<scalar> 
130
(
0.011985337
-0.015563407
-0.018647532
-0.010207709
-0.02179107
-0.0074031598
0.020908138
0.013278466
0.01770853
-0.0046385797
-0.0082401459
-0.01230543
0.0097023743
0.026297305
-0.0040062142
-0.0023181263
-0.032382231
0.0036099419
0.0097231422
0.013014917
0.031956818
0.017738327
0.014240217
0.0072062113
0.0049136379
0.0050983842
0.03530423
0.042676731
0.02750449
-0.0064836792
0.0015681639
0.0076512007
0.036085788
0.064283472
0.032844451
0.0015780591
0.043864168
0.027710333
0.036677263
0.013148819
0.00018673023
-0.015353531
-0.007041402
0.0054708195
0.011603561
0.014259639
0.024021799
0.0032587387
-0.017053132
0.0035407156
0.018968758
0.015593388
-0.012301289
-0.017788977
-0.017219887
-0.010733638
-0.014813621
-0.0035757572
0.017860559
0.0043425144
-0.021688043
-0.017772536
-0.017199928
-0.013073976
0.0032514172
-0.00094824782
0.0011608415
-0.001618961
0.022185425
0.019109333
0.0047950106
-0.01303919
-0.010971203
-0.013889191
-0.017345082
-0.024427447
-0.0079216566
-0.00011256029
0.006259772
0.015144352
0.021206782
0.032254751
0.027741013
0.023979151
0.020325585
0.01307285
0.0059522396
-0.01048248
-0.0025175239
0.012810512
0.015305166
-0.0042926234
0.016654801
-0.010230605
0.0058134328
0.0172104
0.026171114
0.021779546
0.031172308
-0.0011984839
0.011648362
0.024268086
0.032817863
0.048393415
0.012003011
0.024381221
0.01375999
0.0022858261
-0.0099621945
0.0061162499
0.012794054
0.011653608
-0.0094728783
-0.014853803
0.0073317798
0.026453857
0.031290144
0.013158672
0.021482982
0.023735526
-0.00048983998
-0.006305593
-0.0072603285
-0.0045736745
-0.0018415566
0.00024106152
-0.017375642
-0.018732869
0.015142102
0.021081588
)
;
    }
    bottomWater_to_leftSolid
    {
        type            fixedFluxPressure;
        gradient        uniform 0;
        value           nonuniform List<scalar> 
130
(
0.017366866
0.0096180157
-0.0014514135
-0.0045410771
0.001338054
0.00029168728
-0.0054841874
-0.0053929155
-0.021572313
-0.016723673
-0.0077155173
-0.0165539
0.0054060693
0.00059942892
-0.010553272
0.0069187293
0.018932839
0.010117495
0.017363791
0.028882428
0.001371613
-0.0031750753
0.011863316
-0.0054689116
-0.026480562
0.00065093648
0.008928225
0.019422849
0.030653591
0.034904865
0.042822651
0.034511235
0.024076099
0.011003677
0.0063533264
-0.0035340953
-0.016692681
-0.0078149048
-0.015127305
0.014057055
0.022138559
0.033997108
0.038079885
0.02861099
0.018679328
0.01091964
0.009226534
0.0026906719
-0.015178561
-0.0027491366
-0.0033228253
0.0076300855
0.002323513
-0.0035154056
0.026876852
0.01512498
0.0076291375
0.0057518437
0.0078796512
0.00012150148
-0.0074709769
-0.0071681337
0.0052282534
0.0055760005
0.018405785
-0.0072991407
-0.02155584
-0.017938539
-0.011359995
-0.0083738734
-0.020513363
-0.015598414
-0.01198064
-0.0157336
-0.0054177107
0.014213348
0.0074528247
0.041148112
0.017773733
0.007360688
0.021899472
0.0020283556
-0.023605898
-0.0061052111
-0.015667389
-0.014290258
0.0052997348
0.021357557
0.013438615
0.031192909
0.0053596278
0.018811682
0.0090249303
0.011815512
-0.0009831095
-0.011986558
-0.0073486068
-0.012260044
0.006406494
0.011489187
0.015261632
0.037115561
0.03180699
0.026683515
0.031422848
0.0029175111
-0.0034415748
-0.006537332
-0.0094061645
-0.01407403
-0.0042688571
-0.0061542913
0.0054883694
0.023957192
0.026615052
0.045249508
0.018662677
-0.0031795413
-0.0043261434
0.019409583
0.016865952
0.021739337
0.033668037
0.033674172
0.018163697
0.015417206
0.018280736
0.020461967
0.010865734
-0.009713883
)
;
    }
    bottomWater_to_heater
    {
        type            fixedFluxPressure;
        gradient        uniform 0;
        value           nonuniform List<scalar> 
92
(
0.013203657
0.029137414
0.026096008
-0.014285229
0.0039569103
0.00057563423
-0.00093728612
0.0069826227
-0.020025938
0.0049020228
0.018077815
0.014712705
0.28304753
0.2840805
0.28985614
0.29372859
-0.25100109
-0.25156763
-0.25078037
-0.26520372
0.11664707
0.097398981
0.093160587
0.081013445
-0.038544362
-0.056901994
-0.069557284
-0.06459075
-0.011631945
-0.011631945
-0.015419293
-0.015419293
-0.0075416097
-0.0075416097
-0.0052861363
-0.0052861363
0.2897007
0.31063071
-0.25318966
-0.26963667
0.10271091
0.094799639
-0.073831277
-0.048815175
0.018405785
-0.012301289
0.28784244
0.28656994
0.30605668
0.30676806
0.30028543
0.31177726
-0.23637227
-0.25808847
-0.20463383
-0.19288176
-0.27280142
-0.20478506
0.10258224
0.047164565
0.032945196
0.068227257
0.10242335
0.071777701
-0.079333542
-0.062931353
-0.058962564
-0.039676616
-0.040575042
-0.048589236
0.041148112
0.0064763194
-0.0063958155
-0.010307309
-0.00094824782
-0.0051932246
0.0064763194
-0.0063958155
-0.010307309
-0.0051932246
0.011401739
0.0057428049
-0.0041563084
-0.011782586
7.004483e-05
-0.0069362891
0.0051231539
-0.0056661424
-0.0065509053
-0.0038245124
0.012719285
0.0075197925
)
;
    }
}


// ************************************************************************* //
