/*--------------------------------*- C++ -*----------------------------------*\
| =========                 |                                                 |
| \\      /  F ield         | OpenFOAM: The Open Source CFD Toolbox           |
|  \\    /   O peration     | Version:  v2012                                 |
|   \\  /    A nd           | Website:  www.openfoam.com                      |
|    \\/     M anipulation  |                                                 |
\*---------------------------------------------------------------------------*/
FoamFile
{
    version     2.0;
    format      ascii;
    class       surfaceScalarField;
    location    "750/bottomWater";
    object      phi;
}
// * * * * * * * * * * * * * * * * * * * * * * * * * * * * * * * * * * * * * //

dimensions      [1 0 -1 0 0 0 0];
oriented        oriented;


internalField   nonuniform List<scalar> 
3858
(
-0.0001207185
0.00013720759
-1.4918766e-05
-0.00016483773
0.00010029216
-5.3048313e-05
9.8622329e-05
-0.00028932214
2.489471e-05
0.00018971563
-0.00010943618
1.96495e-05
5.7489435e-05
0.00010468039
2.8307931e-05
-2.4020094e-05
8.8949457e-05
-3.64655e-06
0.00018419803
-0.00027346556
6.434503e-05
0.00037036343
-0.00025528908
6.9603359e-05
0.00034414595
4.8805724e-05
-1.6910695e-05
0.00018741149
0.00017125259
-9.947252e-06
1.2283165e-05
7.8965204e-05
0.00010085958
5.7120336e-05
-0.00013271015
8.9273841e-05
-5.7170085e-05
6.5917576e-05
5.1764443e-05
-0.00017154277
0.00014699071
-2.9960253e-05
-0.00015967863
8.5836791e-05
-9.5310855e-05
-0.00025022623
0.00015038585
-5.6969432e-05
-0.00035815734
0.0001687133
-5.778699e-05
-0.00039409004
2.6441482e-05
1.2126066e-05
-0.00031564858
-0.00016045509
8.3308917e-05
-0.00017629319
-0.00025319107
0.00011343244
3.6857027e-05
-0.00032033853
0.00010523218
0.0001528617
-0.00022986726
0.0001128473
0.00022192298
-0.00020324987
0.00013237368
5.5379029e-05
4.4186868e-05
0.0001212774
-0.00021275167
0.00015394699
0.00011348173
-0.00026479738
-4.8032268e-05
9.9206378e-05
-0.0001814086
-0.00017159871
8.7013754e-05
2.9916448e-05
-0.0002709423
5.6802421e-05
0.0001733031
-0.00029315921
0.00014640252
3.0252701e-05
0.00014097451
-0.0003061163
0.00051336371
-7.0039819e-05
-0.00020097952
5.1624174e-05
-5.6468792e-05
0.00012545841
-0.00065674142
4.0981348e-05
0.00023748893
-0.00032124539
9.9778682e-05
-5.1254472e-05
0.000256235
0.0001371888
-8.2545056e-05
-5.2507762e-06
0.00012549082
0.00010398427
-0.00063674943
0.00017675455
0.00030773254
-0.00058703129
0.00012799394
0.00042194009
-2.8915259e-05
-3.6486555e-05
4.3094742e-05
0.00058647659
-3.6378644e-05
-9.0544483e-05
0.0001533547
5.9249737e-05
0.00021710231
-0.00043973249
-6.2444185e-07
1.6024825e-05
0.00032818689
-6.1191822e-05
-0.00029080467
0.00062133904
-0.00016751882
-6.3731185e-05
1.1438526e-05
-0.00015267522
-3.2185515e-05
0.00012675447
-7.9142976e-06
-0.0003835252
0.00043182268
8.8230305e-05
-0.00039909156
-0.00012037568
0.00016238352
-0.00026780084
-0.00043926286
0.00014751704
-0.00014381246
-0.00052306935
0.0001458899
8.361499e-05
-0.00062288232
7.5116339e-05
0.00021810008
-0.0004885409
0.00012418855
0.00039340926
-0.00053278905
0.00015423
0.00024750211
3.4840591e-06
0.00018660995
-0.00034421387
0.00061799264
0.00012767034
-0.00035456638
-0.0001879899
0.00015031014
-0.00016839603
-0.00044768008
8.9911025e-05
7.9626745e-05
-0.0005322975
1.3332426e-05
0.00026892191
-0.00063640848
0.00015395411
2.9354292e-05
0.00026982032
0.00019715618
0.00038343099
-6.722347e-05
0.00030935511
-7.860506e-05
1.8030294e-05
-7.211168e-05
-0.00030614759
3.0872952e-05
-6.2891593e-05
-0.00042194143
9.1475954e-05
0.00024993726
-0.00011115111
5.4557259e-05
0.00048888811
-0.00022632239
-1.7879245e-05
0.00023709938
-0.00024303207
-0.00014192862
-0.00019037842
-0.00011348643
-4.6067061e-05
-4.5269234e-05
-0.00022698753
5.2963104e-05
3.9404309e-05
0.00042901547
7.2787589e-05
4.9357434e-05
1.9566973e-05
0.00012383462
9.3391623e-06
-0.0002578403
-0.00014187389
-1.7366843e-06
0.0002730435
6.6219253e-05
5.0669357e-05
0.0005754047
-6.4717005e-06
1.8523177e-06
-9.7441116e-05
0.00015769668
-3.2982184e-05
-2.4137334e-05
0.00018572631
0.00015892485
0.00018604628
5.3869352e-05
0.00015529057
-7.2740057e-05
-4.4001353e-05
-4.1624016e-05
-0.00016680907
-7.5539215e-05
-5.8514851e-05
-0.00047344085
-3.2737667e-05
-3.9967832e-05
-0.00056748478
-7.3944567e-05
-3.5060595e-05
-0.00038897454
-0.00010447361
-0.00019364809
-0.00021561191
-0.00015858963
-0.00011362952
-6.1054394e-05
-1.5480119e-05
-1.6745485e-07
0.00050710333
-2.5727489e-06
-4.9065539e-05
-9.1252354e-05
-4.783945e-05
-5.589757e-05
-0.00023087024
-0.0002099778
-1.1139639e-05
-0.00044702161
-0.00013003382
-8.7931333e-05
-0.00051480718
-4.4809597e-05
-0.00012775445
6.9177408e-05
0.00027976817
0.00014019312
-3.6530304e-05
0.00022103157
-6.8163026e-05
4.8294552e-05
8.7559916e-05
-0.00027353589
0.00010085994
7.3732342e-05
-0.00039745733
-1.065653e-05
0.00022701351
-0.00022641529
-3.8016997e-05
0.00024494378
-0.00017758829
-6.666437e-05
0.0001503408
-0.00014825722
-1.718659e-07
-3.9766434e-05
3.736902e-06
7.2883911e-05
-9.2539848e-05
-0.00025525502
8.1040915e-05
0.00020622789
-9.156144e-05
0.00022180919
0.0001954509
-9.5587615e-05
0.0001259316
0.00010995318
-0.00021015092
3.780836e-05
9.9705987e-05
0.00017897073
0.00010431997
0.00030077066
0.0002895015
8.4838538e-05
-1.9059839e-05
0.00025616574
-3.3776352e-05
-0.00019148876
0.0001303234
1.7968183e-05
0.00012890422
-0.00018738131
5.3034605e-05
8.1171416e-05
4.0828921e-05
-6.5836186e-05
1.224531e-05
-9.9720721e-05
1.8377419e-06
-5.4912344e-05
-0.00049549342
8.9210211e-05
-6.5154747e-05
-0.0005384875
-1.8754879e-05
3.9946322e-05
-0.00041264999
-8.1425617e-05
-3.6029591e-05
-8.5033946e-05
-5.4602056e-05
-0.00018016501
0.00018778998
-0.00010470896
0.00012683451
0.00017140501
2.8698813e-05
-1.5212417e-05
0.00016436603
-0.00011357144
-4.6121418e-05
-0.00014607636
-5.3884873e-05
7.7016081e-05
-0.00047760643
-9.2552665e-05
0.00011708262
-0.00052776129
-2.711243e-05
7.9954153e-05
-9.0625979e-05
0.00017290663
-3.2713511e-05
0.00017061584
-6.5872249e-05
5.5184179e-05
-0.00015810423
-6.6492886e-05
-0.00027578027
-2.7369781e-05
-0.0002655384
4.8119633e-05
-0.0002530777
0.00014123684
-0.00024137443
0.00028065111
-0.00013567736
0.00018796312
-0.00016256702
0.00016294197
-6.6540276e-05
8.6331769e-05
-1.8977396e-05
-0.00017097613
4.7156998e-05
-0.00013394219
0.0001419368
3.8803655e-05
0.00011675566
0.00021591342
7.9055974e-05
0.00031845577
2.7781049e-05
0.00021072538
-7.9650927e-05
0.00034739996
-9.584567e-05
0.00037916349
-0.00013148426
9.2877193e-05
-0.00020920713
-0.00029770215
-0.00014790817
-0.00050024555
-0.00021010659
-0.00043504617
-0.00015023333
-0.00015896449
-8.8291694e-05
9.9883639e-05
-8.7443119e-05
0.00034927537
-8.5025698e-05
0.00034588099
-0.00014268198
8.8895731e-05
-0.00022062116
-0.00018997688
-0.00024888867
-0.00011002273
-9.9646219e-05
0.00012265215
-3.6186867e-05
-0.00014279629
0.00010946055
-0.0001149878
0.00015287682
-0.00036065515
8.784544e-05
0.0002892801
-0.0001625695
4.5523598e-05
0.00024122859
0.00011223392
-3.4434874e-05
0.00017992996
0.00013827821
-7.8815368e-05
0.00020700011
7.8778046e-05
-3.9721057e-05
0.00020174559
0.00011866794
-4.0970377e-05
0.00012568107
0.00014801039
-8.4805743e-05
2.6767038e-05
0.00014060961
-4.7761467e-05
-0.00011096151
0.00013298528
0.00011018496
-0.00023665057
0.0001628275
5.6878611e-05
-0.00031757929
0.00014747639
-1.0093298e-05
-0.0002517336
-4.4194554e-05
-4.739444e-05
6.2063243e-05
-0.00043352755
2.1909386e-05
0.00015467451
-0.0002391245
8.764933e-05
-1.0345663e-05
3.5673059e-05
6.9652673e-05
-0.00019394545
0.00012828745
6.5770037e-05
-0.00025722594
0.00011127675
3.5042636e-05
-0.00015224743
-7.150887e-05
7.8443326e-05
8.2105726e-05
-0.00021129129
8.032159e-05
0.00020514638
-7.3379857e-05
6.2036459e-05
0.00015949287
0.00011031796
6.7611628e-05
4.379223e-05
0.00017189871
6.4000478e-05
-8.7136726e-05
0.00016008176
8.3246679e-05
-0.00013925813
0.00017357063
-2.2998121e-05
-0.000135047
0.00011798446
-3.4457454e-05
7.1700752e-05
-0.0002145053
6.2107052e-05
0.00010619861
-3.7467788e-06
0.00011504019
0.00013525671
0.00011035511
-0.00022346087
0.00037455211
-9.8478912e-05
-9.9686277e-05
3.5485514e-05
-0.00010626836
0.00020624689
-0.00072820549
0.00010259851
0.00033434794
-0.00041739599
0.00022650412
0.00014490554
0.00035029441
8.8570707e-05
3.6112997e-05
0.00027181446
0.00010074711
7.859556e-05
2.909079e-05
0.00018395924
-0.0001834546
0.00043858316
7.0128886e-05
-0.00024028618
0.00022589382
-5.7538398e-05
-0.00015734785
5.2518165e-05
-3.1225522e-05
-0.00013538189
6.0285869e-05
0.0001099832
-0.00022734
0.00018795603
6.6205146e-05
-0.00022548074
0.00011575162
-3.1326313e-05
-4.3858611e-05
-0.00025788294
-0.00013545255
0.00020803018
-0.00079976051
-3.8331043e-05
0.00041039722
-0.000505145
5.5739161e-05
0.00018663487
0.0002784225
6.9243213e-05
-0.00030735607
0.00073478537
4.9876533e-05
-0.00045176216
0.00044198695
-3.878707e-05
-0.00015954748
-0.00024578435
2.7950693e-05
0.00018564302
-0.00051314497
3.1779519e-05
0.00042422332
-0.00027896724
9.1195631e-05
0.00047290269
7.0222523e-05
0.00014564605
0.00023040415
0.00052884769
7.2159514e-05
-0.00016403962
0.00068210769
8.8174875e-08
-0.00038733095
0.00059385619
-4.6684085e-05
-0.00020666436
6.375679e-05
-3.6527886e-05
0.00017587267
-0.00056962091
-1.4088991e-05
0.00031393843
-0.00011934934
0.00013149092
0.00053235612
0.00018665934
0.00036637574
-8.1355087e-05
2.2307981e-05
0.00051705583
-0.00015384144
5.667715e-05
4.7327884e-05
-0.00013687369
-9.0730903e-05
-0.0002498752
-4.2270066e-05
1.3553115e-05
-8.6019254e-05
0.00027396049
-3.2964768e-05
-4.3413138e-06
0.0001593842
1.2873071e-05
-2.2370971e-05
-6.0252863e-05
-3.4555312e-05
-0.00014074616
0.00036240983
0.00014848146
-0.00020063761
0.00010614529
0.00023260309
-0.0002287208
-3.9339824e-05
0.00019272878
-8.3626213e-05
-6.3537188e-05
0.00010256311
0.00022672145
-0.00025800409
-6.261424e-06
0.0004860429
-1.5343574e-05
-6.2006993e-05
0.00038741784
-8.5242035e-05
-8.0487538e-05
-4.0045536e-05
-0.00012671362
-8.7886839e-05
-0.00016952273
-0.00015260265
-3.7338862e-05
-1.2827413e-05
0.00016779256
7.8039717e-06
-7.3774297e-05
0.00073970715
1.2023742e-05
-5.5354096e-05
0.00034682204
1.2054811e-06
-9.1364989e-07
-0.00021286641
-0.00012009606
-5.0046806e-06
-0.00051095566
-7.2042852e-05
-0.00015866124
-8.4267644e-05
-0.00014551664
-9.5802349e-05
-1.4576041e-05
-0.00013664996
5.7440167e-05
0.00040609184
-4.5966789e-05
-7.9360428e-06
0.00067553512
6.9376037e-05
1.493183e-05
0.00050911064
1.4038236e-05
0.00013324351
-8.1941768e-06
-0.00025633851
-0.00011932106
-0.00020383283
-0.00024325732
-0.00013411773
-7.7276882e-05
-7.208538e-05
0.00039439308
7.3022714e-05
0.00025667249
-0.00039664039
2.2082504e-05
0.00029779496
-0.00015994717
1.3277801e-05
0.00013983375
7.7379487e-05
4.4567962e-05
-2.5306508e-05
0.00017770392
-6.5490263e-05
0.00017712254
0.00011474032
-8.1225879e-05
0.00013423973
0.00019436036
-5.8757729e-05
-0.00019128224
0.00030553638
-4.0439135e-05
-1.7524924e-05
0.00013661237
0.00012492406
1.2669977e-05
4.1224208e-05
0.0001157671
-0.00019302498
0.00031597604
7.2188299e-05
-0.00018601667
6.011286e-05
-4.726725e-06
9.8323142e-05
-0.00045383527
-5.0700256e-05
0.00017297577
6.7918426e-06
7.5319441e-06
-4.3381352e-05
0.00017249727
4.3456367e-05
-0.00015139633
-4.4399534e-05
-8.0754553e-06
-0.00016170873
-0.00012513906
8.1699244e-07
-0.00011196479
0.0001694473
1.6359176e-06
9.4407013e-05
0.00044518303
2.2316115e-05
0.00012144384
0.00022935875
9.2264195e-05
-5.0522838e-05
-2.4010262e-05
7.2320729e-05
-1.1260179e-05
-0.00054176445
-2.7208757e-05
-0.00013298758
1.7078928e-05
-6.1044788e-05
-0.00026466435
0.00017437952
-0.00011188084
-5.6692661e-05
0.0001483828
-5.4971607e-05
0.00011609611
0.00040347991
0.00012796525
0.00024291118
0.00024044646
2.8277681e-05
0.00015202189
0.00016974406
-0.00014093382
1.7956652e-05
-0.00011113123
-5.1189015e-05
-0.00014624838
2.612081e-06
5.7203642e-05
0.00012988823
2.7630493e-05
-0.00026415043
-0.00016520348
-0.00029962065
-0.0001903492
-0.0001998882
-0.0001804572
-9.1613461e-05
-0.00020635109
-1.5519256e-05
-0.00022689228
5.0614294e-05
-0.0001248509
0.00016760475
-5.28285e-05
0.00018444151
-1.5901747e-05
8.7753107e-05
-2.46544e-05
0.00023106227
0.00010612662
0.00020286616
6.933159e-05
-0.00020074577
-3.0663254e-06
-0.00020371588
0.00015169877
-9.703303e-05
0.00018257008
-0.00015319821
9.0821619e-05
-0.00025249907
1.9428522e-06
-0.00014038711
-2.2315605e-05
0.00019815687
1.0793377e-05
0.00034665611
-5.0624755e-05
0.00020880911
-9.53704e-05
-0.00033431699
-0.00014654652
-0.00040327388
-0.00012407078
-0.0002868562
-9.2271486e-05
-0.00015510632
-7.1658771e-05
0.00013057712
3.0353367e-05
0.00025311531
3.288257e-05
0.00024773242
3.2444975e-05
5.0690086e-05
-0.00013471005
-7.7150167e-05
-0.00011843633
-5.7284659e-05
-0.00017237253
0.00010513045
3.3073294e-05
4.9834379e-05
-0.00033218163
-6.7260027e-06
0.00013433837
-7.4672725e-05
7.7103317e-05
9.8701114e-05
6.5272222e-05
1.4411924e-05
1.9868434e-05
0.00011431178
-7.1633755e-05
-8.969908e-05
0.0001504918
-0.00012005433
-0.00015548679
0.00015347753
-0.00012681322
-0.00014083921
4.2778255e-05
-9.8146647e-05
-2.1877211e-05
-0.00017145263
-3.1585056e-05
0.00011576202
-0.00018334964
5.1042806e-07
1.5397068e-05
0.00017788035
3.911748e-05
-0.0001017102
0.00014878144
2.8780852e-05
-0.00020240038
0.00015999533
-6.2875561e-05
-0.00012128969
-0.00013845906
1.3782694e-05
7.0959762e-05
-0.0002612556
9.2006912e-05
0.00011267783
-7.9413431e-05
0.0001257869
-4.5481173e-06
8.4743127e-05
0.00010236022
-9.6496622e-05
0.00012785528
3.0031796e-05
-8.0647338e-05
6.4082774e-05
-4.4200081e-05
-3.2888334e-05
5.763517e-05
-2.5856945e-05
-1.30903e-05
0.0001507699
-8.7731204e-05
1.4800511e-05
0.00014790735
-0.00011350275
1.7840026e-05
0.00016041243
-9.5966893e-05
3.1640806e-05
0.00011417171
-6.522673e-05
1.4996722e-05
0.00013848891
-3.9084284e-05
2.0343441e-05
0.0001267077
-0.00015442442
5.5520038e-06
0.00013578149
-0.00015563753
-4.8628215e-06
0.00014045573
-6.8636015e-05
2.1780467e-06
0.00014957147
-4.3135248e-05
0.00014204605
-3.1575289e-05
-0.00012054336
0.00012915651
-1.9616151e-06
0.00021212203
-0.0007385912
-3.2524179e-05
0.00037594122
-0.00019480863
5.8915227e-05
0.0001988166
0.00041778731
5.1113643e-05
-0.00012944896
0.00068027895
-0.0001491309
-0.00035525849
0.00062228615
-0.00014523771
-0.00048240975
0.00056792772
-0.00010333969
-0.0005112252
0.00022289883
-8.1176249e-05
-0.00030317131
-0.0004619097
2.4864798e-05
-2.6275672e-05
-0.00053263468
4.1163885e-05
7.5047348e-05
0.00010926042
7.728012e-05
-0.00013714628
0.00033706858
9.0111646e-05
-6.6531398e-05
2.7118492e-05
3.0935649e-05
0.00011054446
-0.0004697734
1.8785934e-05
0.00031893481
-0.00060612612
9.8149127e-05
0.00048528468
-0.00024312002
5.3095888e-05
0.00022640973
0.00045078365
-3.7922366e-05
-0.00020070436
0.00069900078
-9.415487e-05
-7.6657114e-05
2.6884798e-05
-0.00012563635
0.00012364573
-7.0615766e-05
-4.4101217e-05
0.00026873094
8.0457186e-05
-4.299298e-05
0.00022178245
0.00036938975
-8.3338287e-05
2.1653554e-05
0.00057738594
-7.1198559e-05
4.7585433e-05
0.0001851928
-2.4793459e-05
0.00016043243
0.00011665369
-9.0923592e-05
0.00022155869
0.00014692405
-0.00012802669
0.00013648954
0.00037262912
-0.00018830636
0.00020519092
0.00020243319
-0.00014476782
0.00021485541
0.00040725785
-0.00013585994
0.00059813376
-5.4572953e-05
0.00030457715
-0.00018015177
2.7039101e-05
-0.00022965327
-9.3049307e-05
-5.4634326e-05
-0.00028707749
-3.8290493e-05
-0.00018982483
-0.0001369028
0.00035448806
-7.3322333e-05
-8.0158055e-05
0.00067841127
-8.7841827e-05
-5.8767456e-05
0.00061979823
-6.0296143e-06
-5.4827561e-05
0.00048842697
4.1005544e-05
-1.0851801e-05
0.00013827986
0.00018912467
-0.0002829361
-0.00010107925
0.00014385695
-0.00055095477
-0.00014425955
7.2372331e-05
-0.0002490561
-0.00021716187
0.00012708674
6.5664396e-05
-8.6300322e-05
0.00010238699
0.00038481729
-0.00032634274
-2.7698642e-05
0.00028189616
-0.0002461089
-0.00020123089
-8.0631211e-05
-9.5759864e-05
-0.00023572573
-0.0001456045
-5.2326412e-05
-0.00016315919
-4.8648586e-05
0.00038840195
-2.6770257e-05
-6.8145791e-06
0.00067817304
-8.9825337e-06
7.6673577e-05
-8.3702162e-05
2.8304277e-05
1.0252304e-05
-0.00016336661
3.9076051e-05
0.00012113588
-0.00017651818
7.4048939e-05
7.8926214e-05
0.00019362577
7.2456996e-05
3.6894344e-05
0.00052950089
-4.6733048e-05
0.00014389549
4.6240457e-05
-1.401559e-05
0.000171477
1.1021309e-05
0.00014742691
0.00020610313
4.0731358e-05
8.5604806e-05
0.000110331
0.00019298447
1.9078267e-05
-5.3610267e-06
5.8803717e-05
1.606418e-05
-4.2162482e-05
0.00026244202
0.00010953191
0.00059214143
3.6852561e-05
9.4088396e-06
-0.00025240695
8.4928834e-05
-0.00025187322
0.00014563947
3.5871075e-05
-0.00041520017
0.00019343928
-2.3834862e-05
-0.00024262988
0.00023236508
-0.00011593757
-3.7207469e-05
0.0004432002
-5.1437227e-05
7.903143e-05
0.0003954213
4.9380306e-05
0.00017979461
0.00027317737
7.4047278e-05
0.00014420185
0.00014593748
0.00015285921
-8.59781e-05
0.00015154085
9.3326966e-05
-0.00018416456
4.0319764e-05
-1.4204541e-05
-0.00011322002
-0.00029898717
6.1540626e-06
2.8542165e-05
-0.00032632758
4.756483e-05
7.8820521e-05
-0.00038670377
1.761463e-05
9.5060321e-05
-0.00018079981
-3.8092523e-05
-9.3484704e-05
0.00010868604
-2.3976334e-05
-0.00027542543
0.0002154068
-8.4975498e-05
-5.9310913e-05
0.00021011623
-3.6192882e-05
0.00026418307
0.00038267205
-5.6768845e-06
-6.9485707e-05
0.00041407485
-7.1844056e-05
-0.00036927512
0.0002077656
9.7791918e-07
-0.00027423105
-0.00024113315
-5.7637875e-05
-2.3180058e-05
-9.4331237e-05
-2.4138776e-05
0.00034748193
0.00011577998
-6.8821924e-05
0.00024249821
0.00024539843
-0.00014914585
-5.3830035e-05
0.00044941662
-1.4101808e-05
-6.4580952e-05
0.00015076049
-7.1000531e-05
0.00013428109
-0.00012050473
-2.6306648e-05
-8.4189529e-05
0.00024213218
-1.6046853e-05
-0.00018546941
0.00025956765
0.0001613579
0.00033499985
9.9302672e-05
-0.00038516165
-3.244878e-05
-0.00039347574
-3.6395653e-05
-0.00031906206
-6.1431607e-05
-0.00021089362
-8.2154454e-05
1.4997444e-05
-9.5831557e-06
0.00020803354
7.7534305e-05
0.00031687062
0.0001115118
0.00033176671
0.00011513964
0.00034403228
0.0001146209
0.00035810218
0.0001323765
0.00015266745
-2.4220838e-05
-0.00010424294
-7.2483504e-05
-0.00028987738
-4.9370546e-05
-0.00041268615
0.00012457905
-0.00036303844
0.00014985995
-0.00026733762
0.00012164883
-0.00018865056
0.00010911356
8.6747745e-05
0.00011806711
0.00027677799
0.00017341985
0.00023556153
0.00015361166
-0.00011753145
-3.4586693e-05
-0.0003159185
-2.0014966e-05
-0.00025485915
-3.7550858e-05
-8.1349321e-05
2.2982948e-07
0.00023607182
0.00016234884
0.0002205279
0.00019918699
-8.5346025e-05
0.00021781417
-0.00014063006
0.00016270617
-0.00014539494
0.00014589621
0.00013232026
-0.00017474399
0.00017687946
3.4279943e-05
-3.0422878e-05
-0.00017805628
2.7069824e-05
1.8069749e-05
3.7200358e-05
-9.5964734e-06
-2.8830765e-05
0.00012801097
-6.8089215e-05
-9.1435642e-05
0.00012878357
-0.00013848109
-0.00017799114
0.00014995518
-0.00018228746
-0.00021129995
6.7204061e-05
-0.00015952155
-0.00013444287
-9.8739577e-05
-7.6193908e-05
9.3572461e-05
-0.00027623773
1.6945981e-05
0.00029296004
-0.00020917458
1.3292978e-05
0.00023354861
0.00012030651
-1.5327543e-05
0.00012347247
0.00017405041
-2.968874e-05
-1.7086721e-05
0.0001591653
-7.6880929e-05
-0.00013306114
0.00013429238
-0.0001616455
0.00012506389
-0.00019393048
0.00016138133
-0.0002693285
0.00018030194
-0.0003151829
9.468847e-05
-1.5810639e-05
-0.00015590222
-0.0002447628
3.9867828e-05
3.5706139e-05
-0.00025458155
3.5127006e-05
0.00020264192
-0.00020892182
-4.8251911e-05
0.00019878411
2.1802588e-05
-0.00013317294
8.0262397e-05
0.00014208094
-0.00012025693
-6.6875682e-05
0.00016150137
-8.2242368e-05
-0.000124278
0.00013182625
-0.00011275771
8.0713953e-05
-0.00024876214
-0.0001136383
0.00014121138
-9.1551299e-05
-0.00012504476
0.00012098522
8.1697591e-05
-0.00013072978
6.3988916e-05
0.00014604555
-0.00013282381
0.00018061769
-0.00014989478
-1.3723612e-05
0.00015393017
3.4711288e-05
0.00033877288
-0.00054861824
-1.4458707e-05
0.00028682523
0.0001872172
-3.9153972e-05
-8.2899599e-05
0.0007287451
-0.00017989567
-0.00036959635
0.00058184683
-0.00031549741
-0.00049548038
0.00045257581
-0.00032197432
-0.00053929426
0.00023604154
-0.00022836327
-0.0003667338
-0.00025068453
-0.00010179176
-8.8428511e-05
-0.00058222141
5.2543194e-05
0.00020445664
-0.00052159752
6.0701674e-05
0.00032999747
-1.6797493e-05
8.88433e-05
0.00020947864
0.00027617495
0.00010850595
-2.6998597e-05
0.00046197324
-3.5395048e-05
-5.6049466e-05
0.00018212919
6.1688328e-05
0.00010547522
-2.326751e-05
0.00029943305
-0.00024328009
0.00036239215
-0.00022152157
-5.271248e-05
3.1487554e-05
-8.754851e-05
-0.00062538966
0.00012101745
8.9524081e-05
-0.00056606676
9.0311398e-05
0.00038357113
-0.00052262603
-2.3335822e-05
0.00051622173
-6.1738199e-05
-0.0001324481
0.00019941305
0.00058047079
-0.00019277974
-0.00026687224
0.00067943797
-7.6444764e-05
-0.00015864367
4.013408e-05
-0.00010745999
0.0001688941
-0.00063428158
-7.0045008e-05
0.00024953389
-0.00029196137
-6.8536084e-05
0.000314492
-1.1718788e-05
-0.00011630954
0.00034618219
8.0515584e-05
-0.00010202016
0.00058966717
-0.00011744024
0.00025153356
-8.0893293e-05
1.0329e-05
-0.00018858105
-8.8648871e-05
-7.4489103e-05
-0.00014613132
0.00010798263
-0.00015303998
-8.2570278e-05
0.00070090264
-0.00010904092
-7.0934409e-05
0.00056579182
-8.3422687e-05
-2.024212e-05
0.0003832033
1.2650605e-05
0.00011248346
0.00013410023
1.0221273e-05
8.6697807e-05
-7.7419193e-05
4.1644992e-05
-0.0002746786
-7.8987025e-05
1.9989803e-06
-0.00037768324
-0.00040144858
5.5228032e-05
-0.0001794575
-0.0002669764
0.00017903992
-7.4781908e-05
0.00016899842
0.00010488795
-2.7961184e-05
0.00036288805
2.4565828e-05
0.00013002724
-0.00017709012
0.00019533402
-0.00019555729
0.00018493767
0.00014667021
0.00027172854
0.00024883102
0.00030470883
-6.3113564e-05
-3.1561748e-05
5.1301909e-05
-0.00021471828
-0.00012896018
-1.8902199e-05
-0.00048538785
2.8601245e-05
-0.00013483179
-0.00032694891
-5.6986031e-06
-4.9283337e-05
-0.00011593129
4.1101638e-05
0.00010114254
0.00046870128
-8.538941e-05
0.00018628173
0.0005797722
5.1098898e-07
0.00039956344
-3.8854307e-05
1.3133589e-05
6.8044679e-05
-0.0002131142
-4.0438173e-06
2.9750949e-05
-0.00038223431
0.00014764494
-4.0719918e-06
-0.00018603651
0.00022420485
-2.8577221e-05
-2.7110186e-05
0.00024166292
0.00055235574
4.5586776e-05
3.4630093e-05
-0.00015351754
0.00012292298
-0.00025548052
0.00018021715
5.7115657e-05
-0.00034820254
0.00024100916
-6.4139382e-05
-8.4186948e-05
0.00038731086
-6.6361375e-05
7.6554695e-05
0.00035558228
-1.9693281e-06
0.00022358877
0.00022950882
5.6040707e-05
0.00026523952
0.00011137126
5.5125501e-05
0.00016977107
0.00012794415
4.296433e-05
-2.4987731e-06
0.00012247048
6.4139314e-05
-8.8564058e-05
-0.00037757756
4.7989743e-05
-0.00021185092
-0.000293825
0.00015628955
-0.00021230024
0.00010234582
0.00011466676
-5.142926e-05
5.7219338e-05
0.00016241239
5.4400259e-05
-0.00032101216
8.5647376e-05
-0.00025078073
0.00018454295
-3.7200865e-05
0.00031729385
7.9887237e-05
0.00010261979
0.00031114855
-0.00016526494
-6.635914e-05
1.113758e-05
-0.000128721
-5.1892198e-05
-0.00048674139
-1.2135495e-05
-9.61419e-05
-0.00029316976
-4.7167323e-05
-0.0002230389
9.1544797e-05
-0.00010471787
-1.126335e-08
0.00018966942
-1.28177e-05
0.00034777322
0.00017514362
-9.2301746e-05
0.00029557566
0.00018729841
-0.00018805695
0.00024688594
-0.00010329182
-0.00013213318
0.00026034064
-0.00046193558
3.9939933e-05
-1.4028475e-05
1.2147312e-05
6.0138449e-05
-0.00030844051
0.00031697449
0.00011168527
0.00023874656
0.00010447135
-0.00035867688
0.00017271055
-0.00037180893
0.00015695354
-0.00024080798
4.8576595e-05
-1.1008046e-05
7.5356467e-05
0.00015916574
0.00017582533
0.00026301751
0.00020319136
0.00030023295
0.00018566761
0.00034836446
0.00019495229
0.00039065941
0.00019479643
9.2831659e-05
5.26267e-05
-0.00017335823
-5.1855936e-05
-0.00010317246
-4.0323449e-05
-3.0828846e-05
-6.449481e-05
-0.00022726195
-0.00032818273
-0.00024373477
-5.4733975e-05
0.00025058398
0.0001238977
0.00025019666
0.00018494475
-0.00011906312
3.6130036e-05
-0.00032772167
-0.00011909791
-0.00022082418
-3.5367665e-05
-5.1708713e-05
-1.6996904e-05
0.00012057728
3.0874558e-06
0.00035843326
0.00011179128
0.00026106797
0.00019326046
-0.00020484752
0.00022179409
-0.00035529714
0.00032530311
-0.00016956279
0.00027713635
0.00020150402
-0.0001407627
0.00017156593
6.3216898e-06
-4.1508662e-05
-9.4780721e-05
2.3589671e-05
-2.1165458e-05
-4.4886245e-06
-2.6550015e-05
-0.00011774487
0.00015725608
-0.00012881129
-0.00018367078
0.00012677897
-0.00019863558
-0.00018102585
2.1949686e-05
-0.00020638297
-5.9063547e-05
-0.00017260955
-0.00011107372
7.1660047e-05
-0.00022064736
1.246947e-05
0.00017677048
-0.00012984049
4.2944616e-05
0.00032891029
-0.00019863846
6.0684617e-05
0.00029378723
2.8735196e-05
-4.430805e-06
0.00017154173
0.00015244964
-5.598175e-05
0.00014832052
-5.0459044e-05
-0.0001544144
0.00014447299
-7.3627367e-06
-0.00022612566
5.373323e-05
5.7282188e-05
-7.5857733e-05
-0.00020136563
8.3768705e-05
8.3189287e-05
-0.00024614307
3.5682908e-05
0.00017810521
-0.00020572556
-2.5942549e-05
8.0744675e-05
7.2103128e-05
-9.7343759e-05
-0.00014083607
0.00015119522
-1.4050648e-05
-0.00025099607
5.0262581e-06
-9.2188645e-06
-9.0048915e-05
-0.0002762753
-2.153187e-06
8.0161583e-05
-0.00034551744
4.6338242e-05
0.00021367759
-0.00030913796
3.9582738e-05
0.00022058585
-0.00018505962
4.0544727e-05
8.7824109e-05
-2.1501087e-05
6.445016e-05
0.00010490501
3.6922045e-05
0.00034109624
-0.00040342912
1.7543613e-05
0.00022066501
0.00012759335
-5.0804731e-05
-0.00017582303
0.00064903118
-0.00027518273
-0.00041194225
0.00039140601
-0.00034400522
-0.00036396598
-2.8397989e-05
-0.00031960292
-0.00019233611
-0.00043725324
-0.00013534945
-8.2631181e-05
-0.0004976554
6.5511355e-05
6.2737744e-05
-0.00031888402
9.6217804e-05
0.00029306938
-0.00049837838
0.00013010996
0.00038671619
-0.00012789298
0.00015182467
0.00015445695
0.00037195813
0.0001212567
0.0002510873
1.629513e-05
-0.00023831061
0.00037323403
4.103713e-05
-0.00024210041
-2.1227045e-05
0.00019976752
-2.4038883e-05
-0.00052390226
0.0001947865
0.00011658612
-0.00054308123
0.00013297732
0.00033176429
-0.00052750086
-2.5850968e-05
0.00025134139
6.4361647e-05
-0.00010461535
-0.00032754815
0.00071841743
-6.4777436e-05
-0.00034695637
-8.499128e-05
1.9657784e-06
-2.065901e-05
-0.00061638211
-5.6235565e-05
0.00019789167
-0.00068751063
5.4906434e-05
0.00029187861
-0.00063578111
0.00011634667
0.00033049141
-0.00047682451
0.00015113193
0.00017698986
0.00012388543
0.00032621903
-0.00028516946
7.4184438e-05
7.5234667e-05
-0.00021960655
-7.3273245e-06
6.6372546e-05
-6.2077735e-06
-1.0376739e-05
0.00010249983
0.00057550946
-7.1646485e-05
0.00016658678
0.00029190247
-4.8006101e-05
0.0002799826
-0.00010552115
-2.3622055e-05
9.772464e-06
-0.0001177869
-3.9034926e-05
-0.0002334388
-0.00010390873
-0.00010889042
-0.00013839347
-0.00041319016
1.2597923e-06
-0.0002000404
-0.0004625209
8.1017492e-05
-0.00016248005
-9.4444491e-05
0.00010803108
-6.6859705e-05
0.00026990657
0.00011131918
0.0001372862
7.1507233e-05
0.00010957278
0.0002220781
1.0021393e-05
0.00027282836
-0.00030652024
-6.9225711e-06
0.00015506775
-0.00035083336
-2.6707056e-05
-7.89834e-06
-0.00025059799
-0.00013521575
-0.00011516833
-0.00031477361
-6.4355626e-05
-8.2174621e-05
-4.7802729e-05
-6.2187476e-06
6.8436215e-05
0.00062516891
-5.6851328e-05
0.00019312178
-9.9898699e-05
-9.6644556e-05
0.00012910632
-0.0004318351
-0.00012457536
0.0001435279
-0.00058090073
2.6613454e-05
7.0384879e-05
-0.00049110717
0.00015267394
-4.9227645e-05
-0.00026946464
0.00015391559
7.2589894e-05
0.0001007591
0.00018357101
-0.00042065831
7.4840811e-05
0.00015116513
-9.9958366e-05
-3.0126642e-05
-8.749032e-05
0.00032594211
-0.00015763383
0.00014804554
0.00029558994
-2.197771e-05
0.0003125559
0.00012460199
8.2078851e-07
0.00022592308
0.00010730096
-7.0148589e-05
3.8912618e-05
0.00015149974
-2.7150671e-05
-8.0077544e-05
5.5627214e-05
2.4185541e-06
-5.0357743e-05
-0.00043669997
5.7929337e-05
-9.264505e-05
-0.0004688521
9.6608266e-05
-0.00016355737
7.5389301e-05
5.736809e-05
5.8039673e-06
0.00014820488
6.7007124e-05
0.00024295942
6.2543145e-05
0.00016077122
-2.0247576e-05
-8.3710493e-05
4.1100153e-05
-0.00031991566
4.3454875e-06
-2.1089998e-05
-0.00028264336
-1.8135352e-05
-9.6673905e-05
-0.00016177081
-6.0410606e-05
-0.00018766791
-0.00028268488
-4.5812595e-05
-0.00015468032
-5.8413515e-05
-3.5194505e-05
0.00018590969
0.00021158298
-1.9305822e-05
0.00011322801
2.5967221e-05
-0.00024124119
0.00011842581
-0.00041686636
-0.00015229972
0.00016682418
-0.00058779718
-1.5619637e-06
8.8939843e-05
-0.00044871058
9.5626207e-05
-1.1428592e-05
-0.00014349247
8.6081544e-05
0.00013880427
2.6828389e-05
-0.00032990545
8.1957681e-05
-0.00034575401
7.2843741e-05
-5.945238e-05
8.8217069e-05
0.00013845496
0.00017303907
0.00018815501
0.00025072727
0.00021742812
0.00028121921
0.00028239103
0.00027220445
0.00032350139
0.00020946914
9.7761979e-06
7.1821668e-05
-0.00033050021
-7.594899e-05
-0.00025806906
-4.8897774e-05
-0.00013628322
-1.3904393e-05
4.2181398e-05
0.00014964438
-4.5994255e-05
8.2116663e-05
-6.7443206e-05
1.1754369e-05
-0.00017615103
-1.1763417e-05
-0.00025735094
-0.00014449269
-0.00018532328
-7.144589e-05
-0.00014845722
0.00025178259
-0.00010855805
0.00045762784
-6.8086738e-05
0.00031761006
-8.3588116e-05
-6.2733221e-05
1.4340191e-05
-0.00031983364
0.00013369296
-0.00026951188
8.3322135e-05
7.079641e-05
-0.00015244461
0.00016914474
-7.6436894e-06
-5.3929526e-05
-0.00012755321
5.238331e-05
-0.00011743171
4.4521952e-05
-8.2287446e-06
-0.00021495597
7.6997152e-05
-0.00010773121
-0.00014967071
-0.00010820262
-0.00015590351
2.6454085e-05
-0.0002270055
-0.00015545445
0.00011282581
-0.00012535615
-7.0980508e-05
6.9974034e-05
4.3241781e-05
1.4995156e-05
0.00017926681
-0.00012844684
6.2734796e-05
0.00032701589
-0.00017094364
8.4446819e-05
0.00028528797