/*--------------------------------*- C++ -*----------------------------------*\
| =========                 |                                                 |
| \\      /  F ield         | OpenFOAM: The Open Source CFD Toolbox           |
|  \\    /   O peration     | Version:  v2012                                 |
|   \\  /    A nd           | Website:  www.openfoam.com                      |
|    \\/     M anipulation  |                                                 |
\*---------------------------------------------------------------------------*/
FoamFile
{
    version     2.0;
    format      ascii;
    class       volScalarField;
    location    "750/bottomWater";
    object      T;
}
// * * * * * * * * * * * * * * * * * * * * * * * * * * * * * * * * * * * * * //

dimensions      [0 0 0 1 0 0 0];


internalField   nonuniform List<scalar> 
1460
(
975.32531
972.83329
970.01495
971.73746
973.30938
972.08198
968.5668
968.08086
970.27275
972.32154
973.65503
959.92089
953.15255
938.0671
934.52558
931.07215
927.24667
924.05682
921.37811
918.52202
914.60186
913.47575
913.53711
914.17486
914.14245
913.60771
913.08087
912.16591
912.68033
912.53953
972.18056
970.74475
969.95902
969.10296
970.38068
968.66674
968.03412
966.36156
966.25685
967.24305
961.42082
955.83012
949.93884
932.90773
931.61248
929.82681
924.78965
922.9296
921.97264
918.88274
913.5336
912.30613
913.07629
913.29356
913.51565
913.32544
912.83991
912.44719
913.04013
913.3696
972.03214
971.2496
970.06347
968.54266
969.65436
969.03283
968.12961
966.21814
965.32477
967.0181
961.92039
955.5104
949.04195
932.767
933.87546
928.8091
925.57417
924.80741
923.48245
919.77902
913.19248
911.96454
913.32914
914.07635
913.57392
913.80197
912.80871
912.28537
912.91921
914.263
971.59084
970.78457
969.53014
968.60215
968.83416
968.45326
967.53441
965.92385
964.97632
966.23102
964.57104
959.19712
952.06917
936.14972
936.16722
928.65474
927.65076
925.45813
924.39734
920.18176
912.99937
911.45032
912.64427
913.8756
913.66983
913.6405
912.55078
911.87036
912.3656
913.57628
969.88719
968.85734
968.49382
968.63963
968.99527
967.92181
966.36698
965.34414
964.58222
963.82462
963.265
954.07292
944.96029
935.31074
935.18144
931.84721
928.79628
925.42462
923.07295
920.55563
912.83727
911.05467
911.80241
912.47778
912.58694
912.53532
912.04915
911.59396
912.12318
912.72725
976.40573
972.56064
970.07082
971.15548
973.15618
974.05486
973.74984
972.78341
969.29432
966.89378
962.38397
947.58237
938.30477
933.12406
931.16964
926.96652
926.29857
922.05897
920.39222
917.87102
914.5865
914.7106
915.42876
915.19243
913.79287
914.09221
914.7769
912.84557
913.89732
913.22621
972.80979
970.83949
970.24861
970.04174
970.90059
971.36254
969.45859
965.43363
959.64089
956.6444
951.65498
939.68816
932.93294
930.8592
931.23053
926.35088
925.81069
921.93612
918.39379
917.02026
913.13831
913.06959
913.55866
913.87788
913.59844
913.53977
913.5686
913.19004
913.52801
913.50693
971.84571
970.88171
970.29426
970.16261
970.80144
971.1075
966.44449
963.82417
959.62085
958.70672
955.15374
945.41531
940.15683
937.34169
931.89689
924.79435
925.44402
921.83014
918.57221
917.76416
912.78251
913.11544
913.26122
913.84362
913.54246
913.50166
912.91747
913.11821
913.83963
913.72605
968.41169
968.74037
969.02214
970.16838
970.67452
970.16572
966.46964
963.94042
961.43999
961.97495
956.14183
948.2493
944.05747
938.32836
924.98862
923.29975
924.43756
921.98274
919.41937
919.22603
912.50713
913.10594
913.31882
913.69408
913.49004
913.47001
913.00882
912.54205
913.58303
913.91291
968.49328
968.83619
969.00017
969.36609
969.59098
968.41883
966.4805
965.03906
963.82169
962.55969
962.01859
948.19663
934.66003
929.912
923.04218
919.91007
920.90763
921.12548
918.83161
917.04291
912.31175
910.68318
911.65401
912.10282
912.75701
912.56261
912.19785
911.66939
912.17384
912.92967
973.69971
970.11558
971.08395
973.03986
972.07683
966.66222
964.0529
961.3369
958.17784
955.49877
960.99862
949.5681
935.62479
924.73043
919.0669
923.20826
925.69547
920.67336
917.60844
917.91854
915.69218
913.39794
913.6271
912.77768
913.94337
913.16124
913.84674
914.08261
913.78597
912.21243
972.05244
969.95906
969.89133
970.4412
968.51152
964.58491
961.71356
957.73517
955.85657
953.45477
953.94828
943.79916
931.26013
922.50339
916.54731
916.55238
918.20273
915.47747
911.58702
914.20694
914.04953
913.16009
912.99306
912.93661
913.00195
912.64347
912.63549
913.20595
913.49958
913.17089
970.65266
969.98034
969.09464
969.86123
968.04668
964.86701
961.88977
960.09375
957.49024
953.78853
951.1105
944.81147
929.59333
922.62173
915.62125
914.2803
917.4692
915.25784
914.9675
913.88936
912.82666
913.02874
912.76249
912.61987
912.9914
912.71583
912.62393
913.19401
913.56576
913.2518
968.7872
970.10398
969.65769
969.17954
968.15944
965.32964
962.74854
962.29877
961.64276
958.11637
956.01732
945.55939
925.86538
921.14426
915.99081
914.79147
916.44767
915.26613
914.76453
912.99924
911.64144
912.53759
912.46217
912.20511
912.63367
912.45847
912.24811
912.56517
913.44956
913.30421
968.68105
969.15329
969.11028
969.01797
968.84233
965.87861
964.31738
963.81979
963.29945
962.44997
960.73181
944.7159
924.51369
918.33341
915.05865
913.8628
914.3326
914.19096
914.04865
912.89133
910.75647
909.86894
910.71727
911.28796
912.0996
911.62748
911.17748
912.09312
912.67003
912.65784
972.62315
968.9386
972.11925
970.24878
966.84188
965.34684
964.24072
962.42721
959.71526
957.06596
959.71263
960.74731
956.55128
924.87192
919.62092
918.84806
915.86228
912.47401
909.33608
911.02413
910.63863
910.60794
911.20709
911.66527
913.95775
911.87742
913.00967
913.5713
913.95901
912.28212
970.73756
967.52316
968.07195
967.46318
963.58636
962.49161
961.22917
959.80231
957.51558
953.8916
954.01783
953.58672
947.66449
919.54959
914.73058
914.4687
909.81239
908.14122
906.33445
910.05336
910.87319
910.90651
911.02389
911.85291
912.72774
912.29628
911.9634
912.57
913.29686
913.09434
969.17798
967.68067
966.83525
966.93941
963.78941
962.96216
962.07239
961.78716
957.74021
954.15809
948.02447
949.14712
943.05132
911.81386
908.24811
910.80396
909.04292
905.77897
905.27518
909.76751
910.75405
911.59246
911.10696
911.72218
912.33254
912.23285
911.61698
912.70501
913.78232
913.29663
967.35373
967.15344
966.62277
966.61014
964.20097
963.80518
963.38776
963.25336
962.83568
960.17508
945.97112
942.0494
936.24649
907.27473
905.93147
907.25732
907.16939
901.74626
905.48806
909.51648
909.08191
910.6993
911.10371
911.75387
912.04413
911.71925
911.30335
911.9322
913.54485
913.43261
966.50722
966.68829
966.57723
966.55056
964.67678
964.74307
964.52794
964.20106
963.8004
963.38009
947.8595
939.36081
932.56977
908.32406
907.44093
906.75714
906.65367
905.2167
908.61059
909.27805
907.92656
909.3481
909.88258
910.09133
910.94637
910.72875
910.98453
912.21625
912.80113
912.6467
972.09727
968.42474
969.24587
965.98154
964.12183
963.25706
962.8604
962.98218
962.56408
958.90049
962.04879
963.03879
943.12287
897.67344
908.83497
907.0422
907.69964
909.25467
911.765
911.32543
912.4446
911.49312
910.85796
910.72125
911.04671
910.07406
971.20965
967.09904
966.43716
964.52701
962.8105
962.4032
962.64915
961.37365
959.09034
951.46332
953.26112
955.79998
937.17924
897.46098
905.32017
904.64868
907.39735
909.92883
911.10811
911.92193
912.46946
912.2643
911.20398
911.86544
912.84982
912.56006
967.50588
966.8093
965.33193
964.4909
963.26439
963.4857
963.54231
961.32233
959.25281
949.57493
950.55235
951.35023
925.72442
891.83165
898.73863
902.8818
906.89215
910.2365
911.6551
912.04165
912.74639
912.0827
911.06471
911.92999
913.22289
913.25148
966.05217
965.92725
964.88801
964.47563
963.71247
963.86203
963.95078
963.7805
962.72464
948.35623
949.22302
949.4176
932.07295
888.72181
899.29208
903.74077
906.77251
909.15702
911.51041
912.02466
912.5636
911.31721
910.5702
911.67545
912.75242
913.92896
965.65311
965.35919
964.90685
964.88562
964.60937
964.6522
964.51627
964.39857
964.1599
946.83029
944.18648
941.94221
931.49856
895.21468
901.89518
902.634
905.00247
907.33773
908.33973
910.47025
910.29845
910.30652
910.30997
911.95725
912.34879
912.5777
969.55973
966.5555
966.34225
963.89181
962.48671
961.41389
961.43818
963.93225
959.96794
959.0485
961.74177
957.46598
916.7529
901.2512
911.79648
912.73327
913.35163
911.49195
916.45802
914.35562
915.18127
913.33249
913.03002
911.61429
911.00354
909.11385
968.8572
965.4877
964.84327
962.9801
962.66216
961.72701
961.07713
961.78737
954.13002
952.51864
954.53967
955.55769
922.30952
898.23336
908.68657
909.5612
910.90262
911.97388
913.8717
914.00772
913.84038
913.36675
913.46303
912.96353
913.47365
912.948
966.78022
965.45838
964.91637
963.59284
963.77268
962.74284
961.99968
961.05209
951.22083
951.71416
954.07673
954.77771
930.50303
894.17423
907.25744
909.47954
909.42981
911.88953
912.94642
913.97424
913.50436
913.21257
913.41799
912.93488
913.7888
913.3446
965.10979
964.6192
964.42268
963.95142
964.23431
963.64931
963.06628
960.17778
950.03031
950.02371
952.60755
953.63811
933.58816
890.43569
902.75003
904.63159
906.07664
910.12369
912.20542
912.48708
913.06014
912.80006
913.19384
912.87393
913.75218
913.98638
964.82026
964.52704
964.23176
964.68472
964.74312
964.81834
964.70517
960.0019
947.95355
944.55421
942.93188
935.90529
925.80611
894.48667
901.3565
903.8375
906.16901
908.0848
908.84913
909.71577
911.23778
911.97467
912.80317
912.77182
912.9429
913.10093
969.59883
966.64452
964.81552
963.20836
961.7171
959.19913
956.15969
959.4833
960.16369
961.28984
959.78892
929.91897
919.00418
916.56734
916.93808
914.0108
905.67846
905.90853
907.34038
907.45399
912.72251
916.73829
914.90805
915.78873
915.17157
914.31532
914.0963
912.19407
910.1071
907.75513
966.35907
964.3199
963.49987
963.37343
962.30079
958.75661
954.43914
957.20224
955.01402
954.2063
955.35966
937.55562
920.09555
919.6422
921.84556
917.85863
909.2857
905.47207
906.99021
908.08743
912.6319
915.9114
915.18663
915.71696
915.15441
914.25971
914.32121
914.27129
914.11663
912.87074
966.27692
964.53927
964.60404
964.0781
963.43367
959.036
953.75535
953.67772
951.89022
952.20566
955.21092
939.91984
926.32516
924.79825
923.88985
919.9119
908.47529
899.22939
907.06436
907.85662
912.03037
914.66622
914.8922
915.44101
915.28964
914.74433
914.64969
914.38641
914.14066
913.16427
966.17157
965.44735
965.24595
964.08032
963.91897
960.17683
953.59262
952.33681
951.49296
951.83868
952.24058
940.31445
931.74605
928.23643
924.65707
920.68675
908.15419
904.64321
905.02077
908.04805
911.77751
913.15382
914.13487
913.93438
915.45098
915.18532
914.39701
914.57223
914.09168
913.50452
965.49373
964.8689
964.64982
964.3104
964.19379
960.81314
953.36088
949.90599
949.14058
948.95686
947.28786
938.50366
932.05485
926.70023
923.48308
921.0544
901.45952
903.37677
904.56861
907.03816
910.46003
911.04806
911.54174
912.59779
914.1062
913.42493
913.41784
913.52234
913.53305
913.29773
968.82636
965.67499
963.85883
962.32616
960.33939
957.29601
954.92996
955.49443
958.40469
960.78214
953.09402
938.76355
929.81598
923.54392
921.37544
921.01812
917.52805
914.62833
913.97378
915.1321
915.50003
916.61
916.0367
917.58982
916.99496
915.37614
915.23151
912.82781
906.73131
903.39397
965.961
963.98144
963.24176
962.91604
961.29792
956.47921
953.3672
953.48779
954.33333
955.44689
953.52863
936.58845
928.13947
923.59724
924.08366
924.85715
919.34375
914.93025
914.22496
914.49803
915.10987
915.77618
916.44466
916.78716
916.40133
915.08285
915.15628
915.45878
915.26165
913.30209
965.92282
964.23758
964.14114
963.71643
963.02056
956.68646
953.08974
952.96892
953.03003
955.07965
953.36366
937.03386
927.87324
925.83259
926.4266
927.23671
919.80228
914.87719
913.862
913.87931
915.18358
915.45094
916.42439
916.8535
916.45933
915.2295
915.69486
915.5226
914.95779
913.46231
965.87633
964.90505
964.60703
963.84923
963.18427
955.91022
952.87023
953.02501
952.9558
953.20947
951.90475
938.36401
928.32334
927.92554
927.57644
926.69801
918.76601
913.71081
913.054
913.4826
914.76704
914.64239
916.38611
916.48364
916.54062
915.57767
915.86099
915.53135
914.4161
913.666
965.43211
964.82272
964.37933
963.95768
963.55689
956.12508
952.49194
951.1027
950.25589
949.83445
949.40144
938.84887
931.58115
928.94194
927.37656
925.85408
918.07248
910.38749
912.12509
907.69119
912.01134
914.05046
915.25304
915.47312
915.80533
913.78741
913.99736
914.07258
913.67328
913.47987
972.92606
969.12124
966.36715
964.51602
962.69124
961.1052
956.07633
957.91423
959.93934
960.35668
951.37845
946.88969
941.39263
931.93188
925.91921
923.47045
922.96233
920.47443
917.77297
917.57936
916.42828
914.94547
915.38592
916.8367
916.74826
916.07038
916.4705
913.72689
910.20278
905.42689
966.3623
965.91106
963.8052
962.76653
961.98932
961.75503
955.88462
955.13518
955.93494
956.37101
946.84911
941.16941
942.35816
932.20067
925.6958
926.55025
924.40101
919.9605
917.9344
916.80396
915.61996
914.66851
915.97525
916.24458
916.4897
916.09305
916.15076
915.92136
915.98598
914.221
965.38949
965.63434
963.72035
963.84187
963.96234
961.98227
955.96341
954.97199
955.59386
955.72214
949.87668
938.94413
936.06308
932.46686
925.58037
929.8393
924.88562
921.47231
918.85023
916.75477
915.04589
914.59484
916.05244
916.64249
916.57781
916.25804
915.94659
915.85694
915.15857
914.4386
965.31386
965.28465
963.6269
964.33731
964.01415
959.04542
954.79109
954.46034
954.5149
955.06577
952.12533
940.33237
932.96829
932.56729
925.83692
927.55139
923.17699
919.66147
918.54043
916.75353
913.2938
913.83713
915.65642
916.37204
916.5053
915.62708
915.51262
915.88116
915.03874
914.55078
964.95095
964.71088
964.30612
964.16127
963.82366
959.81098
955.3668
953.26897
952.1409
952.50631
950.70114
940.74394
936.315
933.11062
926.84599
925.07956
919.32133
915.9934
916.45029
912.8217
911.66454
913.90805
914.78357
915.33703
915.44537
913.5566
914.08564
914.43302
914.23724
914.0595
966.38662
966.4766
968.64119
970.69456
970.29939
964.73953
960.46721
959.37533
956.1223
952.94271
949.52751
945.19559
944.32691
938.07045
937.51095
938.63678
936.72346
927.74
918.84066
917.30287
915.40919
914.08485
915.14319
917.22348
918.33032
917.2947
916.29357
914.21664
913.39736
908.76
964.41928
964.05294
964.63732
965.70985
965.09426
963.0984
957.76169
956.60352
952.86866
951.1134
950.41378
943.05085
942.74335
936.24785
932.54357
932.89597
932.81525
928.57563
917.53216
916.24964
915.80529
913.80913
915.19152
915.82866
916.76237
916.4349
915.5795
915.04371
915.58911
915.05177
964.38845
963.98646
963.79314
965.67041
965.23951
964.38245
958.118
956.33911
953.04588
953.68746
952.01766
942.86589
942.33402
935.312
929.17289
932.8254
932.90686
929.2677
919.66924
918.64672
916.32013
913.67709
915.25557
916.48708
916.82653
916.34313
914.62983
914.83539
915.53012
915.63512
964.09963
963.9718
964.57323
965.62924
965.34967
964.82755
956.57153
955.90437
953.085
953.38783
952.41805
945.83687
943.77879
935.88999
929.74019
931.38457
931.26218
928.66325
921.14824
920.02757
915.11508
913.04304
913.93164
915.02328
915.34208
913.92446
914.15398
914.73248
915.69797
915.38991
964.02396
963.90046
964.23206
964.83886
964.80111
963.57511
956.99573
955.97365
953.23272
952.55703
951.5075
947.08691
943.54449
935.29148
925.42444
927.51044
925.32139
922.58849
918.63897
917.51582
914.71503
913.14236
913.32526
913.55003
913.67497
913.38053
913.92738
914.15659
914.28085
914.42297
)
;

boundaryField
{
    minX
    {
        type            zeroGradient;
    }
    maxX
    {
        type            zeroGradient;
    }
    minY
    {
        type            fixedValue;
        value           uniform 1073;
    }
    minZ
    {
        type            zeroGradient;
    }
    maxZ
    {
        type            zeroGradient;
    }
    bottomWater_to_rightSolid
    {
        type            compressible::turbulentTemperatureCoupledBaffleMixed;
        refValue        nonuniform List<scalar> 
130
(
749.31384
757.23759
765.48538
773.63977
781.4371
788.65777
795.13708
800.77157
805.50373
809.30483
812.16542
814.08275
815.04627
743.40024
752.67485
762.11209
771.23144
779.75388
787.49792
794.34403
800.23283
805.13641
809.05235
811.98706
813.94813
814.93227
731.6113
743.96433
755.92818
766.96323
776.85916
785.55405
793.04716
799.37108
804.56333
808.67078
811.73213
813.7648
814.77888
714.09886
732.2339
748.25183
761.98831
773.65296
783.48972
791.72043
798.52219
804.02535
808.33515
811.52432
813.63047
814.6774
693.48302
721.12202
741.9334
758.25925
771.39392
782.10178
790.86858
797.99973
803.71213
808.15284
811.42255
813.57342
814.64152
693.4821
721.10835
741.92431
758.25832
771.40034
782.11559
790.88826
798.03162
803.75261
808.19757
811.46132
813.60828
814.6746
714.10481
732.19181
748.21113
761.98353
773.67647
783.53916
791.79324
798.61163
804.12157
808.43242
811.61423
813.71329
814.75685
731.62218
743.91526
755.86283
766.94707
776.89768
785.63195
793.14956
799.48645
804.682
808.79367
811.85082
813.87579
814.8855
743.35936
752.58529
762.01429
771.18186
779.76741
787.55533
794.43056
800.33574
805.24696
809.17501
812.11686
814.07441
815.05296
749.22181
757.10326
765.35916
773.56927
781.42177
788.68433
795.19365
800.85112
805.60163
809.42212
812.29494
814.21317
815.17419
)
;
        refGradient     uniform 0;
        valueFraction   uniform 0.99248593;
        value           nonuniform List<scalar> 
130
(
750.63717
758.48371
766.65062
774.68575
782.41105
789.58309
796.01879
801.61177
806.30798
810.07687
812.91254
814.81946
815.78027
744.73569
753.92337
763.27628
772.29155
780.73769
788.43083
795.22887
801.07834
805.94362
809.8274
812.73609
814.68623
815.66865
732.98321
745.24237
757.10762
768.04371
777.85861
786.49453
793.93562
800.21813
805.36782
809.44102
812.48625
814.50798
815.51436
715.53502
733.55928
749.46182
763.08494
774.67262
784.43946
792.60988
799.36695
804.82712
809.10647
812.28094
814.37565
815.41356
694.9989
722.4804
743.14091
759.3619
772.41542
783.05035
791.76728
798.84355
804.51309
808.92046
812.17798
814.31563
815.37742
694.99247
722.46274
743.14092
759.36971
772.42737
783.06786
791.78116
798.88228
804.56582
808.98362
812.22261
814.35472
815.41421
715.52701
733.48706
749.40457
763.09919
774.70869
784.50099
792.701
799.47948
804.9429
809.22131
812.38001
814.46337
815.49732
732.96536
745.1792
757.00366
768.0371
777.92827
786.60595
794.06872
800.36049
805.50185
809.5842
812.61894
814.62571
815.62637
744.65648
753.81652
763.14744
772.23745
780.77536
788.51133
795.33906
801.20068
806.06083
809.96334
812.8857
814.82706
815.79693
750.5244
758.317
766.5024
774.62976
782.4115
789.6209
796.083
801.6989
806.41151
810.2074
813.06036
814.96511
815.91998
)
;
        Tnbr            T;
        thicknessLayers List<scalar> 0();
        kappaLayers     List<scalar> 0();
        kappaMethod     fluidThermo;
        kappa           none;
        alphaAni        none;
        alpha           none;
        field           T;
    }
    bottomWater_to_leftSolid
    {
        type            compressible::turbulentTemperatureCoupledBaffleMixed;
        refValue        nonuniform List<scalar> 
130
(
928.78689
928.77194
928.73931
928.68172
928.58987
928.45062
928.26647
928.04543
927.79277
927.51347
927.21511
926.90653
926.69104
928.73675
928.72827
928.69975
928.64254
928.5461
928.39733
928.19997
927.96245
927.68948
927.3849
927.05358
926.69437
926.44101
928.6466
928.63881
928.60851
928.5455
928.43756
928.27103
928.05875
927.80497
927.50885
927.17214
926.80165
926.41184
926.12737
928.4988
928.48677
928.44982
928.37759
928.25656
928.0883
927.86617
927.58908
927.2575
926.8742
926.44568
926.08176
925.85309
928.33688
928.31816
928.27141
928.18912
928.05907
927.87442
927.62738
927.31381
926.93163
926.47615
926.07498
925.74809
925.52649
928.1828
928.15839
928.1016
928.00508
927.85486
927.64107
927.35687
926.99393
926.5651
926.14818
925.77058
925.43916
925.21277
928.06513
928.0325
927.96101
927.84007
927.65747
927.39591
927.06581
926.70597
926.33576
925.97245
925.62441
925.30537
925.10395
927.9793
927.94158
927.85949
927.72338
927.52086
927.23525
926.91439
926.58098
926.24571
925.91907
925.60598
925.30837
925.12138
927.92328
927.88605
927.8033
927.66763
927.46898
927.19983
926.88931
926.5701
926.25535
925.957
925.67192
925.40839
925.25219
927.89077
927.8557
927.77896
927.6521
927.46502
927.21424
926.90823
926.59957
926.29181
926.00743
925.74973
925.52974
925.397
)
;
        refGradient     uniform 0;
        valueFraction   uniform 0.99248593;
        value           nonuniform List<scalar> 
130
(
929.0957
929.07312
929.03802
928.98195
928.89348
928.74721
928.55276
928.32569
928.06921
927.78632
927.486
927.11081
926.82833
929.03548
929.02964
929.00257
928.94854
928.85455
928.69807
928.48763
928.24105
927.96098
927.64923
927.31638
926.85588
926.50267
928.94742
928.94325
928.91287
928.84967
928.74124
928.55366
928.33124
928.07561
927.77781
927.43721
927.05655
926.5494
926.11521
928.7844
928.77383
928.73633
928.66444
928.53027
928.36376
928.14168
927.86422
927.53211
927.14852
926.60663
926.1816
925.90368
928.61728
928.5965
928.5467
928.46487
928.33374
928.1508
927.90459
927.59249
927.21139
926.62909
926.21113
925.86986
925.57156
928.45809
928.43166
928.37308
928.2807
928.13206
927.92045
927.63754
927.24205
926.72584
926.28651
925.89962
925.51797
925.21708
928.34636
928.30928
928.23668
928.1141
927.932
927.64701
927.26342
926.88029
926.50708
926.14511
925.78715
925.40444
925.15604
928.26072
928.2187
928.13389
927.99563
927.79162
927.45229
927.10659
926.76524
926.42611
926.09872
925.78475
925.41015
925.16989
928.2015
928.16275
928.07758
927.94184
927.74213
927.44484
927.10332
926.77073
926.44983
926.15645
925.85998
925.52363
925.33539
928.16227
928.12654
928.05286
927.93151
927.74556
927.48744
927.13435
926.8203
926.49424
926.20693
925.94328
925.69178
925.53343
)
;
        Tnbr            T;
        thicknessLayers List<scalar> 0();
        kappaLayers     List<scalar> 0();
        kappaMethod     fluidThermo;
        kappa           none;
        alphaAni        none;
        alpha           none;
        field           T;
    }
    bottomWater_to_heater
    {
        type            compressible::turbulentTemperatureCoupledBaffleMixed;
        refValue        nonuniform List<scalar> 
92
(
730.24307
732.34175
736.41504
742.20814
720.76096
723.20583
728.02421
734.93741
700.9963
704.16612
710.54328
719.93935
345.20165
342.43673
342.42234
345.02142
421.206
417.83688
417.97325
421.36495
486.2411
483.43623
484.0558
487.5914
541.71543
539.97805
541.78211
546.06495
669.07506
587.61734
673.04918
587.80428
681.58361
592.32584
695.3457
599.71858
345.20165
345.02142
421.206
421.36495
486.2411
487.5914
541.71543
546.06495
587.61734
599.71858
345.05858
345.05858
342.40087
342.4088
345.01625
345.01625
421.13833
421.13833
417.84129
417.98752
421.37871
421.37871
486.31944
486.31944
483.50252
484.10332
487.62466
487.62466
541.79402
541.79402
540.05623
541.84196
546.0967
546.0967
587.67262
587.67262
587.87854
592.38486
599.72921
599.72921
669.48856
673.41106
681.84371
695.43886
701.44006
704.56512
710.84415
720.08443
721.06322
723.46487
728.21388
735.00571
730.38445
732.42294
736.4559
742.18355
)
;
        refGradient     uniform 0;
        valueFraction   nonuniform List<scalar> 
92
(
0.99248593
0.99248593
0.99248593
0.99248593
0.99248593
0.99248593
0.99248593
0.99248593
0.99248593
0.99248593
0.99248593
0.99248593
0.99248593
0.99248593
0.99248593
0.99248593
0.99248593
0.99248593
0.99248593
0.99248593
0.99248593
0.99248593
0.99248593
0.99248593
0.99248593
0.99248593
0.99248593
0.99248593
0.99248593
0.99248593
0.99248593
0.99248593
0.99248593
0.99248593
0.99248593
0.99248593
0.99248593
0.99248593
0.99248593
0.99248593
0.99248593
0.99248593
0.99248593
0.99248593
0.99248593
0.99248593
0.99248593
0.99248593
0.99248593
0.99248593
0.99248593
0.99248593
0.99248593
0.99248593
0.99248593
0.99248593
0.99248593
0.99248593
0.99248593
0.99248593
0.99248593
0.99248593
0.99248593
0.99248593
0.99248593
0.99248593
0.99248593
0.99248593
0.99248593
0.99248593
0.99248593
0.99248593
0.99248593
0.99248593
0.99248593
0.99248593
0.99248593
0.99248593
0.99248593
0.99248593
0.99248593
0.99248593
0.99248593
0.99248593
0.99248593
0.99248593
0.99248593
0.99248593
0.99248593
0.99248593
0.99248593
0.99248593
)
;
        value           nonuniform List<scalar> 
92
(
731.78401
733.86594
737.88357
743.61019
722.33237
724.70741
729.46603
736.3348
702.62934
705.7508
712.07106
721.40005
349.55743
346.77373
346.75365
349.31076
424.95063
421.57056
421.70396
425.03519
489.43888
486.62829
487.26243
490.75823
544.46229
542.72787
544.52835
548.77833
670.87278
590.02714
674.81044
590.20607
683.27561
594.68853
696.93352
602.02494
349.69433
349.17408
425.08268
424.94226
489.54306
490.62875
544.64886
548.63973
590.20148
601.93901
349.35357
349.35288
346.71794
346.70381
349.19582
349.22907
424.90436
424.88408
421.62837
421.74354
424.96181
425.04484
489.65725
489.61417
486.8116
487.37798
490.6795
490.78693
544.73765
544.69773
542.94613
544.68858
548.68411
548.81722
590.21322
590.22
590.40023
594.85446
601.94404
601.99635
671.42117
675.29006
683.64111
696.98683
703.14951
706.23933
712.45976
721.57214
722.65656
724.99292
729.69322
736.39075
731.92399
733.87316
737.89148
743.55966
)
;
        Tnbr            T;
        thicknessLayers List<scalar> 0();
        kappaLayers     List<scalar> 0();
        kappaMethod     fluidThermo;
        kappa           none;
        alphaAni        none;
        alpha           none;
        field           T;
    }
}


// ************************************************************************* //
