/*--------------------------------*- C++ -*----------------------------------*\
| =========                 |                                                 |
| \\      /  F ield         | OpenFOAM: The Open Source CFD Toolbox           |
|  \\    /   O peration     | Version:  v2012                                 |
|   \\  /    A nd           | Website:  www.openfoam.com                      |
|    \\/     M anipulation  |                                                 |
\*---------------------------------------------------------------------------*/
FoamFile
{
    version     2.0;
    format      ascii;
    class       volVectorField;
    location    "750/bottomWater";
    object      U;
}
// * * * * * * * * * * * * * * * * * * * * * * * * * * * * * * * * * * * * * //

dimensions      [0 1 -1 0 0 0 0];


internalField   nonuniform List<vector> 
1460
(
(-0.00018742761 -0.016445669 0.00050654051)
(-0.0031334993 -0.014587485 8.8841242e-05)
(-0.0005241489 -0.010989099 -4.5897745e-05)
(0.0026718746 -0.013308951 2.0224592e-05)
(0.0024331047 -0.017039678 0.0010316926)
(-0.0012685803 -0.013727217 0.00080419091)
(0.00086095449 -0.010992626 0.0013850055)
(0.0035852879 -0.011749544 0.0015060165)
(0.0050594445 -0.013910461 0.001003936)
(0.004045629 -0.015246531 0.0012640145)
(0.00033908209 -0.018146985 0.0017589514)
(7.756719e-05 -0.01059002 0.0015381697)
(0.0011225461 -0.016021919 0.0013969498)
(-0.0024077851 -0.016145626 -0.00086694711)
(-0.0018796068 -0.017280683 -0.0030917029)
(-0.0022407599 -0.017387568 -0.0022910688)
(-0.0039426243 -0.014749687 -0.0011900719)
(-0.0051569056 -0.01400829 5.6059847e-06)
(-0.0045531033 -0.011702099 0.0011011278)
(-0.0032536295 -0.012178943 0.0013715594)
(-0.00096570657 -0.012749535 0.0010264561)
(0.0017567706 -0.01218388 0.0014797891)
(0.0023055539 -0.01142962 0.0016563499)
(0.0030095538 -0.016607421 0.0020104375)
(-0.0016096642 -0.016260718 0.0019678346)
(-0.0036197952 -0.014980974 0.0018072883)
(-0.0031515016 -0.011744663 0.0015136279)
(-0.0011961903 -0.012746306 0.0012024565)
(0.002005993 -0.011939636 0.0024339793)
(0.0020767647 -0.018613349 0.002714129)
(-0.00314707 0.017932828 -0.0003243115)
(-0.004872435 0.015383848 0.00033103392)
(0.00041974494 -0.0013680258 0.00041162241)
(0.0024748372 0.0077401176 0.00090619951)
(0.0028654285 0.017868747 0.0019102748)
(-0.0039824279 0.014311725 0.0011660368)
(0.0021297664 -0.00079989646 9.5002988e-05)
(0.00087682281 0.0007491519 0.00037637965)
(0.0059787339 0.013807392 0.0011328883)
(0.0045924724 0.017539129 0.00069616348)
(-0.0033368842 0.018559083 0.00024332863)
(0.0013245971 0.0041036812 -0.0013292024)
(0.0036448764 0.016181555 -0.0010221543)
(-0.0033330505 0.017846377 -0.003870793)
(-0.0034453238 0.017810746 -0.0054564277)
(0.0021128344 0.019218406 -0.002404114)
(-0.0032084771 0.016912417 0.0012360843)
(-0.005767843 0.013186668 0.002141894)
(-0.0038594388 0.0041768984 0.0014195322)
(-0.0027237368 0.0011951792 0.001630852)
(-0.00067654603 -0.00065120255 0.00080171673)
(0.0026082501 0.0020329705 0.0015040658)
(0.002673899 0.0022243266 0.00061999646)
(0.0071540332 0.016238188 0.0026560151)
(-0.0016331682 0.018057047 0.0022324117)
(-0.0059910813 0.011921371 0.0017754965)
(-0.0036171964 0.0037319221 0.00011833614)
(-5.1321226e-05 0.0010630788 0.00075052804)
(0.0017574267 -0.00060319152 0.0013463519)
(0.0045332635 0.017823582 0.0043123367)
(-0.00076707535 0.0015724632 -0.0010849588)
(0.005333051 -0.012539445 -0.00037304431)
(0.0018523232 -0.014153761 0.00064556956)
(-0.0033120884 -0.014262624 0.0017414998)
(0.0016103359 -0.0072272611 0.001406934)
(0.0051212976 -0.013318631 -0.00046071296)
(0.0062414937 -0.014127522 -0.001577855)
(-0.00074621548 -0.014583722 -0.0031327729)
(-0.0032041338 -0.013590768 -0.00060978425)
(0.0016285786 0.0041597508 -0.00061982785)
(-0.00015770543 -0.011633436 0.0017556458)
(0.00079207759 -0.013781903 -0.0026794932)
(-0.00029106177 -0.0029048078 0.0019695274)
(0.00010093848 0.0052680131 -0.0015762217)
(0.0012304693 -0.016367763 0.0033542478)
(-0.001128054 -0.013382382 0.0036628949)
(0.00016744928 -0.00019196746 0.0012433614)
(0.003583428 -0.014864988 -0.0026185477)
(-8.1711693e-06 -0.013914929 -0.0023192964)
(-0.00076561709 -0.013150289 1.204957e-05)
(-0.00097912911 -0.01415463 -0.00079594949)
(0.00021712791 -0.013028416 -0.00047591904)
(-0.0013750277 -0.014390209 -0.0022147671)
(-0.0027718224 -0.014996045 -0.0015045801)
(-0.00050252029 0.004898755 -0.00031756173)
(0.00052135942 -0.015160424 -0.0028845169)
(-0.0019101115 -0.013571216 -0.0028907091)
(0.00075480797 -0.013202495 -0.0014284056)
(-0.001146511 -0.014259241 -0.00066240855)
(-0.00076427013 -0.015808874 0.00029526825)
(0.0020676042 0.007542307 -0.00069336119)
(0.0042362464 0.0090745704 0.001110486)
(0.0018206704 0.0031067703 0.00070997649)
(0.00021924243 -0.00080811153 -0.0013395214)
(0.0017982068 0.0025430412 -0.0013726573)
(0.0034720845 0.0045358136 -0.0013738435)
(0.0028463415 0.0050276884 0.00086182572)
(0.0010961174 0.010014751 0.00069187403)
(-0.0023163731 0.0048456259 4.7514172e-05)
(0.00053392791 0.0065449527 0.0024048907)
(0.0038572475 0.011575217 0.0027912497)
(0.0015619108 0.004284881 0.0013692103)
(0.00084975587 0.0087779442 0.0021259661)
(0.0020686061 0.0090276793 0.00011841074)
(0.0046054506 0.012091721 -0.0017041101)
(-0.0049471376 0.01197765 -0.00011698264)
(0.0006418905 0.0040695431 0.0011285163)
(0.0021519389 0.01161128 -0.0023335163)
(1.3630929e-05 0.0074411725 -0.0020602058)
(0.00025146039 -0.0034603654 -0.0012138028)
(-0.0012797772 -0.0050976717 -0.0006363094)
(-0.00075001947 -0.00088899892 -0.0016832053)
(0.0019628645 0.0062320645 -0.00059971481)
(-0.0031544178 0.012072681 -0.003783614)
(-0.00048527077 0.0076534278 -0.0006602634)
(0.0029300231 0.011157951 -0.0041256531)
(-0.003133139 0.0048225214 -0.00033932219)
(0.0020906037 -0.0026108815 -0.0026069804)
(-5.5648033e-05 -0.0037297398 -0.0020003593)
(0.0026095719 0.010458556 -0.0029074541)
(0.001819639 -0.0025394678 0.0011721819)
(0.0023676611 -0.010484069 0.00059216141)
(0.0017091371 -0.01030621 -0.0024656887)
(-0.00038194337 -0.009809861 -0.0054032523)
(-0.0011270649 -0.0082510868 -0.0052621416)
(0.00040050427 -0.0087704837 -0.0053366279)
(0.00070055612 -0.0085529198 -0.0055085878)
(0.0030919456 -0.0097191673 -0.0034076916)
(0.0034552198 -0.011285076 -0.0036101036)
(0.0015036686 -0.0088414704 -0.0037501194)
(0.0028512897 -0.013632145 -0.0021253924)
(-0.0010140258 -0.0096887938 0.00023421327)
(-0.002839156 -0.0022414508 0.0016241547)
(-0.0007711094 0.00095935607 0.00077248221)
(0.0018997757 -0.0028394166 0.00045650221)
(0.0037810483 -0.0069737903 0.0014058772)
(0.0033166444 -0.0087201673 -0.00077887389)
(0.0027179702 -0.0098423904 -0.002182039)
(0.0051931435 -0.0097130991 -0.0028375124)
(0.0045751554 -0.010001697 -0.0038320519)
(-0.0020000165 -0.010075275 -0.0027089959)
(-0.0059621197 -0.010144739 -0.0039740335)
(-0.0062835586 -0.008084348 -0.0029184367)
(-0.0039288084 -0.0050786605 -0.0021366668)
(-0.0004620176 -0.001545769 -0.002168264)
(0.0032564827 -0.0049868379 -0.0026454397)
(0.0049008152 -0.0082594295 -0.0032039481)
(0.004085419 -0.010256712 -0.0040884246)
(-0.0020866284 -0.010659592 -0.0042216993)
(-0.0022108092 -0.0072647997 -0.0018585662)
(0.0002456121 -0.016740767 -0.0010812051)
(-0.003090211 -0.013125659 -0.0022991339)
(3.8091272e-05 -0.012069014 0.0010760165)
(0.0034142049 -0.012565303 0.00078983981)
(0.0037242754 -0.014961584 -7.4615916e-05)
(0.0024341125 -0.016930144 -0.00091138558)
(0.0022013695 -0.017706849 0.00081934596)
(0.0028945666 -0.01631726 0.00087104269)
(0.0019934616 -0.016397717 -0.0016720698)
(0.00123458 -0.017120255 -0.0016768446)
(-0.00053614554 -0.01737017 0.0021792409)
(-0.0022640289 -0.01527983 0.0015547906)
(-0.0035948898 -0.01547032 0.00058027307)
(-0.0047835907 -0.01371637 -0.00035346378)
(-0.00090435966 -0.013590602 -0.00010729075)
(0.0022230545 -0.012310509 0.00042399428)
(0.0017109167 -0.017102285 -0.00071656108)
(-0.001933515 -0.017840429 0.00056280066)
(-0.0031486866 -0.015473509 0.0021931934)
(-0.0031143752 -0.01414466 0.0030465733)
(-0.00052535536 -0.011787006 0.0031277245)
(0.0025018074 -0.013821278 0.0029191572)
(0.0023957562 -0.014858169 0.0031136693)
(0.0018044701 -0.01616935 0.0025956429)
(-0.00076389359 -0.017030411 0.002411821)
(-0.0013212717 -0.015540328 0.0020161447)
(-0.0024523656 -0.013712337 0.0015420244)
(-0.00054884358 -0.01099022 0.0010093883)
(0.0020913388 -0.015290598 0.0027455965)
(0.00077256823 -0.017243029 0.0024529314)
(-0.0017296646 0.017927593 -0.0023920741)
(-0.0045137542 0.014078145 -0.0027835617)
(0.0025881644 -0.0028395912 0.0013290396)
(0.0023008692 0.0049370404 0.0032598842)
(0.0051579119 0.015927025 0.0030105372)
(-0.0010798368 0.018423806 0.0034206287)
(0.0021326105 0.018084846 0.0061178021)
(-0.0004999406 0.017424937 0.0037432925)
(-0.0036668645 0.018160313 -0.0027407731)
(-0.0024116839 0.01875508 -0.0021157217)
(-0.0015066291 0.018817319 0.001936611)
(-0.0020972547 0.017351783 0.0012738136)
(-0.0035100932 0.017243138 -0.0011792536)
(-0.0025883074 0.010840921 -0.0019984055)
(0.0018827631 -0.0037465951 0.00046375985)
(0.0027654064 0.0017965492 0.0022211182)
(0.0067134701 0.016422538 0.0022001845)
(-0.0017122769 0.019080244 0.0035191722)
(-0.0062683768 0.016424305 0.0034638812)
(-0.0042591273 0.010212868 0.0034992276)
(0.00029042521 0.00226722 0.0018040811)
(0.0041024296 0.0096984857 0.0028302545)
(0.0060123032 0.01579542 0.0046396262)
(0.0057470088 0.018314571 0.0036981132)
(0.00030603598 0.018899217 0.0022994527)
(-0.0046438469 0.017740938 0.0031966877)
(-0.005065974 0.014805478 0.0028665396)
(0.00048012492 0.0013149455 -0.0003686441)
(0.00341874 0.013488653 0.0039763571)
(0.0041420613 0.018626947 0.0051710064)
(0.0017797018 -0.0031134142 -0.0011715443)
(0.0068173101 -0.011865779 0.0011953754)
(0.0057153895 -0.014626562 0.00036618766)
(-0.0046883355 -0.014061182 0.0011724707)
(-0.00092018273 -0.0019238752 0.00035685941)
(-0.0010769007 -0.0071362522 -0.00026748982)
(0.00088398004 -0.016023935 -0.0032858006)
(-0.0012877262 -0.00036246384 0.0018000796)
(-0.0024752179 -0.0086176009 0.0028816943)
(-0.0027618032 -0.015675462 0.0038130385)
(-0.0025806964 -0.015694933 0.0025474739)
(0.00066217688 -0.0091852309 -0.002026929)
(0.0047236806 -0.011831159 6.4553168e-05)
(0.0067862829 -0.015878619 0.0012044362)
(0.0031771297 -0.016024969 0.0020199478)
(-0.0041351159 -0.013263798 0.0026965644)
(0.00024641606 -0.0049850462 0.00066243776)
(-0.00047439111 0.0079299502 0.0011876154)
(-0.001707685 0.00060830596 -0.00076327338)
(0.0002525624 -0.01488624 -0.0015445973)
(-0.00020488502 -0.013853317 -0.0022471773)
(-1.5441915e-05 -0.015233908 -0.0040398853)
(-0.0035200517 -0.012163474 -0.0041043373)
(0.00091212796 0.0017686653 0.00078102447)
(0.00091881707 0.0065075289 0.00030957714)
(-0.0012903244 0.0044609178 0.00086773339)
(0.0018358353 -0.011411321 -0.0052913244)
(0.0011336193 -0.014376158 -0.0040341431)
(-0.0042403177 -0.015099724 -0.0013385648)
(0.0013158779 0.0015938497 0.0019384175)
(0.0013841864 -0.00047092771 -0.00052438555)
(0.0042607855 0.0056406706 0.00052264218)
(0.0038569169 0.0091565204 0.0027431868)
(-0.00073140478 0.011988878 0.00075775203)
(0.00026978257 0.0078926123 -0.0003692586)
(0.004083219 0.010103009 -0.0015000413)
(-0.0013039589 0.013055035 -0.00098193652)
(-0.0026459426 0.0086622108 0.0020709617)
(0.0020133765 0.010357333 0.002652545)
(-0.0016962467 0.01375582 0.004970327)
(-0.0032251289 0.01262138 0.001435185)
(-0.00087028653 -0.0006262114 -0.00013447806)
(0.0029246745 0.010794796 0.0014538273)
(0.0013163934 0.012220017 0.0027058549)
(-0.0021729246 0.011052626 0.00069872259)
(-0.0019917492 0.00725002 0.00091354)
(-0.0021890935 0.0083115594 0.00064284758)
(-0.0002331957 0.01080389 7.4822169e-05)
(0.0023023681 0.007470322 0.0021643871)
(0.00035730415 0.0066821631 0.0041559655)
(-0.0012562142 -0.0040036214 -0.00024647369)
(0.00081706921 0.011593132 -0.0018082284)
(-0.0040564351 0.011148761 -0.0017599064)
(-0.0020318811 0.0078680479 0.00040022826)
(0.0006712145 0.010300389 0.0019413072)
(0.002407072 0.0080687144 0.00043260996)
(0.0028489208 0.010520979 -0.0020445074)
(0.0016781454 0.0065901895 -0.0010766335)
(-0.0014620407 0.011642073 0.00070574154)
(-0.0016433109 0.0077010493 -0.00031074284)
(-0.0031480845 -0.010193138 -0.0025779724)
(-0.0039243584 -0.009447012 -0.0033888856)
(-0.0031049658 -0.006124465 -0.0034731611)
(-0.0016727992 -0.0054697307 -0.0045321154)
(-0.00089371498 -0.0034980079 -0.0049772361)
(0.00057323063 -0.002917949 -0.0038496903)
(0.0009172408 -0.0019848284 -0.002922916)
(0.0027863002 -0.0035558337 -0.0015676518)
(0.0019641277 -0.0085024758 -0.0021658097)
(0.00056685245 -0.0025194678 0.0016012827)
(0.0048012415 -0.010102884 0.0014995351)
(-0.00020786485 -0.011527356 0.0013359288)
(-0.0042408173 -0.010342171 0.0037881579)
(-0.0011292764 -0.0059781806 0.0037113677)
(-0.0013345432 -0.011912195 0.0021764151)
(-0.0026725998 -0.010125762 -0.0005825483)
(-0.003671005 -0.0021266095 -0.0019603779)
(0.00060437268 0.0042681297 -0.0012115595)
(0.0037471554 0.00061182341 -0.0023354653)
(0.0056075255 -0.0069707497 -0.003897995)
(-0.0010619791 -0.010809545 -0.0033012795)
(-0.0064704821 -0.010720112 -0.0034409587)
(-0.0040669236 -0.0047436658 -0.0023870318)
(-0.0034213908 -0.0024529017 -0.0014491385)
(-4.2951487e-05 0.003475212 -0.0010165686)
(0.0029492905 0.0003407259 -0.00069900422)
(0.0036427895 -0.0041589901 -0.0017589091)
(0.0023583616 -0.0090996018 -0.004328851)
(-0.0010429244 -0.011297269 -0.0049458286)
(-0.00082812455 -0.0029093057 -0.0025889682)
(-0.0031729273 -0.016110927 -0.00021312427)
(-0.00073810813 -0.011419841 -0.0015783538)
(0.0018080478 -0.013488529 0.002056105)
(0.0016651213 -0.016084701 0.00095950259)
(0.00092253766 -0.018231375 -0.0010559835)
(-0.00048931683 -0.016598186 -0.0018995578)
(-0.0018159772 -0.015996572 -0.002159141)
(-0.0019044724 -0.01528972 -0.0022305914)
(-0.0015573863 -0.011941514 -0.0013044024)
(0.0010460041 -0.010461536 2.036163e-05)
(0.0015241382 -0.013647997 0.0017290889)
(-0.00099363756 -0.016361341 0.0007771653)
(-0.0018984074 -0.012580963 -0.0010328288)
(-0.0028273845 -0.0095284753 -0.0013046103)
(-4.0673002e-05 -0.011416879 0.00078079887)
(0.0017039916 -0.012845892 0.0026143993)
(0.0010712094 -0.016080002 0.0031069261)
(-0.0011695275 -0.018114024 0.0017126026)
(-0.0013151633 -0.019610766 -0.00102965)
(-0.00061548716 -0.017827768 -0.00036195736)
(-0.00033391071 -0.015075662 -0.00046335466)
(9.6322489e-05 -0.016307894 -0.00079524206)
(0.00020981969 -0.016565088 -0.00057117851)
(0.00030590484 -0.020354408 -0.00029902578)
(0.0004133901 -0.018768944 0.00064530952)
(-9.8380298e-05 -0.015570573 -0.0030083979)
(0.00067857799 -0.015818579 -0.0027271989)
(-0.00056284484 -0.018207064 0.0011648057)
(0.00046227665 -0.017863385 0.001821607)
(-0.0004034011 -0.016974109 0.0018028927)
(-0.0036680126 0.016981885 -0.0011422409)
(0.0011151959 -0.0024866737 -0.00064596114)
(0.0037803825 0.0092799737 0.0021978741)
(0.0049716239 0.016169815 0.0043939365)
(0.00043244868 0.019164541 0.00019187674)
(-0.0038084885 0.018276477 0.00014449781)
(-0.0051223895 0.017790725 0.0005778633)
(-0.0074614063 0.014871362 -0.00083991656)
(-0.0042773306 0.0040138806 0.00086682576)
(-0.0038126191 0.0020827013 0.0010759925)
(0.0029713781 0.016068459 0.0020094067)
(-0.00086033493 0.018128878 0.0014166605)
(-0.002745172 0.014617098 9.1357936e-05)
(0.0009580226 0.0028364997 -0.0030398545)
(0.0022998985 0.00018037609 -0.0021286398)
(0.0049688682 0.008500378 -0.00041733319)
(0.0066445401 0.016514374 0.00017723862)
(-0.0011719804 0.019339304 -0.0017071033)
(-0.0032139955 0.019720906 -0.0046546328)
(0.00096622156 0.017825456 -0.0026840879)
(0.002425957 0.016835767 -0.00087374129)
(0.0038764479 0.017956302 0.00023205281)
(0.001380076 0.01845213 0.0010776841)
(-0.00065150087 0.021329282 -0.00053633911)
(0.0015872475 0.020226151 -0.0022699236)
(0.002800851 0.016814908 -0.0046657741)
(0.0022753263 0.017211573 -0.004340872)
(0.0015080169 0.019694967 -0.00028163222)
(0.0031813553 0.019502278 0.00065978406)
(0.0025072837 0.018432884 0.0021253999)
(0.0052754433 -0.011028224 0.0018459496)
(0.0013400079 -0.015252243 0.00058977217)
(-0.0063473127 -0.012619601 -0.0035579628)
(-0.0013420971 0.00018157124 -0.00047769164)
(-0.0015746842 0.0062412491 -0.0013029306)
(-0.00062569964 0.0051542038 0.00089232886)
(-0.0011364176 0.0035846841 0.001862182)
(4.8853556e-05 -0.0054463045 0.0032398694)
(-0.00045019195 -0.01442681 0.0050617813)
(-0.0071442614 -0.014386356 0.0025114211)
(-0.0052817168 -0.010873536 0.0015586143)
(-0.0016533269 -0.0047180534 0.0016937844)
(0.0036400351 -0.012660117 -0.00199286)
(0.0050591909 -0.013276127 -0.0041023115)
(0.0022242777 -0.014463938 -0.0053965802)
(-0.0041998999 -0.013079368 -0.0039904726)
(0.00094971655 0.00096893713 -0.00028255893)
(-0.0022622898 0.0066100536 -0.00060797935)
(0.0021131755 -0.017651583 0.00093448239)
(-0.00034854879 -0.018310706 -0.0021802929)
(0.00057121765 -0.012711383 3.9667779e-05)
(0.0022710582 -0.0032414939 -0.00052940698)
(-0.00014159808 0.0034282745 -0.00035846494)
(0.0012241891 -0.013138536 -0.0021082396)
(0.0019646766 -0.014639734 0.0020615701)
(0.0026663505 -0.010069211 -9.6917207e-05)
(0.0022053919 -0.0023480406 -0.0035630087)
(0.00073239341 -0.010885276 -0.0041058719)
(-0.00094998756 -0.0034149606 -0.00084274684)
(0.00018951462 0.0043270106 0.0013565499)
(0.00090491516 0.0039021329 0.0012002877)
(-0.00078993222 0.011309771 2.027963e-05)
(-0.0056137913 0.01064379 -0.00095049195)
(-0.0041585607 0.0080027362 -0.0028098695)
(-0.0016731187 0.010584708 -0.0021795294)
(0.00058647722 0.010035345 -0.00028338857)
(0.0015773666 0.0082477007 -7.4650256e-05)
(0.0025057374 0.0080252254 0.0025046913)
(0.001298019 0.010229406 0.0020933873)
(-0.0033364592 0.0087414202 -0.0018062655)
(-0.0015277433 0.0024472255 -0.0015149808)
(-0.00081904626 0.0010038479 -0.0014311968)
(0.0012929299 0.00051555607 -0.0010891664)
(0.00085578553 0.0040689935 -0.00094204161)
(0.0013829546 0.010444293 -0.001143011)
(-0.0039564401 0.010576438 -0.00092285921)
(-0.0023974274 0.0080721099 -0.0005403349)
(0.0012398039 0.010284936 0.0009225796)
(0.0043277299 0.013705605 0.00080684252)
(-0.0056891324 0.011486161 -0.0014069654)
(-0.0037035346 0.0055560988 -0.00086601388)
(-0.0027586882 0.0071802911 -2.2409577e-05)
(0.0022991173 0.0094002719 -0.0019377326)
(0.0055651516 0.013509395 -0.0029357992)
(0.00089877423 0.014198336 0.0023126224)
(-0.0023499849 0.010330939 0.00033004916)
(0.0010222535 0.0062147546 -0.0025772374)
(0.001874731 0.011539643 -0.00067669007)
(-0.0037157912 0.0090757465 0.0019362058)
(-0.00079894359 0.0099792967 0.0015017075)
(-0.0046077682 -0.010251077 -0.003308453)
(-0.0047811263 -0.0059015574 -0.0031973554)
(-0.0048404526 -0.0035475774 -0.0029540052)
(-0.0033804363 0.00023635359 -0.0031261937)
(-0.0016009055 0.0044697098 -0.0029452695)
(0.0019065899 0.0035239129 -0.00053938655)
(0.0033506474 0.0012818465 0.00075184384)
(0.0043110335 -0.0025794796 0.0010390407)
(0.0042777724 -0.0046687975 0.0012592387)
(0.0043541086 -0.0070482965 0.0020363478)
(0.0041664841 -0.010128329 0.00085728094)
(6.4996537e-06 -0.00973276 -0.0013917774)
(-0.0028099131 -0.010664428 0.0015058184)
(-0.0048373199 -0.0085348176 0.0027191564)
(-0.0049011199 -0.0063051934 0.001568121)
(-0.0040260228 -0.0027772863 0.00072119606)
(-0.0031348529 -0.00055902373 0.0012065555)
(-0.0011914009 0.0028246057 0.0016970432)
(0.0034894621 0.0010220784 0.00081836847)
(0.003317014 -0.0037351076 0.00074834506)
(0.002009533 -0.011421187 -0.001713322)
(-0.0046031179 -0.00923385 -0.0015071587)
(-0.0036971625 -0.0050635594 -0.0012913368)
(-0.0023124848 -0.004497088 -0.00088177066)
(0.0006128444 0.0016139286 0.0024037363)
(0.0047311838 -0.0045393621 0.0021460312)
(0.00018675084 -0.0089033587 0.0028391353)
(-0.0017992868 -0.0027329371 -0.00018210101)
(-0.0022365592 9.0958038e-05 0.00081885291)
(-0.0010751169 0.0016769809 0.00078672867)
(-0.0026597689 -0.01438417 0.0013539198)
(-0.0013924069 -0.010315257 0.0012441863)
(0.00055286543 -0.017587136 0.000801087)
(-6.7336426e-05 -0.018387078 -0.00044199951)
(-0.0006459687 -0.01677926 -0.0017947723)
(-0.0017960229 -0.014999859 -0.002849215)
(-0.0025823967 -0.014657646 -0.0028562367)
(-0.0024868141 -0.013577792 -0.0016228511)
(-0.00076016908 -0.012573952 5.778732e-05)
(0.0029807384 -0.010707652 -1.7513482e-05)
(0.003964593 -0.012386042 -0.00022202951)
(0.0021887657 -0.013934098 0.00016349318)
(0.00098469854 -0.01528934 -0.0011603114)
(-0.0014556453 -0.015906278 0.001767207)
(-0.0019668604 -0.015122083 0.0025048008)
(-0.0019269787 -0.01550946 0.001913042)
(-0.0028091835 -0.014623035 0.00059635064)
(-0.0043246507 -0.013151977 -0.00073821616)
(-0.0030295031 -0.01073736 -0.00044356165)
(-0.0011262142 -0.011714889 -0.00045334053)
(0.0020957799 -0.011848126 -0.0024597985)
(0.0028212075 -0.015662092 -0.0032407902)
(0.0019150935 -0.017169749 -0.0029655979)
(0.00035127778 -0.01777814 -0.001996267)
(-0.0023268382 -0.01504845 -0.0022407197)
(-0.00034700474 -0.011041476 -0.0024168305)
(0.0020804066 -0.012810331 -0.0033454439)
(0.0016493368 -0.01631327 -0.003879532)
(0.001268749 -0.016582376 -0.0036167155)
(0.00044715594 -0.015691934 -0.003096238)
(-0.0024108753 0.016763404 0.0010838744)
(0.0022028762 0.0020546316 -0.00078866366)
(0.0054807475 0.016932768 -0.00022394491)
(0.0021114503 0.01961033 -0.0021910499)
(-0.0040131535 0.018027204 -0.0055227967)
(-0.0056488507 0.016712643 -0.0056743712)
(-0.0070926656 0.014823846 -0.0047086283)
(-0.0058381003 0.008452876 -0.0019615965)
(-0.0025430116 0.00084549447 0.00023269458)
(-7.0064286e-05 0.0013630537 0.00039977321)
(0.0048342363 0.013616798 0.0010626016)
(0.0038298952 0.016270706 0.0019228521)
(0.0011542069 0.017259649 0.00090860813)
(-0.0016978515 0.017363827 0.0036158135)
(0.00017485537 0.016403377 0.0053843697)
(0.0015210377 0.017539099 0.0024837612)
(-0.0022377398 0.017032511 -0.0014247874)
(-0.0040395846 0.013833287 -0.0014618943)
(-0.0010858354 -2.4398297e-05 0.00033993746)
(-0.00089361828 0.00061021332 0.0014452361)
(0.0029871108 0.0024090276 -0.00040476959)
(0.0061291675 0.014623366 -0.003044736)
(0.0064266187 0.018699974 -0.0038947129)
(-0.0012738093 0.019677832 -0.00061255741)
(-0.0053283989 0.016409254 -0.0013945115)
(0.0018048605 9.4863694e-05 3.1369526e-05)
(0.0020823851 0.007929819 -0.0023585721)
(0.0038684557 0.016707694 -0.0050844714)
(0.0043296894 0.018216468 -0.005430185)
(0.0039137 0.017992539 -0.0043133773)
(0.0050729323 -0.0098916035 -0.00093912492)
(0.00029484839 -0.014558262 -0.0024895151)
(-0.0042434718 -0.0087044076 -0.0034955504)
(0.00028396713 0.0072735398 -0.002073959)
(-0.0020648045 0.0040048207 -0.0020529021)
(-4.0771407e-06 0.00083081597 -0.0011947219)
(-0.00056646841 -0.0049317878 -0.00042288371)
(0.0035995733 -0.013278332 0.0036511823)
(-0.0017408848 -0.014598869 0.00054138035)
(-0.0046596995 -0.013277885 0.00063173387)
(-0.0044037205 -0.013040916 0.003057856)
(-0.00044775006 -0.0049909652 0.002011237)
(-0.0012145193 0.00055675246 0.00083261921)
(0.00061907479 -0.0093858557 -0.0027572087)
(0.0022783727 -0.011347656 -0.0027102701)
(0.0029072617 -0.0053884402 -0.0016211226)
(0.0017161725 -0.0026872068 -0.00088035931)
(0.0048721494 -0.014089001 8.5995657e-05)
(0.0022858303 -0.014556534 -0.00029089391)
(-0.00072193142 -0.013608128 0.0032557244)
(0.00013021586 -0.014262541 0.0022150209)
(-0.0038483007 -0.015071179 0.0026774669)
(0.002899723 0.0031156832 -0.0017362171)
(-0.00047879101 0.0054678101 0.0013891043)
(0.0052606756 -0.014025427 0.0030277467)
(0.0038056381 -0.014931516 0.002633112)
(-0.0016958627 -0.013617187 0.0040793848)
(0.0023297644 -0.015877661 0.0045198577)
(-0.0024878777 -0.014081868 0.0045201823)
(0.0019636669 0.0043003868 -0.00029823286)
(0.0015522125 0.0062862466 0.0018899208)
(-0.0008871828 0.010727911 0.0012634431)
(-0.0058930066 0.010450576 0.00016618558)
(-0.0019121354 0.010329843 -0.0014895027)
(-0.00049962832 0.0097070661 2.7194314e-05)
(0.0023382805 0.0080343044 0.0019095619)
(0.0029781049 0.0074167271 0.0023872979)
(0.0039623339 0.0098568717 0.0031959956)
(-0.00014524536 0.011195077 0.0010126168)
(0.00015311943 -0.00099854925 0.0012008318)
(-0.0026123312 0.0029919471 0.0017723575)
(-0.0028780129 0.0084088957 0.0028965345)
(-0.0020746272 0.0078786525 0.0018969498)
(0.00081484204 0.0023372377 -0.00027650866)
(0.00037700175 0.0036687031 0.00044984861)
(0.0016152974 0.0081805205 -0.0019427142)
(0.0034612693 0.008128277 -0.00095517089)
(0.0037497483 0.011128596 -0.0012816791)
(-0.00087820001 0.0063543256 -0.0030892529)
(-0.00074940324 -0.0035142685 0.0014859458)
(-0.0003054766 0.0024201378 -0.00097503859)
(-0.0026479097 0.010206705 -0.0011891217)
(-0.0021986496 0.0082204645 -0.00084125491)
(0.0022646852 0.0090408367 -0.0019408522)
(0.0052306916 0.011979814 -0.0027233423)
(0.0031205344 0.006866438 -0.0027258902)
(0.0025268365 -0.00037013619 0.0012905476)
(0.0043338343 0.008396703 -0.00010092523)
(-0.0048724654 0.012547499 0.0032738897)
(-0.0018986044 0.0091155131 0.0019774998)
(-0.004413301 -0.0098434253 0.0021909722)
(-0.0044261493 -0.0041130336 0.0018671444)
(-0.0045948376 -0.0016718912 0.00055449353)
(-0.0013081503 0.0028971988 0.00019303133)
(0.00097365992 0.0025828942 0.0024905079)
(0.0029214244 0.00014919606 0.0032018619)
(0.003528885 -0.0031423275 0.0032267298)
(0.0042114429 -0.0050336263 0.0032021782)
(0.0046850168 -0.0065598374 0.0029306934)
(0.0045170293 -0.0090092508 0.0027275103)
(-0.0018951719 -0.01051129 -0.0016323298)
(-0.0027454494 -0.0045710826 -0.0014942295)
(0.00048499725 -0.0055902398 -0.0031172105)
(-0.0014391499 -0.010722564 0.0022766149)
(-0.0041121547 -0.010016278 0.0036841459)
(-0.0037682313 -0.0087865454 0.0034073464)
(-0.0026590055 -0.0050203175 0.0025461208)
(0.0015383708 -0.00016370055 0.0024744051)
(0.0043480723 -0.0057397424 0.0050297392)
(0.0015346124 -0.0094929405 0.004393585)
(-0.0042835306 -0.010041993 0.00028531389)
(-0.0036574777 -0.0065877211 0.0008757497)
(-0.0018861377 -0.0014534562 3.0288198e-05)
(0.00047900116 -0.0028764903 0.00084421062)
(0.0028589434 -0.005006749 0.0031098021)
(0.0056331776 -0.0091758207 0.0048937519)
(0.00042929413 -0.011739181 0.0050438577)
(-0.0050779208 -0.0076626164 0.0057254344)
(-0.0035772208 -0.0011971262 0.004525015)
(-0.00094209485 -0.00063970341 0.0037558829)
(-0.0022267295 -0.013526673 1.7620012e-05)
(-0.0011377854 -0.010230666 -0.00028097006)
(0.00020984441 -0.022164967 -0.0011290727)
(-0.00081810926 -0.017205833 -0.0022093781)
(-0.0021926037 -0.014691572 -0.0035556744)
(-0.0025650493 -0.014953808 -0.0038209456)
(-0.0016271182 -0.013659442 -0.002717421)
(3.003037e-05 -0.013047329 -0.0010104055)
(0.0015755515 -0.012966016 0.00050100659)
(0.0032131606 -0.011763867 0.00059529886)
(0.0044822342 -0.013835459 -0.00030064624)
(0.0032121072 -0.014961528 -0.0011627872)
(0.0010679616 -0.016486143 -0.0016138288)
(-0.0011046312 -0.01709829 0.0002963943)
(-0.0029903408 -0.01456489 0.0018051008)
(-0.0023623708 -0.011375409 0.0017635075)
(0.00037183162 -0.012256567 0.00059162963)
(0.0018262393 -0.012007209 -0.0016386341)
(0.0024007088 -0.017541745 -0.0013033239)
(-0.00026940304 -0.017983103 -0.0012289857)
(-0.0034742885 -0.016178041 -0.0016677161)
(-0.0024309973 -0.011880372 -0.0019551659)
(-8.1052721e-06 -0.012494659 -0.0010386065)
(0.0021762817 -0.012431815 -0.00065476503)
(0.0029862418 -0.011872748 -0.0010195904)
(0.0024039102 -0.016446605 -0.0022582871)
(-0.0019072645 0.015747983 7.7817503e-05)
(0.003540981 0.0052153333 0.00014209439)
(0.0051754229 0.020285059 -0.00097726413)
(8.8522916e-05 0.019078453 -0.004658074)
(-0.0047278266 0.015946723 -0.0068925795)
(-0.0057945914 0.013948904 -0.006551996)
(-0.0025651102 0.0056551158 -0.0030861523)
(-0.0024012974 0.0032782922 -0.0014444625)
(6.9328891e-05 0.0066218983 0.0014268184)
(0.0017342811 0.0027807358 0.0018313758)
(0.0050410945 0.013104036 0.0021658066)
(0.0043970174 0.016790501 0.0019778511)
(-0.00016634143 0.01822631 -0.002134208)
(-0.0023277354 0.0186766 0.0024794806)
(-0.0040369999 0.014441503 0.0037406285)
(-0.0015214225 0.0021963819 0.001640338)
(0.0010421705 0.0014500847 -0.0003101848)
(0.0016091591 0.0026689204 -0.0015324469)
(0.0065368529 0.017781528 -0.0028485759)
(-0.00086444269 0.019681914 -0.0021192854)
(-0.0066889641 0.014621822 -0.0023593704)
(-0.0015528964 -5.7861973e-05 -0.0024590252)
(0.0010775746 -0.0018964539 9.4240273e-05)
(0.0036974441 -0.00070376522 0.0012038379)
(0.0032793749 0.0032792908 0.0019046254)
(0.0046496046 0.016926954 0.00030630583)
(0.0033738183 -0.01067293 0.0014685952)
(0.0037704819 -0.013715408 -1.5990849e-05)
(-0.0013417223 -0.014266453 -0.0018892019)
(0.0026488886 0.0050069393 -0.0023321106)
(-2.9125729e-06 -0.00060962749 -0.0014767405)
(0.0039967133 -0.013722534 0.0015184182)
(0.0031280387 -0.015374258 0.00068672542)
(-0.0029597169 -0.014633847 -0.0023460568)
(-0.0022753068 -0.013165598 -0.00040328206)
(-0.0015510291 -0.014033724 0.0014659037)
(-0.0037621147 -0.014929141 0.003425897)
(8.5991145e-05 -0.0021137369 0.0021357363)
(-0.001791026 -0.0077458052 1.041007e-05)
(-0.00081230935 -0.0038792666 -0.00098157198)
(0.0036861408 -0.013901408 -0.0038812969)
(0.0026406443 -0.014032977 -0.0020321559)
(0.0015511988 -0.013856286 -0.0023415302)
(-0.0018079901 -0.014645739 -0.00083340918)
(-0.0008729162 -0.01439596 -0.0016088911)
(-0.0011220814 0.0066655053 -0.0013617526)
(0.0028543465 -0.015481035 -0.0024493899)
(0.0017583113 -0.014315565 -0.0026655797)
(0.0015217373 -0.014527009 0.0014950769)
(0.0023408713 -0.014212813 0.0036478636)
(-0.00091351492 -0.013858249 0.0040456507)
(-2.4297649e-05 -0.0091581431 0.0017979545)
(-0.00030227219 -0.00015681377 0.0029717869)
(0.0045394921 0.0051907068 0.00071117688)
(-0.0013200438 0.013274091 -0.0029845686)
(-0.00027319118 0.0092136792 -0.0012172286)
(0.0034821057 0.0071622517 -0.00014604989)
(0.0037804988 0.0092191981 -0.00015128391)
(0.0024366437 0.010557271 -0.00029664359)
(-0.0017092369 0.010302239 -0.001810423)
(4.0067423e-05 -0.0016193805 0.0017308315)
(-0.0011148703 -0.0022383778 0.00078927143)
(-0.0017264824 0.010820675 0.0036235416)