/*--------------------------------*- C++ -*----------------------------------*\
| =========                 |                                                 |
| \\      /  F ield         | OpenFOAM: The Open Source CFD Toolbox           |
|  \\    /   O peration     | Version:  v2012                                 |
|   \\  /    A nd           | Website:  www.openfoam.com                      |
|    \\/     M anipulation  |                                                 |
\*---------------------------------------------------------------------------*/
FoamFile
{
    version     2.0;
    format      ascii;
    class       surfaceScalarField;
    location    "510/topAir";
    object      phi;
}
// * * * * * * * * * * * * * * * * * * * * * * * * * * * * * * * * * * * * * //

dimensions      [1 0 -1 0 0 0 0];
oriented        oriented;


internalField   nonuniform List<scalar> 
3140
(
9.5014707e-06
-3.0397708e-07
7.1476047e-08
9.6873547e-06
-2.6666595e-07
8.0801268e-08
9.8653422e-06
-2.4735558e-07
6.9397289e-08
1.000954e-05
-1.9532633e-07
5.1162297e-08
1.0113725e-05
-1.3181057e-07
2.7671765e-08
1.0187705e-05
-7.3233911e-08
-6.8954482e-10
1.0265696e-05
-2.5855757e-08
-5.2078139e-08
1.036887e-05
1.6720852e-08
-1.1984784e-07
1.05062e-05
8.0878445e-08
-2.1816955e-07
1.0700037e-05
1.6507443e-07
-3.5887566e-07
1.0945291e-05
3.1176233e-07
-5.5698256e-07
1.1213588e-05
5.5717378e-07
-8.2543641e-07
1.1450935e-05
9.3109829e-07
-1.1684011e-06
1.166778e-05
1.3707041e-06
-1.58748e-06
1.1838721e-05
1.863293e-06
-2.0341109e-06
1.195211e-05
2.3442577e-06
-2.4574729e-06
1.1996598e-05
2.7705913e-06
-2.8148844e-06
1.1967253e-05
3.1180788e-06
-3.0885531e-06
1.1876633e-05
3.3716188e-06
-3.2808742e-06
1.1755599e-05
3.5239499e-06
-3.4028947e-06
1.1639589e-05
3.5829921e-06
-3.4671109e-06
1.1554487e-05
3.5691552e-06
-3.4843695e-06
1.1513528e-05
3.5032657e-06
-3.4628311e-06
1.1518014e-05
3.4019245e-06
-3.4071489e-06
1.1554787e-05
3.2794277e-06
-3.3171591e-06
1.1585007e-05
3.1539316e-06
-3.1853408e-06
1.1522201e-05
3.0551747e-06
-2.9938137e-06
1.1192054e-05
3.0412842e-06
-2.7128838e-06
1.0238224e-05
3.2467943e-06
-2.2951052e-06
3.9952349e-06
-1.6784372e-06
9.1139772e-06
-2.2748809e-07
7.8503007e-08
9.0863912e-06
-3.4044044e-07
1.0136172e-07
9.0916066e-06
-3.5890526e-07
1.0633663e-07
9.1432558e-06
-3.5357699e-07
1.0660519e-07
9.239959e-06
-3.3018987e-07
1.0168175e-07
9.3759864e-06
-2.9875925e-07
8.9505494e-08
9.5544217e-06
-2.7216217e-07
6.7882073e-08
9.7910111e-06
-2.5399459e-07
3.4206061e-08
1.0111327e-05
-2.2225418e-07
-1.6977693e-08
1.0543452e-05
-1.603087e-07
-1.0637966e-07
1.1111711e-05
-1.7718076e-08
-2.3826782e-07
1.1799404e-05
2.990832e-07
-4.2904468e-07
1.2516229e-05
9.0758033e-07
-6.926698e-07
1.3153474e-05
1.7421279e-06
-1.0079758e-06
1.3646422e-05
2.6921316e-06
-1.3211454e-06
1.3937426e-05
3.6201615e-06
-1.5664888e-06
1.4012375e-05
4.4118834e-06
-1.7161657e-06
1.3900408e-05
5.0322156e-06
-1.8024893e-06
1.366597e-05
5.4757262e-06
-1.8703877e-06
1.3390122e-05
5.7476611e-06
-1.9489363e-06
1.3135172e-05
5.8651452e-06
-2.0285971e-06
1.2929146e-05
5.8600033e-06
-2.0865003e-06
1.2779541e-05
5.7593196e-06
-2.1083604e-06
1.2681155e-05
5.5818202e-06
-2.0836334e-06
1.2616894e-05
5.3403973e-06
-1.9990327e-06
1.2544705e-05
5.0564307e-06
-1.8328673e-06
1.237989e-05
4.7730455e-06
-1.5559101e-06
1.1969916e-05
4.5831351e-06
-1.1351117e-06
1.1073307e-05
4.6759431e-06
-5.3615801e-07
5.2727291e-06
3.4671913e-07
9.1705517e-06
-2.0961569e-07
8.0536492e-08
9.0033202e-06
-2.7867621e-07
1.0546695e-07
8.8227078e-06
-2.9180294e-07
1.1350974e-07
8.6412451e-06
-2.910132e-07
1.1889871e-07
8.4713911e-06
-2.8305802e-07
1.2272191e-07
8.3184321e-06
-2.7035167e-07
1.2455148e-07
8.1793133e-06
-2.5828653e-07
1.2524331e-07
8.0507662e-06
-2.5256823e-07
1.27123e-07
7.9501608e-06
-2.5520429e-07
1.3356165e-07
7.9194066e-06
-2.7321181e-07
1.4366938e-07
8.0705667e-06
-3.1942478e-07
1.5056749e-07
8.5599463e-06
-3.2211298e-07
1.3206527e-07
9.4259709e-06
-2.70931e-08
6.9430968e-08
1.0590338e-05
5.9739583e-07
-1.8375141e-08
1.1659245e-05
1.6826185e-06
-5.7797119e-08
1.2473863e-05
2.7920747e-06
1.5335615e-08
1.2945265e-05
3.6460919e-06
2.9612091e-07
1.3108331e-05
4.2544811e-06
6.1596457e-07
1.3059848e-05
4.661093e-06
8.6384514e-07
1.2915221e-05
4.8969926e-06
9.9545519e-07
1.2763333e-05
4.9825479e-06
1.0341442e-06
1.2625073e-05
4.9324025e-06
1.0651185e-06
1.249845e-05
4.7792769e-06
1.1056266e-06
1.2372163e-05
4.5556526e-06
1.1512109e-06
1.2239637e-05
4.2885667e-06
1.1829719e-06
1.2078333e-05
3.9963588e-06
1.2198837e-06
1.1851759e-05
3.710716e-06
1.2872977e-06
1.1518203e-05
3.5079787e-06
1.4069071e-06
1.0992529e-05
3.5685926e-06
1.6307674e-06
4.2609102e-06
1.946208e-06
8.9806738e-06
7.8662866e-08
8.5996074e-06
1.0238991e-07
8.1984852e-06
1.0931899e-07
7.7944263e-06
1.130453e-07
7.396376e-06
1.14992e-07
7.0108669e-06
1.1515712e-07
6.63776e-06
1.1482006e-07
6.2687908e-06
1.1640059e-07
5.8897881e-06
1.2379804e-07
5.4737405e-06
1.4283505e-07
4.9679434e-06
1.8637205e-07
4.3689623e-06
2.7688117e-07
3.9019738e-06
4.4002194e-07
3.8265035e-06
6.7411144e-07
4.4793501e-06
1.0323034e-06
5.6174529e-06
1.6569104e-06
6.6517871e-06
2.6144295e-06
7.4684997e-06
3.4397788e-06
8.0996425e-06
4.0311764e-06
8.6147456e-06
4.3823893e-06
9.0504478e-06
4.546759e-06
9.4233838e-06
4.5589401e-06
9.7166975e-06
4.4851212e-06
9.9187189e-06
4.3525729e-06
1.0018356e-05
4.1877249e-06
1.002025e-05
3.9931523e-06
9.9556701e-06
3.7738805e-06
9.9315714e-06
3.5305012e-06
1.027224e-05
3.2260038e-06
2.6264836e-06
9.6134747e-06
-3.0366683e-07
3.0637964e-08
9.914974e-06
-2.6775619e-07
4.7067937e-08
1.0196884e-05
-2.6094695e-07
4.845086e-08
1.0432345e-05
-2.2637234e-07
4.2090799e-08
1.061482e-05
-1.848066e-07
3.0018103e-08
1.0756986e-05
-1.5315346e-07
1.0307866e-08
1.086018e-05
-1.3966181e-07
-1.5613411e-08
1.0935817e-05
-1.4690097e-07
-4.8609247e-08
1.0992437e-05
-1.8036665e-07
-9.4478424e-08
1.1038234e-05
-2.4711889e-07
-1.5763695e-07
1.1081372e-05
-3.5653816e-07
-2.4368193e-07
1.113144e-05
-5.1795727e-07
-3.5761917e-07
1.1204291e-05
-7.4061075e-07
-5.0057973e-07
1.1378923e-05
-1.0881709e-06
-6.7357626e-07
1.1663058e-05
-1.4677245e-06
-8.4974482e-07
1.2022153e-05
-1.807645e-06
-1.0078379e-06
1.2370172e-05
-2.0042956e-06
-1.157403e-06
1.2625814e-05
-2.0254054e-06
-1.3176335e-06
1.2754994e-05
-1.9183629e-06
-1.4907151e-06
1.2777671e-05
-1.7640973e-06
-1.6607631e-06
1.2740033e-05
-1.622771e-06
-1.806286e-06
1.2683835e-05
-1.5085187e-06
-1.9195118e-06
1.2636986e-05
-1.4211401e-06
-1.9949074e-06
1.2616698e-05
-1.3583863e-06
-2.0287e-06
1.2635109e-05
-1.3173507e-06
-2.0185899e-06
1.2696221e-05
-1.2874348e-06
-1.9595852e-06
1.278079e-05
-1.2410426e-06
-1.8381969e-06
1.2832969e-05
-1.1222051e-06
-1.6441434e-06
1.2733946e-05
-7.952494e-07
-1.4028667e-06
1.9451485e-07
-1.1455909e-06
9.2388192e-06
-2.2902971e-07
3.4015762e-08
9.3583317e-06
-3.4450764e-07
5.8601333e-08
9.5042573e-06
-3.6818957e-07
6.765479e-08
9.6900335e-06
-3.7338884e-07
6.7847298e-08
9.9118495e-06
-3.667865e-07
6.1848221e-08
1.0157735e-05
-3.5811187e-07
4.8581171e-08
1.0418914e-05
-3.5897466e-07
2.601933e-08
1.0693762e-05
-3.7910662e-07
-8.4339532e-09
1.098601e-05
-4.290393e-07
-6.054854e-08
1.1293576e-05
-5.2695149e-07
-1.3410288e-07
1.1627286e-05
-6.9134935e-07
-2.3713851e-07
1.2002791e-05
-9.4729757e-07
-3.7513476e-07
1.2444372e-05
-1.3276899e-06
-5.469986e-07
1.2943346e-05
-1.8617593e-06
-7.330308e-07
1.3503132e-05
-2.4490202e-06
-8.9921241e-07
1.4035703e-05
-2.8655104e-06
-1.0408997e-06
1.4426743e-05
-2.9043322e-06
-1.207136e-06
1.4617969e-05
-2.6016058e-06
-1.4177781e-06
1.4615682e-05
-2.1365797e-06
-1.6504428e-06
1.4484904e-05
-1.7061151e-06
-1.8769896e-06
1.4307785e-05
-1.4022818e-06
-2.0731313e-06
1.4106914e-05
-1.1731789e-06
-2.222477e-06
1.3889682e-05
-1.0107061e-06
-2.3034837e-06
1.3664411e-05
-9.2164494e-07
-2.2974697e-06
1.3469457e-05
-9.29801e-07
-2.1945318e-06
1.3364871e-05
-1.028853e-06
-1.9902607e-06
1.343835e-05
-1.2045208e-06
-1.669616e-06
1.3911849e-05
-1.4704477e-06
-1.2640784e-06
1.5514011e-05
-1.8881737e-06
-1.0489426e-06
-2.2187367e-06
-1.2156378e-06
9.2978106e-06
-2.1200885e-07
3.4665591e-08
9.2807762e-06
-2.8240604e-07
6.0399448e-08
9.2519901e-06
-2.9738894e-07
7.1494801e-08
9.2238102e-06
-3.0080069e-07
7.4490157e-08
9.2069893e-06
-2.9955381e-07
7.2309786e-08
9.2049407e-06
-2.9596284e-07
6.4450831e-08
9.2172346e-06
-2.9588472e-07
4.9859212e-08
9.2433847e-06
-3.0622628e-07
2.8092499e-08
9.2820114e-06
-3.3505289e-07
9.4868744e-10
9.3450412e-06
-3.9583115e-07
-5.0479531e-08
9.4401471e-06
-5.1532619e-07
-1.2055795e-07
9.5811702e-06
-7.3338171e-07
-2.228615e-07
9.7871487e-06
-1.102976e-06
-3.6124774e-07
1.0079099e-05
-1.6615451e-06
-5.1053894e-07
1.0446661e-05
-2.2715813e-06
-6.0301109e-07
1.0785264e-05
-2.6099608e-06
-5.7964435e-07
1.1083884e-05
-2.4243157e-06
-4.8382662e-07
1.1277201e-05
-1.8358541e-06
-3.4477304e-07
1.1336268e-05
-1.1035371e-06
-2.3043249e-07
1.1290667e-05
-4.2214168e-07
-2.4566208e-07
1.1200749e-05
2.5723669e-08
-3.0758752e-07
1.1112323e-05
2.344834e-07
-2.5848661e-07
1.1040587e-05
2.8630508e-07
-1.2419884e-07
1.094736e-05
2.5581745e-07
6.2666546e-08
1.0814607e-05
1.0787792e-07
2.7393425e-07
1.0621568e-05
-1.2098657e-07
5.0098862e-07
1.0412401e-05
-4.6827956e-07
7.5595279e-07
1.0317962e-05
-8.61914e-07
8.8859111e-07
1.0860216e-05
-1.2702538e-06
4.6671729e-07
-1.6006316e-06
-6.4753242e-07
9.101933e-06
3.3673368e-08
8.8636681e-06
5.8248468e-08
8.6071268e-06
6.8471034e-08
8.3486716e-06
7.0699518e-08
8.0963829e-06
6.7726605e-08
7.8564603e-06
5.9116501e-08
7.6313682e-06
4.4027145e-08
7.4192799e-06
2.2262157e-08
7.2144951e-06
-6.4705411e-09
7.0176986e-06
-5.6200286e-08
6.8092683e-06
-1.2052469e-07
6.5646984e-06
-2.1193128e-07
6.2584679e-06
-3.567295e-07
5.8689165e-06
-5.9798677e-07
5.4868349e-06
-8.5782649e-07
5.2673464e-06
-7.3415557e-07
5.262062e-06
1.9571507e-07
5.3444702e-06
1.5217719e-06
5.4225213e-06
2.8490619e-06
5.6726204e-06
3.7088373e-06
6.0554554e-06
4.1881505e-06
6.4561306e-06
4.3911466e-06
6.7919641e-06
4.4337613e-06
7.0468515e-06
4.3517964e-06
7.202155e-06
4.1384428e-06
7.2961281e-06
3.7763426e-06
7.3140644e-06
3.2859074e-06
7.3152611e-06
2.6656717e-06
8.0169523e-06
1.2522221e-06
-1.0859703e-06
9.5907115e-06
-3.0564295e-07
1.454007e-08
9.8827311e-06
-2.68507e-07
2.3571582e-08
1.0163335e-05
-2.5827245e-07
2.6144451e-08
1.0400616e-05
-2.1938228e-07
2.4219564e-08
1.0584798e-05
-1.7344233e-07
1.9312351e-08
1.0720586e-05
-1.3736869e-07
1.1928119e-08
1.0817982e-05
-1.1468974e-07
1.7244308e-09
1.0885126e-05
-1.0572111e-07
-9.9841316e-09
1.0927788e-05
-1.1246619e-07
-2.4620874e-08
1.0951647e-05
-1.395935e-07
-4.1821851e-08
1.0963965e-05
-1.9560372e-07
-6.0239383e-08
1.0977054e-05
-2.9428664e-07
-7.6069033e-08
1.1015118e-05
-4.5785987e-07
-8.0026761e-08
1.1170362e-05
-7.6767147e-07
-5.9909555e-08
1.1429813e-05
-1.1042625e-06
-3.5751048e-09
1.1695456e-05
-1.3877486e-06
1.1511371e-07
1.1902718e-05
-1.5994766e-06
2.3486386e-07
1.2038849e-05
-1.7803504e-06
3.2592015e-07
1.2104925e-05
-1.9447166e-06
3.8674281e-07
1.2109658e-05
-2.0973478e-06
4.3034353e-07
1.2075932e-05
-2.24874e-06
4.7452984e-07
1.2022236e-05
-2.3993486e-06
5.3190795e-07
1.1954784e-05
-2.5339729e-06
6.0503545e-07
1.1870806e-05
-2.6343298e-06
6.8828945e-07
1.1772873e-05
-2.6974165e-06
7.7548969e-07
1.1691126e-05
-2.7425545e-06
8.6326221e-07
1.1704315e-05
-2.7891805e-06
9.3591185e-07
1.1943253e-05
-2.8079541e-06
9.2228944e-07
1.235503e-05
-2.4591003e-06
6.4034578e-07
-1.2390577e-06
-3.9716418e-08
9.2106793e-06
-2.2893968e-07
1.5602281e-08
9.3171409e-06
-3.4379555e-07
2.7429354e-08
9.4599164e-06
-3.6549411e-07
3.2102772e-08
9.6451579e-06
-3.6726012e-07
3.0486313e-08
9.8657353e-06
-3.5575293e-07
2.3585666e-08
1.0106563e-05
-3.4042548e-07
1.0815787e-08
1.0357547e-05
-3.3104131e-07
-8.6041174e-09
1.061439e-05
-3.3469729e-07
-3.62882e-08
1.087587e-05
-3.592924e-07
-7.5178424e-08
1.1144847e-05
-4.1534672e-07
-1.2727565e-07
1.1431375e-05
-5.2548864e-07
-1.9366595e-07
1.1759336e-05
-7.2695403e-07
-2.7017035e-07
1.2173251e-05
-1.0784785e-06
-3.3978369e-07
1.2655713e-05
-1.6170831e-06
-3.6542179e-07
1.3126603e-05
-2.1417865e-06
-3.3227964e-07
1.3402327e-05
-2.3846039e-06
-3.2006346e-07
1.3449863e-05
-2.4508181e-06
-4.0402262e-07
1.3339665e-05
-2.5001477e-06
-5.8864167e-07
1.3105585e-05
-2.5214911e-06
-8.4054077e-07
1.2776851e-05
-2.5340257e-06
-1.1126652e-06
1.2383637e-05
-2.5794798e-06
-1.3505001e-06
1.1940458e-05
-2.6663699e-06
-1.5139299e-06
1.1442833e-05
-2.7552774e-06
-1.58659e-06
1.0881403e-05
-2.8101447e-06
-1.5627304e-06
1.0256964e-05
-2.8424763e-06
-1.4281289e-06
9.6425345e-06
-2.9358409e-06
-1.1862665e-06
9.2973151e-06
-3.1785028e-06
-9.3910141e-07
9.7038401e-06
-3.6126027e-06
-8.6931228e-07
1.1281552e-05
-3.7724978e-06
-1.3159972e-06
-3.08737e-06
-2.2162724e-06
9.2706433e-06
-2.1173586e-07
1.577911e-08
9.2412259e-06
-2.8186115e-07
2.7881991e-08
9.2098842e-06
-2.958462e-07
3.3188262e-08
9.1826675e-06
-2.9778789e-07
3.2234348e-08
9.1681191e-06
-2.9456489e-07
2.5669887e-08
9.1677912e-06
-2.8817245e-07
1.2525631e-08
9.1787511e-06
-2.8363283e-07
-8.5091712e-09
9.1986595e-06
-2.8661371e-07
-3.9898964e-08
9.2294052e-06
-3.0330111e-07
-8.5786643e-08
9.261917e-06
-3.4645894e-07
-1.5187395e-07
9.2976244e-06
-4.3985683e-07
-2.4188229e-07
9.338352e-06
-6.3194158e-07
-3.5856341e-07
9.4092705e-06
-1.0191791e-06
-4.9142078e-07
9.546925e-06
-1.6802657e-06
-5.8543265e-07
9.5852869e-06
-2.2314973e-06
-5.5342911e-07
9.2402682e-06
-2.1248051e-06
-4.9667902e-07
8.7035488e-06
-1.8077185e-06
-5.9176312e-07
8.2857305e-06
-1.6650361e-06
-7.629001e-07
7.8763951e-06
-1.3356562e-06
-1.0076116e-06
7.3983893e-06
-1.0208725e-06
-1.2815818e-06
6.8266173e-06
-8.3672063e-07
-1.4796366e-06
6.2164787e-06
-8.0728687e-07
-1.5088707e-06
5.5971893e-06
-8.9685063e-07
-1.3651808e-06
5.0098585e-06
-1.0705121e-06
-1.0922334e-06
4.4728631e-06
-1.3075818e-06
-7.2759832e-07
4.0806858e-06
-1.6408863e-06
-4.0644394e-07
4.065101e-06
-2.0968643e-06
-3.1489433e-07
4.5650109e-06
-2.7674483e-06
-4.6021157e-07
5.6731892e-06
-3.0515936e-06
-1.3655947e-06
-2.0725795e-06
-3.0372776e-06
9.0754986e-06
1.5391292e-08
8.824879e-06
2.70066e-08
8.5656292e-06
3.1874319e-08
8.3080364e-06
3.0504069e-08
8.0577611e-06
2.3436729e-08
7.8191421e-06
9.562695e-09
7.591858e-06
-1.232187e-08
7.3732719e-06
-4.5765839e-08
7.1599747e-06
-9.6474921e-08
6.9311055e-06
-1.7379083e-07
6.6613446e-06
-2.9062211e-07
6.2920652e-06
-4.7460764e-07
5.6995461e-06
-7.8359483e-07
4.7058742e-06
-1.2868002e-06
3.4111605e-06
-1.801414e-06
2.3999549e-06
-1.855035e-06
2.2254666e-06
-1.4410481e-06
2.3077594e-06
-2.2572845e-07
2.4990874e-06
1.3194453e-06
2.7853608e-06
2.3975281e-06
3.1400991e-06
2.9922989e-06
3.4631038e-06
3.2568498e-06
3.6650018e-06
3.331498e-06
3.6700113e-06
3.2731598e-06
3.4602328e-06
3.0378084e-06
3.1324237e-06
2.4607293e-06
2.7038787e-06
1.6153842e-06
2.1844304e-06
4.1540265e-07
1.8237976e-06
-1.4430449e-06
-3.8230892e-06
9.585033e-06
-3.0593543e-07
4.4132071e-09
9.8693376e-06
-2.6812619e-07
7.4090884e-09
1.0143604e-05
-2.5617242e-07
8.0747155e-09
1.037551e-05
-2.1435675e-07
6.6975287e-09
1.0554665e-05
-1.6354057e-07
3.7314175e-09
1.0686936e-05
-1.1978638e-07
-5.1670046e-10
1.0781499e-05
-8.5812201e-08
-6.9804693e-09
1.0846834e-05
-6.0440359e-08
-1.4826558e-08
1.0890212e-05
-4.3302341e-08
-2.4627627e-08
1.0921231e-05
-3.6462926e-08
-3.6265871e-08
1.0956239e-05
-4.6522583e-08
-4.8497901e-08
1.1027411e-05
-8.9619594e-08
-5.7114012e-08
1.1191443e-05
-1.9218073e-07
-5.0868245e-08
1.1525016e-05
-3.8142753e-07
-1.0880274e-08
1.1897615e-05
-4.3602455e-07
6.0369636e-08
1.2187048e-05
-3.2237013e-07
1.4752417e-07
1.2365685e-05
-1.807453e-07
2.3548816e-07
1.247755e-05
-1.1864895e-07
3.3042655e-07
1.2561174e-05
-1.4248176e-07
4.4251962e-07
1.2639091e-05
-2.3210143e-07
5.8045646e-07
1.2717646e-05
-3.6477115e-07
7.5549785e-07
1.2786743e-05
-5.1868323e-07
9.7499385e-07
1.2835471e-05
-6.8264306e-07
1.2314169e-06
1.2865587e-05
-8.5605491e-07
1.5060104e-06
1.288937e-05
-1.0193821e-06
1.7624164e-06
1.2896601e-05
-1.1029611e-06
1.9496428e-06
1.2790773e-05
-9.7710864e-07
2.0076602e-06
1.2377644e-05
-5.4687345e-07
1.8680897e-06
1.1160124e-05
4.105472e-07
1.4371219e-06
2.632478e-06
6.8296205e-07
9.2030388e-06
-2.2880113e-07
4.3983457e-09
9.2977634e-06
-3.4331271e-07
7.8923033e-09
9.4291712e-06
-3.6399635e-07
8.5207252e-09
9.6029937e-06
-3.6368696e-07
5.9967319e-09
9.81062e-06
-3.4835171e-07
7.7461274e-10
1.003718e-05
-3.2652948e-07
-8.9956942e-09
1.0271889e-05
-3.0667923e-07
-2.2437529e-08
1.0510404e-05
-2.9424621e-07
-4.0983259e-08
1.0753085e-05
-2.9524733e-07
-6.5886429e-08
1.1008658e-05
-3.2152697e-07
-9.7720078e-08
1.1302258e-05
-3.9906082e-07
-1.3457214e-07
1.1690732e-05
-5.7990737e-07
-1.679937e-07
1.2273005e-05
-9.3860551e-07
-1.7494871e-07
1.3016474e-05
-1.3730686e-06
-1.1676442e-07
1.3674421e-05
-1.397175e-06
-2.9269758e-08
1.4089192e-05
-1.0681884e-06
1.0316676e-08
1.4311907e-05
-8.0561645e-07
-2.9031285e-09
1.4409605e-05
-7.4103674e-07
-6.5348858e-08
1.4389686e-05
-8.2582045e-07
-1.392331e-07
1.4282792e-05
-9.9857159e-07
-2.4212221e-07
1.4095231e-05
-1.1904846e-06
-3.4110144e-07
1.3808529e-05
-1.3601192e-06
-3.9034604e-07
1.340342e-05
-1.5092364e-06
-3.5939645e-07
1.2909193e-05
-1.6675539e-06
-2.6068413e-07
1.2435636e-05
-1.8376799e-06
-1.388238e-07
1.2157575e-05
-1.9459196e-06
-6.6631003e-08
1.2142992e-05
-1.7464327e-06
-1.5572691e-07
1.2255625e-05
-1.0565775e-06
-4.7241444e-07
1.2112807e-05
2.7948605e-07
-1.0651892e-06
2.1638589e-06
-1.8613648e-06
9.2633381e-06
-2.1174813e-07
4.3486369e-09
9.2220285e-06
-2.8192514e-07
7.8035974e-09
9.1784035e-06
-2.956014e-07
8.4180118e-09
9.1379527e-06
-2.9672611e-07
5.7239591e-09
9.1073138e-06
-2.9205996e-07
1.6864053e-11
9.0880702e-06
-2.8314785e-07
-1.1612556e-08
9.0758738e-06
-2.7479761e-07
-2.81943e-08
9.0664188e-06
-2.7230868e-07
-5.2380838e-08
9.0549957e-06
-2.825631e-07
-8.7045555e-08
9.0374939e-06
-3.2008609e-07
-1.3580576e-07
9.0165479e-06
-4.1794391e-07
-2.0203119e-07
9.0181843e-06
-6.5651424e-07
-2.8353838e-07
9.1570077e-06
-1.2116391e-06
-3.5722975e-07
9.5233988e-06
-1.9903592e-06
-3.3603257e-07
9.6537824e-06
-1.8922289e-06
-1.9117118e-07
9.2280394e-06
-9.4449259e-07
-1.952512e-07
8.6741629e-06
-5.598454e-07
-2.830219e-07
8.0139053e-06
-3.7140929e-07
-4.7114921e-07
7.3915182e-06
-4.793697e-07
-7.3064778e-07
6.7511106e-06
-6.2091994e-07
-1.0185202e-06
6.0691152e-06
-7.7538752e-07
-1.21316e-06
5.3413688e-06
-9.5330495e-07
-1.1882167e-06
4.5777695e-06
-1.1363181e-06
-9.7369102e-07
3.8691331e-06
-1.3370318e-06
-7.1205088e-07
3.4543405e-06
-1.6027993e-06
-5.4616356e-07
3.6196723e-06
-1.9525192e-06
-5.6627886e-07
4.46283e-06
-1.9596927e-06
-9.4981364e-07
5.5370096e-06
-1.0290612e-06
-1.5687645e-06
6.2165184e-06
5.5239534e-07
-2.3276697e-06
2.0961917e-06
-3.070602e-06
9.0684096e-06
4.1859087e-09
8.8060835e-06
7.4072027e-09
8.5345843e-06
7.7718213e-09
8.2635475e-06
4.8144893e-09
7.9966322e-06
-1.70825e-09
7.7370815e-06
-1.4034763e-08
7.4823293e-06
-3.2367593e-08
7.2243921e-06
-6.0137689e-08
6.9477599e-06
-1.0240627e-07
6.6220721e-06
-1.6818985e-07
6.1879703e-06
-2.744673e-07
5.5139057e-06
-4.5709812e-07
4.3194631e-06
-8.014158e-07
2.3900842e-06
-1.3545551e-06
2.3893181e-07
-1.5529638e-06
-1.3145447e-06
-1.2515498e-06
-2.309769e-06
-1.0045813e-06
-2.3684581e-06
-5.3818624e-07
-1.8028006e-06
2.7012068e-07
-1.0890143e-06
1.0566804e-06
-4.7726124e-07
1.5990313e-06
-9.6720639e-08
1.9176848e-06
6.9975359e-09
2.0869561e-06
-2.1279656e-07
2.1518594e-06
-7.6446499e-07
1.9822104e-06
-1.3266391e-06
1.0625987e-06
-1.499746e-06
-1.8510839e-07
-5.1267593e-07
-1.6228121e-06
1.4632117e-06
-2.8796423e-06
-3.5844033e-06
9.5818125e-06
-3.0644861e-07
-1.9799408e-09
9.8617779e-06
-2.6890098e-07
-3.6394273e-09
1.0131995e-05
-2.5700766e-07
-5.1101755e-09
1.0360336e-05
-2.1506896e-07
-6.5476999e-09
1.0536127e-05
-1.6394067e-07
-8.0852065e-09
1.0665027e-05
-1.1948805e-07
-9.8907416e-09
1.0755325e-05
-8.5051466e-08
-1.2184715e-08
1.0815393e-05
-5.9777137e-08
-1.5066238e-08
1.0853589e-05
-4.3963796e-08
-1.8790067e-08
1.0882388e-05
-4.1441795e-08
-2.3504964e-08
1.0926125e-05
-6.3205964e-08
-2.8786042e-08
1.1035676e-05
-1.3315576e-07
-3.2978408e-08
1.1289161e-05
-2.7315904e-07
-3.0280874e-08
1.1715167e-05
-4.1792519e-07
-1.8490714e-08
1.2109212e-05
-3.2643288e-07
-7.7311988e-09
1.2387842e-05
-1.3407824e-07
1.5843823e-09
1.258903e-05
2.7450849e-08
5.4168309e-09
1.2756515e-05
1.5854338e-07
2.8740843e-09
1.2928077e-05
2.7622186e-07
-6.9232599e-09
1.3133721e-05
3.9912553e-07
-2.6146753e-08
1.337755e-05
5.7138481e-07
-6.1739764e-08
1.3622601e-05
8.2832514e-07
-1.0067628e-07
1.3809874e-05
1.1755911e-06
-1.3412143e-07
1.3891709e-05
1.5762722e-06
-1.5525652e-07
1.3826604e-05
1.9869895e-06
-1.6320544e-07
1.3543164e-05
2.3882013e-06
-1.595228e-07
1.2884701e-05
2.8035416e-06
-1.4267055e-07
1.1583956e-05
3.2704256e-06
-1.0794993e-07
9.2083299e-06
3.864369e-06
-5.9297421e-08
4.9803768e-06
-2.323809e-08
9.1984391e-06
-2.289985e-07
-2.5216693e-09
9.2864297e-06
-3.4373239e-07
-5.2659277e-09
9.4106133e-06
-3.6450316e-07
-8.1655503e-09
9.5770053e-06
-3.6413267e-07
-1.1328726e-08
9.7772898e-06
-3.4853592e-07
-1.4910384e-08
9.9942102e-06
-3.2614885e-07
-1.9249573e-08
1.0216954e-05
-3.0583113e-07
-2.4393787e-08
1.0440653e-05
-2.9375346e-07
-3.0692494e-08
1.0667054e-05
-2.9768091e-07
-3.8544729e-08
1.090995e-05
-3.3416594e-07
-4.7832977e-08
1.1210262e-05
-4.401789e-07
-5.776628e-08
1.1660577e-05
-6.8811538e-07
-6.3010535e-08
1.2401279e-05
-1.135937e-06
-5.2335739e-08
1.3218114e-05
-1.3260032e-06
-2.5626836e-08
1.3801202e-05
-9.2993495e-07
-9.4102446e-09
1.4227568e-05
-5.4524794e-07
-5.7926623e-09
1.4569615e-05
-3.0687872e-07
-1.4233906e-08
1.4863955e-05
-1.7764805e-07
-3.1728264e-08
1.5117647e-05
-6.8100515e-08
-6.4208978e-08
1.5399881e-05
-4.8776937e-08
-1.0129953e-07
1.5719233e-05
1.6789121e-08
-1.3831224e-07
1.6017521e-05
2.6024365e-07
-1.6063404e-07
1.6214981e-05
7.3556642e-07
-1.6169625e-07
1.6270307e-05
1.3572986e-06
-1.4288856e-07
1.6140486e-05
2.0556417e-06
-1.2144336e-07
1.5739134e-05
2.7856467e-06
-1.0287623e-07
1.4833611e-05
3.5939901e-06
-7.6879693e-08
1.3150954e-05
4.466328e-06
-1.8598286e-08
1.0343512e-05
5.4999626e-06
7.6089209e-08
6.935934e-06
1.7906995e-07
9.2587083e-06
-2.1182972e-07
-2.5678065e-09
9.2102977e-06
-2.8214333e-07
-5.3752768e-09
9.1585383e-06
-2.9587698e-07
-8.4491388e-09
9.1090411e-06
-2.9695718e-07
-1.1954581e-08
9.0687488e-06
-2.9209757e-07
-1.612937e-08
9.0356188e-06
-2.8316003e-07
-2.1471392e-08
9.0046974e-06
-2.7496321e-07
-2.8140774e-08
8.9690431e-06
-2.73592e-07
-3.6887343e-08
8.9211858e-06
-2.8811232e-07
-4.8755033e-08
8.85502e-06
-3.386037e-07
-6.5196025e-08
8.7753582e-06
-4.7483427e-07
-8.7694828e-08
8.7445745e-06
-8.2821447e-07
-1.1261468e-07
9.0369446e-06
-1.6802014e-06
-1.0553585e-07
9.5536123e-06
-2.1207479e-06
-6.0424347e-08
9.3037512e-06
-8.3264542e-07
-3.9601267e-08
9.0488292e-06
-4.1704512e-07
-6.8264527e-08
8.6668908e-06
-8.6983661e-08
-1.2012199e-07
8.1654684e-06
3.8267198e-08
-1.8487639e-07
7.6424929e-06
-1.1448286e-08
-2.6421663e-07
7.108003e-06
-1.7971822e-07
-3.5492195e-07
6.7835906e-06
-4.7191453e-07
-4.052065e-07
6.9404418e-06
-7.1933037e-07
-3.7123169e-07
7.7102652e-06
-7.7582157e-07
-2.362782e-07
8.9464336e-06
-5.23206e-07
-7.1574208e-08
1.024711e-05
1.2085692e-07
7.3717675e-08
1.1182628e-05
1.0591164e-06
2.0272563e-07
1.1334116e-05
2.1677435e-06
2.9689045e-07
1.0538282e-05
3.2241969e-06
4.36865e-07
8.5433189e-06
4.537903e-06
5.9363329e-07
6.2118347e-06
6.9101048e-07
9.0638219e-06
-2.5133983e-09
8.7943269e-06
-5.2413819e-09
8.514462e-06
-8.2405718e-09
8.2340259e-06
-1.1706877e-08
7.9561815e-06
-1.5961675e-08
7.6805255e-06
-2.1539134e-08
7.4020693e-06
-2.8874952e-08
7.107489e-06
-3.9149811e-08
6.7713129e-06
-5.4342887e-08
6.3433634e-06
-7.8845038e-08
5.7149349e-06
-1.2087796e-07
4.6261138e-06
-1.9656355e-07
2.474641e-06
-3.3128894e-07
-6.3469739e-07
-3.8008243e-07
-2.8137424e-06
-2.0959461e-07
-4.3387243e-06
-1.4373094e-07
-5.3090637e-06
-1.2052788e-07
-5.7216798e-06
-8.6317387e-08
-5.4897334e-06
2.7735952e-08
-4.7909177e-06
1.7761465e-07
-4.0286475e-06
3.6409749e-07
-3.379457e-06
5.4953646e-07
-2.7780331e-06
7.1180826e-07
-1.9395645e-06
7.942708e-07
-5.2822985e-07
7.0044184e-07
1.1384502e-06
4.5186976e-07
2.2207498e-06
8.8897329e-07
2.6806136e-06
1.1223352e-06
3.1003891e-06
1.2131463e-06
1.1641634e-06
9.581667e-06
-3.0648668e-07
-8.1893807e-09
9.8613464e-06
-2.6892477e-07
-1.437838e-08
1.0131106e-05
-2.5700241e-07
-1.784295e-08
1.0358736e-05
-2.1502416e-07
-1.9126297e-08
1.0533408e-05
-1.6389005e-07
-1.8835054e-08
1.0660493e-05
-1.1966106e-07
-1.7279216e-08
1.0748458e-05
-8.5610519e-08
-1.4503503e-08
1.0805192e-05
-6.1210396e-08
-1.0562574e-08
1.0839492e-05
-4.7230219e-08
-5.8552743e-09
1.0865975e-05
-4.8572089e-08
-1.4754838e-09
1.0913519e-05
-7.9671446e-08
3.1228933e-09
1.1046061e-05
-1.6805469e-07
1.999931e-09
1.1351125e-05
-3.2263636e-07
-1.3534394e-08
1.1785616e-05
-3.8571319e-07
-6.7503671e-08
1.2154755e-05
-2.313768e-07
-1.4475115e-07
1.2412618e-05
-3.1546165e-08
-2.2314363e-07
1.259185e-05
1.3565608e-07
-3.0786719e-07
1.2722291e-05
2.8304303e-07
-4.0893703e-07
1.2842846e-05
4.0500724e-07
-5.3069679e-07
1.2988283e-05
5.0422528e-07
-6.7386272e-07
1.3172964e-05
5.9410717e-07
-8.3843186e-07
1.3382141e-05
7.1658557e-07
-1.0242454e-06
1.3561874e-05
9.1943778e-07
-1.2311233e-06
1.3658578e-05
1.1984415e-06
-1.4484419e-06
1.3626661e-05
1.5213583e-06
-1.6511326e-06
1.3396893e-05
1.8659582e-06
-1.7948741e-06
1.2817757e-05
2.247795e-06
-1.8112468e-06
1.1611377e-05
2.7401062e-06
-1.6422396e-06
9.3306085e-06
3.454583e-06
-1.2342589e-06
4.8464388e-06
-5.2983931e-07
9.1981933e-06
-2.2904744e-07
-9.1850332e-09
9.2857086e-06
-3.4381411e-07
-1.7890847e-08
9.4091359e-06
-3.6462651e-07
-2.3967024e-08
9.5743245e-06
-3.6431829e-07
-2.7220525e-08
9.7722841e-06
-3.4885878e-07
-2.7897378e-08
9.9861822e-06
-3.2689211e-07
-2.5911899e-08
1.0204421e-05
-3.0750036e-07
-2.0737983e-08
1.0421699e-05
-2.9745825e-07
-1.1722242e-08
1.064074e-05
-3.0581992e-07
9.9078625e-10
1.0875832e-05
-3.5296696e-07
2.1413673e-08
1.1178221e-05
-4.8399004e-07
4.3991906e-08
1.1670911e-05
-7.8338494e-07
5.9217617e-08
1.251921e-05
-1.2726228e-06
4.8786637e-08
1.3270569e-05
-1.1564535e-06
-6.2283259e-09
1.3827334e-05
-7.1208912e-07
-8.506431e-08
1.4248897e-05
-3.6744677e-07
-9.0754907e-08
1.4573072e-05
-1.3302125e-07
-6.6912769e-08
1.4802795e-05
4.9173014e-08
-2.2238863e-08
1.4990355e-05
1.1608101e-07
4.6507276e-08
1.5184433e-05
8.2623446e-08
1.4146226e-07
1.5424925e-05
-1.7031251e-08
2.5667135e-07
1.5706742e-05
-4.4295147e-08
3.5324342e-07
1.5943022e-05
1.8053192e-07
3.8298528e-07
1.6039375e-05
6.7186197e-07
3.356698e-07
1.5973022e-05
1.2812973e-06
2.3697269e-07
1.5664954e-05
1.9702766e-06
1.5324094e-07
1.4933548e-05
2.6989644e-06
2.5280219e-07
1.3463169e-05
3.6020774e-06
6.3299108e-07
1.1037262e-05
4.7813075e-06
1.2084835e-06
6.4009732e-06
1.8786352e-06
9.2584339e-06
-2.1186174e-07
-9.226835e-09
9.209458e-06
-2.8220191e-07
-1.8011933e-08
9.1567437e-06
-2.9598092e-07
-2.4380786e-08
9.1056347e-06
-2.9714515e-07
-2.8018978e-08
9.0620907e-06
-2.9249225e-07
-2.8952027e-08
9.024438e-06
-2.8390284e-07
-2.6808077e-08
8.986032e-06
-2.7656743e-07
-2.066768e-08
8.9383694e-06
-2.7721184e-07
-9.4712674e-09
8.8706882e-06
-2.9629253e-07
9.3975134e-09
8.7707639e-06
-3.5896196e-07
4.0716694e-08
8.6423684e-06
-5.2892708e-07
8.5613623e-08
8.5907264e-06
-9.829748e-07
1.385705e-07
9.14159e-06
-2.0842644e-06
1.5566899e-07
9.3483895e-06
-1.5296812e-06
1.0738683e-07
9.142096e-06
-5.801479e-07
3.4393527e-08
8.8738366e-06
-1.966976e-07
2.7322424e-08
8.3962266e-06
9.0865088e-08
1.3172495e-07
7.7321601e-06
2.0969651e-07
3.1780736e-07
6.9110589e-06
1.0976883e-07
5.638095e-07
5.8920877e-06
-1.0788819e-07
8.5536758e-07
4.7453766e-06
-3.7928968e-07
1.1014439e-06
3.8318449e-06
-7.1429146e-07
1.2084077e-06
3.6526214e-06
-1.0203856e-06
1.1436577e-06
4.4593701e-06
-1.1071173e-06
9.0384815e-07
6.1173223e-06
-8.6484169e-07
5.7214377e-07
7.944191e-06
-4.1267066e-08
4.0494467e-07
9.1019112e-06
9.4371666e-07
9.1875415e-07
9.1945451e-06
2.1577924e-06
1.8158716e-06
8.3801928e-06
3.5243537e-06
2.6899622e-06
5.1758731e-06
3.372626e-06
9.063536e-06
-8.9588266e-09
8.7934507e-06
-1.7358281e-08
8.5125384e-06
-2.3309415e-08
8.2301751e-06
-2.6489084e-08
7.9485906e-06
-2.6869694e-08
7.6671248e-06
-2.397648e-08
7.3783969e-06
-1.6714698e-08
7.0661321e-06
-4.0970619e-09
6.6938482e-06
2.1648582e-08
6.1895309e-06
6.6511023e-08
5.3931357e-06
1.4659769e-07
3.917131e-06
2.9659855e-07
8.99576e-07
6.0428957e-07
-2.1195087e-06
1.1302204e-06
-4.0885287e-06
1.1792366e-06
-5.4527563e-06
1.0211764e-06
-6.3454741e-06
8.5981268e-07
-6.7381295e-06
5.1395521e-07
-6.4762807e-06
-1.2497546e-07
-5.8398217e-06
-5.6422084e-07
-5.0538252e-06
-7.9773329e-07
-4.3364395e-06
-8.7788246e-07
-3.7346081e-06
-9.0541911e-07
-3.1507046e-06
-8.9168099e-07
-2.4479384e-06
-8.6301213e-07
-1.3537543e-06
-6.8221016e-07
-2.1016862e-07
6.8739998e-07
7.973111e-07
2.2756192e-06
1.9439241e-06
3.5967485e-06
4.3613039e-06
9.5845157e-06
-3.0612601e-07
-1.7608146e-08
9.8678432e-06
-2.6835169e-07
-2.9338451e-08
1.0140682e-05
-2.5644135e-07
-3.4216089e-08
1.0370681e-05
-2.1468798e-07
-3.441088e-08
1.0547464e-05
-1.6398213e-07
-3.1603578e-08
1.0676921e-05
-1.2027613e-07
-2.642364e-08
1.0768113e-05
-8.6584056e-08
-1.9073705e-08
1.0829188e-05
-6.2013608e-08
-9.5892542e-09
1.0866849e-05
-4.6965825e-08
3.4730519e-09
1.0892816e-05
-4.4333212e-08
1.6880563e-08
1.0926676e-05
-6.2671163e-08
3.1838152e-08
1.1006602e-05
-1.2190655e-07
4.3670536e-08
1.1199162e-05
-2.4898092e-07
4.2243885e-08
1.1556003e-05
-4.3923354e-07
1.4399116e-08
1.1921356e-05
-4.3006307e-07
-7.9620117e-08
1.2177879e-05
-2.7308328e-07
-2.049868e-07
1.2318329e-05
-1.2715955e-07
-3.1851125e-07
1.2395284e-05
-8.2163957e-08
-4.0024467e-07
1.2453289e-05
-1.3582813e-07
-4.4863187e-07
1.2526723e-05
-2.7040078e-07
-4.7208619e-07
1.2630015e-05
-4.5273864e-07
-4.8400106e-07
1.2744601e-05
-6.354861e-07
-4.986056e-07
1.2828073e-05
-7.8432102e-07
-5.2611402e-07
1.285214e-05
-9.0353599e-07
-5.6580081e-07