/*--------------------------------*- C++ -*----------------------------------*\
| =========                 |                                                 |
| \\      /  F ield         | OpenFOAM: The Open Source CFD Toolbox           |
|  \\    /   O peration     | Version:  v2012                                 |
|   \\  /    A nd           | Website:  www.openfoam.com                      |
|    \\/     M anipulation  |                                                 |
\*---------------------------------------------------------------------------*/
FoamFile
{
    version     2.0;
    format      ascii;
    class       volScalarField;
    location    "510/topAir";
    object      T;
}
// * * * * * * * * * * * * * * * * * * * * * * * * * * * * * * * * * * * * * //

dimensions      [0 0 0 1 0 0 0];


internalField   nonuniform List<scalar> 
1200
(
324.75986
347.65588
368.37383
387.5066
405.54758
422.79165
439.34411
455.05878
469.63097
483.02489
495.12027
505.6909
514.237
514.38728
512.08737
507.35804
500.86979
493.65855
486.69024
480.60585
475.70239
472.04123
469.55752
468.14371
467.70622
468.20706
469.70755
472.43053
476.92694
484.11525
300.5332
301.53879
302.91477
304.60063
306.55362
308.74078
311.13269
313.92282
317.75532
322.88583
330.15037
340.00835
352.68737
366.43819
379.91127
391.86516
401.68778
409.20555
414.4555
417.62084
419.12805
419.58141
419.57672
419.6146
420.11171
421.46399
424.13031
428.77937
436.65771
448.74927
300.01185
300.04534
300.10747
300.20429
300.34095
300.52181
300.75036
301.0343
301.39537
301.85875
302.49835
304.55394
309.89966
319.15952
331.5476
345.80486
360.20982
373.6158
385.26247
394.71259
401.87002
406.97367
410.47143
412.8764
414.6802
416.33293
418.26927
421.00284
425.41758
432.74543
300.00029
300.00139
300.00406
300.00929
300.01834
300.03273
300.05426
300.08518
300.12875
300.18991
300.2804
300.47461
301.06922
304.3668
313.21596
325.92843
339.51381
352.88968
365.40107
376.51483
385.86874
393.36315
399.15968
403.57282
406.96343
409.6825
412.06692
414.49081
417.53002
422.06653
324.75546
347.40661
367.64383
386.06054
403.11497
419.04364
433.90186
447.62641
460.01264
470.72058
479.279
485.12869
487.53964
479.60584
468.88734
457.05934
446.27925
437.94473
432.32102
428.91297
427.01546
426.10638
425.88336
426.21667
427.09315
428.58951
430.8986
434.40982
440.10041
449.9561
300.53251
301.51939
302.84334
304.4329
306.23389
308.20052
310.28538
312.4346
314.58254
316.64174
318.49519
319.9934
320.95663
321.13226
320.73643
320.43365
320.98075
322.59932
325.00947
327.80908
330.77441
333.89544
337.23726
340.91999
345.09195
349.88006
355.33485
361.4114
368.25914
377.52291
300.01181
300.04441
300.10332
300.19272
300.31547
300.47326
300.66637
300.89329
301.15036
301.4303
301.72029
302.023
302.33364
302.67843
303.61057
305.99358
310.77109
317.59241
325.31011
332.71113
339.35405
346.05475
352.75805
359.31493
365.53824
371.75926
378.49706
385.70602
393.3778
401.66784
300.00028
300.00135
300.00384
300.00856
300.01645
300.02856
300.046
300.06994
300.10155
300.1421
300.19347
300.26451
300.41142
301.08608
303.93241
310.64467
320.54546
333.26311
346.77489
359.60482
370.6317
379.10262
385.9132
391.57165
396.523
400.75598
404.21261
407.24935
410.28197
414.37545
324.75449
347.44787
367.74411
386.23482
403.3858
419.44641
434.52911
448.65433
461.7532
473.64163
483.9727
492.16153
497.11961
490.40306
480.39783
469.09703
458.10211
448.04625
439.17553
431.57124
425.1885
419.99974
416.08933
413.61097
412.66893
413.24415
415.24691
418.6675
424.34153
433.95975
300.53258
301.52275
302.85279
304.45039
306.26199
308.24435
310.35712
312.5568
314.78859
316.97735
319.00507
320.68439
321.73704
321.84382
321.45974
321.41351
321.93756
322.93792
324.42633
326.4132
328.92143
332.06918
336.03896
340.99575
347.03261
354.19845
362.48092
371.64175
381.53412
393.1588
300.01181
300.04455
300.1038
300.19366
300.31692
300.47524
300.66907
300.89735
301.15676
301.43985
301.73177
302.00447
302.2284
302.62773
304.39762
308.17412
312.40462
316.1856
320.11146
324.37966
329.15722
334.92728
342.09363
350.78927
360.74
371.20714
381.27365
390.43299
400.51732
412.90786
300.00029
300.00136
300.00386
300.00861
300.01651
300.0286
300.04595
300.06966
300.10081
300.14038
300.18948
300.25447
300.42868
301.79335
308.49217
321.25354
329.85199
332.26679
340.19914
351.34583
362.24205
371.30368
378.74618
385.01991
390.53967
395.43108
399.67604
403.69416
412.29872
427.87165
324.75804
347.46979
367.80682
386.36795
403.63829
419.90029
435.31357
449.96955
463.90483
477.07614
489.28894
500.03168
508.13695
504.6558
500.99266
499.31157
499.60406
500.69844
501.47716
501.21493
499.54764
496.44684
492.0998
486.81971
481.19371
476.31832
473.89409
475.8373
483.11597
494.20101
300.5327
301.52428
302.85871
304.46521
306.2928
308.303
310.46297
312.74047
315.09666
317.47083
319.74796
321.70438
322.99604
323.54573
324.37216
325.77405
327.46832
329.25762
331.10789
333.13437
335.57035
338.65281
342.49382
347.08983
352.49132
358.84487
366.16474
374.63942
389.36215
419.76221
300.01182
300.04462
300.10412
300.19461
300.31912
300.47979
300.67774
300.91292
301.18331
301.48262
301.79443
302.08282
302.35319
303.54834
307.56538
311.79133
314.777
317.05243
319.64911
323.22327
328.28854
335.18196
343.79137
353.83151
365.27548
377.57191
388.85259
398.54526
409.87373
426.66906
300.00029
300.00136
300.00388
300.00867
300.01667
300.02896
300.0467
300.07114
300.10358
300.14539
300.1989
300.28491
300.7366
305.5658
323.45757
344.71108
347.76385
347.48258
347.61611
353.95543
362.14097
370.02253
377.22485
384.0352
390.99714
398.30504
405.73893
413.51384
425.34205
436.6856
324.76245
347.48322
367.83456
386.41424
403.70845
420.00413
435.45999
450.16427
464.14082
477.30569
489.35245
499.53648
506.55054
501.39416
498.37064
498.57776
501.10164
504.69303
508.86153
513.22787
517.43104
521.11164
523.94691
525.70354
526.33914
526.14464
525.87105
526.74525
530.4312
538.84275
300.5328
301.52511
302.86152
304.47168
306.30505
308.32366
310.49537
312.78783
315.15918
317.53662
319.77085
321.56922
322.59637
323.48385
325.03632
326.97929
329.50287
333.66428
339.28295
346.27767
354.95187
365.71651
378.72624
393.55706
409.38698
425.4175
441.27221
457.20459
474.27748
495.29469
300.01182
300.04466
300.10429
300.1951
300.32024
300.48195
300.68157
300.91922
301.19274
301.49444
301.80265
302.07333
302.4541
305.68914
310.25703
313.35535
315.08639
316.59379
318.46031
321.63607
327.11353
335.18341
345.07235
355.72068
367.53687
381.46683
397.37455
415.52629
436.89376
463.73217
300.00029
300.00136
300.00389
300.0087
300.01676
300.02917
300.04714
300.07201
300.10522
300.14844
300.20577
300.32881
301.42579
316.07359
349.31995
355.50905
357.97305
359.90723
362.04856
364.77987
369.15701
374.18939
379.1482
383.58547
387.03553
390.51832
397.17866
409.93184
428.45267
451.29061
324.7687
347.49558
367.85316
386.43947
403.7402
420.04074
435.49847
450.19704
464.14846
477.24178
489.09551
498.84628
505.29022
500.77331
498.99169
500.25525
502.48997
505.80822
509.68545
513.69518
517.44593
520.60419
522.94532
524.38015
524.97211
525.00248
525.15508
526.57363
530.65399
539.00291
300.53293
301.52552
302.86236
304.47314
306.30734
308.32692
310.49932
312.79108
315.1573
317.51616
319.69692
321.37162
322.26387
323.54973
325.35627
327.44914
331.15971
336.43517
342.71563
349.61805
356.87063
364.67673
373.8043
384.41456
396.37694
409.35703
423.23588
438.52171
456.7335
480.94293
300.01183
300.04467
300.10433
300.19517
300.32039
300.48223
300.68204
300.91988
301.19335
301.49369
301.79596
302.05429
302.60583
307.54883
311.45114
313.8322
315.39686
317.22741
319.5349
322.94389
328.78697
338.1034
350.39051
363.01595
373.3968
382.39777
392.78532
405.91812
423.72902
448.49367
300.00029
300.00136
300.00389
300.0087
300.01677
300.0292
300.04721
300.07216
300.10555
300.14919
300.20854
300.36809
302.32427
332.19276
354.47542
358.88318
360.92802
363.18267
366.22584
369.21909
372.80324
377.00068
381.37273
385.50838
389.4021
393.27574
397.26256
407.45364
422.41561
441.90258
324.77604
347.5049
367.85857
386.43586
403.7213
419.99801
435.42339
450.08412
464.00089
477.10074
489.12931
499.46371
506.84276
502.73427
499.21514
498.01932
498.6402
499.73288
500.10397
498.97552
496.15187
492.07109
487.47497
482.93267
478.72754
475.23939
473.838
476.9652
485.42574
496.47892
300.53308
301.52544
302.86106
304.46923
306.29896
308.31165
310.47413
312.75328
315.10691
317.46658
319.69999
321.55256
322.66661
323.20333
324.31882
325.93219
327.77024
329.65191
331.55226
333.62645
336.19713
339.61486
344.06288
349.46048
355.62977
362.62017
370.53646
379.25868
393.58194
422.86984
300.01183
300.04466
300.10422
300.19483
300.31956
300.48055
300.67897
300.9148
301.18576
301.48477
301.79298
302.06984
302.36072
304.32768
309.42918
313.44742
316.20673
318.49001
321.41341
325.81786
332.2164
340.84525
351.31765
362.30308
372.49272
381.6586
390.16727
397.93802
406.6768
421.1668
300.00029
300.00136
300.00388
300.00868
300.0167
300.02904
300.04686
300.07146
300.10419
300.14655
300.20122
300.29734
300.97396
309.52692
335.56167
349.76212
351.17183
351.00288
351.11329
356.5426
363.34637
370.0121
376.71973
382.07069
387.01072
392.17295
399.59328
408.86263
420.29149
432.99564
324.78134
347.50042
367.822
386.33826
403.51565
419.60366
434.70818
448.8554
461.96746
473.82909
484.04587
491.95014
496.33713
488.76758
478.15948
466.78766
456.16435
446.61778
438.14956
430.79681
424.64054
419.84708
416.62458
415.07731
415.12067
416.51132
419.03407
422.78074
428.89165
440.59822
300.53314
301.52446
302.85629
304.45642
306.27139
308.25802
310.3755
312.57944
314.81252
316.99111
318.98654
320.58959
321.49723
321.44361
321.13706
321.36664
322.20677
323.47918
325.19859
327.41389
330.2245
333.80276
338.28899
343.67207
349.79506
356.52798
363.93945
371.83138
380.26215
390.84866
300.01183
300.04461
300.10394
300.19398
300.31756
300.4764
300.67099
300.90024
301.16066
301.44434
301.73431
301.99923
302.21361
302.78235
305.4146
309.96327
314.48173
318.2435
322.19048
326.65036
332.02215
338.7559
346.87034
355.81415
364.77508
373.15404
381.22007
388.70337
396.16387
405.25143
300.00029
300.00136
300.00387
300.00863
300.01656
300.02871
300.04618
300.07011
300.10164
300.14183
300.19191
300.26007
300.48654
302.71574
313.05514
327.12194
335.78851
336.13097
343.93217
354.20951
363.91681
372.03918
378.83476
384.62217
389.63495
393.93634
397.70931
401.26272
407.33682
417.58804
324.78861
347.47058
367.73721
386.18294
403.26676
419.22675
434.12356
447.8863
460.30059
471.02064
479.54064
485.2456
487.33791
478.86069
467.62149
455.56596
444.91934
436.89323
431.52395
428.2003
426.2473
425.24897
425.03966
425.59203
426.89768
428.96045
431.87964
436.0663
442.67138
452.79128
300.53321
301.52146
302.84754
304.44012
306.24517
308.21706
310.30853
312.46486
314.61688
316.67602
318.51625
319.97654
320.86197
320.92973
320.49783
320.31543
321.09818
322.94732
325.51293
328.40825
331.46932
334.72306
338.24479
342.1075
346.365
351.0548
356.1927
361.71785
367.70176
377.15777
300.01183
300.04447
300.1035
300.19312
300.31628
300.47476
300.66894
300.8974
301.15643
301.43828
301.72952
302.02986
302.33076
302.7021
303.87205
306.70531
311.9443
319.00062
326.59082
333.52429
339.67511
345.77441
351.88545
358.0247
364.09237
370.32691
376.89882
383.78267
391.08332
399.00852
300.00029
300.00135
300.00385
300.00859
300.01652
300.02871
300.04632
300.07057
300.10271
300.14411
300.19687
300.27076
300.43301
301.26044
304.90761
312.5778
322.84627
335.75183
349.20684
361.63139
372.05187
380.11655
386.64775
392.11608
396.74681
400.48215
403.6165
406.4315
409.28116
412.43136
324.7975
347.72956
368.48305
387.6525
405.73339
423.02194
439.62804
455.40812
470.04779
483.50498
495.64785
506.23203
514.72772
514.69124
512.12546
507.1279
500.4539
493.16052
486.17123
480.07387
475.14139
471.44791
468.96955
467.64437
467.39859
468.17847
470.00713
473.08503
477.9756
485.47179
300.534
301.54121
302.91975
304.60929
306.56735
308.76116
311.16084
313.93901
317.77396
322.90739
330.1812
340.12497
352.91559
366.76658
380.3274
392.38703
402.3292
409.9008
415.05567
417.98139
419.18208
419.35481
419.16657
419.13941
419.6519
421.03042
423.69067
428.34094
436.35881
449.1021
300.01187
300.04541
300.10768
300.20477
300.34192
300.52361
300.75344
301.03872
301.40175
301.86765
302.50839
304.49858
309.83312
319.23634
331.81441
346.29941
360.92584
374.50548
386.20436
395.54331
402.45527
407.25364
410.46367
412.64882
414.31121
415.87942
417.76009
420.47072
424.96531
432.69632
300.00029
300.00139
300.00407
300.00932
300.01842
300.03291
300.05465
300.08595
300.13021
300.1926
300.28563
300.48763
301.13578
304.68409
314.15775
327.25087
340.96328
354.4149
366.92817
377.90229
386.97664
394.11831
399.56135
403.6678
406.81705
409.35576
411.60854
413.94318
416.96229
421.6713
)
;

boundaryField
{
    maxY
    {
        type            zeroGradient;
    }
    minX
    {
        type            fixedValue;
        value           uniform 300;
    }
    maxX
    {
        type            inletOutlet;
        inletValue      uniform 300;
        value           nonuniform List<scalar> 
40
(
484.16104
448.80005
432.78669
422.1001
449.99733
377.57011
401.69998
414.36577
434.04756
393.17815
412.97372
427.98547
494.40245
420.18186
426.90748
436.51458
539.0474
495.81013
464.36268
451.42446
539.04217
480.63081
448.24588
441.80348
496.55063
422.80548
420.94781
432.69715
440.7028
390.71425
405.00661
417.21495
452.86781
377.14016
398.99067
412.44244
485.51527
449.14949
432.7333
421.69385
)
;
    }
    minZ
    {
        type            zeroGradient;
    }
    maxZ
    {
        type            zeroGradient;
    }
    topAir_to_rightSolid
    {
        type            compressible::turbulentTemperatureCoupledBaffleMixed;
        refValue        nonuniform List<scalar> 
130
(
753.37756
761.32282
769.62404
777.87838
785.76842
793.06005
799.59516
805.2787
810.05959
813.90616
816.80092
818.73782
819.7095
747.50312
756.8004
766.29976
775.51777
784.12943
791.93894
798.83105
804.75071
809.68552
813.63365
816.59548
818.57271
819.56624
735.7166
748.13504
760.19138
771.32951
781.30657
790.05578
797.58162
803.9238
809.12583
813.2326
816.29306
818.33617
819.36052
718.18106
736.442
752.59032
766.44318
778.18642
788.06922
796.31742
803.12121
808.61634
812.90256
816.06641
818.16139
819.20872
697.57875
725.43651
746.3958
762.82096
776.01458
786.74923
795.51153
802.63169
808.32484
812.73901
815.98192
818.11767
819.17938
697.73109
725.5743
746.51667
762.92225
776.09777
786.82282
795.58514
802.70268
808.39557
812.81496
816.06834
818.21116
819.27677
718.70966
736.89159
752.96416
766.75383
778.44966
788.30254
796.53533
803.3243
808.81222
813.10544
816.28775
818.39316
819.44283
736.4263
748.76858
760.74695
771.81825
781.74153
790.44427
797.93228
804.23973
809.41755
813.514
816.57281
818.61259
819.63376
748.2387
757.51267
766.95351
776.1123
784.66812
792.41816
799.25425
805.12607
810.01579
813.92877
816.87555
818.84388
819.83044
754.07468
762.01961
770.3024
778.5125
786.34614
793.57413
800.04368
805.66432
810.38942
814.20178
817.0756
818.99724
819.9588
)
;
        refGradient     uniform 0;
        valueFraction   uniform 0.99967867;
        value           nonuniform List<scalar> 
130
(
753.29411
761.23457
769.53117
777.78128
785.66761
792.9561
799.48866
805.17024
809.94975
813.79557
816.69027
818.628
819.60168
747.40365
756.69614
766.19134
775.40579
784.01439
791.82132
798.71132
804.62936
809.56307
813.51067
816.47268
818.4511
819.44749
735.62416
748.03577
760.08579
771.2183
781.19048
789.93562
797.45824
803.79809
808.99863
813.10473
816.1653
818.20959
819.23671
718.11119
736.36652
752.50957
766.35745
778.09593
787.97416
796.21802
803.01782
808.50961
812.79369
815.95716
818.05379
819.10435
697.51678
725.36693
746.32088
762.74212
775.93268
786.6648
795.42485
802.54293
808.2342
812.64686
815.88902
818.02528
819.08937
697.66941
725.50491
746.44184
762.84336
776.01566
786.73802
795.49798
802.61343
808.30451
812.72253
815.97532
818.11877
819.18672
718.63928
736.81548
752.88252
766.66685
778.35761
788.20586
796.43455
803.21999
808.70504
812.99644
816.17874
818.28619
819.33908
736.33316
748.66875
760.64092
771.70668
781.62524
790.32415
797.80926
804.1147
809.2913
813.38726
816.44628
818.48738
819.512
748.13866
757.40792
766.84467
775.99988
784.55263
792.30011
799.13419
805.00454
809.89336
813.80602
816.7532
818.72303
819.71252
753.99084
761.93097
770.20915
778.41502
786.24495
793.46983
799.93688
805.55563
810.27947
814.09119
816.96508
818.88767
819.85134
)
;
        Tnbr            T;
        thicknessLayers List<scalar> 0();
        kappaLayers     List<scalar> 0();
        kappaMethod     fluidThermo;
        kappa           none;
        alphaAni        none;
        alpha           none;
        field           T;
    }
    topAir_to_heater
    {
        type            compressible::turbulentTemperatureCoupledBaffleMixed;
        refValue        nonuniform List<scalar> 
40
(
734.24776
736.36138
740.46538
746.27953
724.80885
727.2881
732.1359
739.05556
704.98168
708.1673
714.57055
724.00331
672.82885
676.82508
685.42372
699.29082
626.08102
629.69744
639.18227
658.33316
626.2247
629.8472
639.33525
658.48726
673.3869
677.38259
685.97303
699.82759
705.70313
708.89132
715.2952
724.72176
725.55851
728.02081
732.85317
739.76972
734.95316
737.04069
741.13941
746.94919
)
;
        refGradient     uniform 0;
        valueFraction   uniform 0.99967867;
        value           nonuniform List<scalar> 
40
(
734.17712
736.28931
740.39047
746.20067
724.73006
727.20506
732.04751
738.96148
704.91273
708.0941
714.49167
723.91787
672.77481
676.76858
685.36392
699.22667
626.04095
629.65524
639.13709
658.28265
626.18439
629.80514
639.29055
658.43712
673.33207
677.32534
685.91263
699.76293
705.63343
708.81719
715.21535
724.63546
725.47924
727.93714
732.76407
739.67499
734.88238
736.96842
741.06422
746.86999
)
;
        Tnbr            T;
        thicknessLayers List<scalar> 0();
        kappaLayers     List<scalar> 0();
        kappaMethod     fluidThermo;
        kappa           none;
        alphaAni        none;
        alpha           none;
        field           T;
    }
    topAir_to_leftSolid
    {
        type            compressible::turbulentTemperatureCoupledBaffleMixed;
        refValue        nonuniform List<scalar> 
130
(
908.90297
908.86118
908.76459
908.61457
908.40967
908.16187
907.87501
907.52223
907.13676
906.79316
906.51631
906.30812
906.17284
908.94835
908.90263
908.80119
908.64614
908.43852
908.20491
907.92763
907.60217
907.24968
906.87668
906.56801
906.33324
906.18612
909.00609
908.95387
908.84091
908.67829
908.48211
908.25059
907.97401
907.6436
907.32169
906.99944
906.69137
906.42546
906.26033
909.10048
909.04468
908.92213
908.75468
908.55475
908.3165
908.03628
907.7102
907.40739
907.11991
906.84575
906.59268
906.39619
909.23398
909.1789
909.05951
908.88037
908.66826
908.42134
908.13355
907.80694
907.50775
907.23006
906.97045
906.72881
906.54898
909.38968
909.33613
909.21994
909.04058
908.81159
908.54971
908.24327
907.92157
907.61688
907.33193
907.05832
906.79183
906.61359
909.55439
909.49796
909.38198
909.20725
908.98005
908.70928
908.40725
908.08084
907.76423
907.46862
907.18713
906.90908
906.76565
909.68131
909.63291
909.53091
909.36677
909.15853
908.91246
908.63694
908.34217
908.04055
907.7458
907.48229
907.26966
907.15772
909.78672
909.74516
909.65607
909.51379
909.3315
909.12401
908.89627
908.64458
908.38091
908.11468
907.86837
907.65791
907.52518
909.85184
909.81422
909.73409
909.60878
909.44587
909.25709
909.04467
908.81365
908.56844
908.3175
908.09233
907.91071
907.79996
)
;
        refGradient     uniform 0;
        valueFraction   uniform 0.99967867;
        value           nonuniform List<scalar> 
130
(
908.71527
908.68085
908.59095
908.44713
908.24809
908.00591
907.72446
907.37685
906.99618
906.65699
906.38411
906.17939
906.0469
908.76063
908.72221
908.6273
908.47822
908.27615
908.04773
907.77531
907.45437
907.10597
906.73653
906.43071
906.1979
906.0516
908.81836
908.77344
908.66704
908.51041
908.31981
908.09352
907.82188
907.49611
907.17851
906.86019
906.55554
906.29234
906.12886
908.91272
908.86423
908.74825
908.58683
908.39251
908.15956
907.88438
907.56312
907.26488
906.98173
906.71157
906.46204
906.26821
909.04617
908.99841
908.88561
908.71249
908.50601
908.2644
907.98167
907.65989
907.36529
907.09192
906.83626
906.59797
906.42045
909.20183
909.15559
909.04598
908.87265
908.6493
908.39274
908.09136
907.7745
907.47439
907.19373
906.92402
906.66075
906.48464
909.36648
909.31738
909.20797
909.03927
908.81769
908.55224
908.25527
907.93368
907.62164
907.33033
907.0528
906.77816
906.63715
909.49337
909.45228
909.35685
909.19871
908.99606
908.75523
908.48465
908.19453
907.89721
907.60638
907.34623
907.13621
907.02571
909.59874
909.56449
909.48194
909.34563
909.16889
908.96659
908.74372
908.49653
908.23693
907.97423
907.73074
907.52218
907.39017
909.66384
909.63361
909.56017
909.44106
909.28402
909.10085
908.89384
908.66796
908.42753
908.18099
907.9598
907.78164
907.67365
)
;
        Tnbr            T;
        thicknessLayers List<scalar> 0();
        kappaLayers     List<scalar> 0();
        kappaMethod     fluidThermo;
        kappa           none;
        alphaAni        none;
        alpha           none;
        field           T;
    }
}


// ************************************************************************* //
