/*--------------------------------*- C++ -*----------------------------------*\
| =========                 |                                                 |
| \\      /  F ield         | OpenFOAM: The Open Source CFD Toolbox           |
|  \\    /   O peration     | Version:  v2012                                 |
|   \\  /    A nd           | Website:  www.openfoam.com                      |
|    \\/     M anipulation  |                                                 |
\*---------------------------------------------------------------------------*/
FoamFile
{
    version     2.0;
    format      ascii;
    class       volScalarField;
    location    "490/leftSolid";
    object      T;
}
// * * * * * * * * * * * * * * * * * * * * * * * * * * * * * * * * * * * * * //

dimensions      [0 0 0 1 0 0 0];


internalField   nonuniform List<scalar> 
130
(
905.20325
905.1366
905.01543
904.83653
904.61026
904.38477
904.1547
903.91162
903.65192
903.39492
903.1798
903.00856
902.87369
905.19823
905.1398
905.03335
904.87424
904.66166
904.44006
904.20968
903.9605
903.68936
903.42683
903.20144
903.01904
902.87333
905.21668
905.16641
905.06475
904.90718
904.70324
904.48525
904.24795
903.98475
903.69989
903.43622
903.20833
903.01736
902.86398
905.27385
905.22248
905.11396
904.9435
904.74142
904.51546
904.26048
903.97904
903.69929
903.43279
903.19501
902.99378
902.8322
905.37685
905.32265
905.20311
905.03074
904.82165
904.58298
904.31401
904.00923
903.70585
903.41172
903.14644
902.92381
902.76952
905.52283
905.46181
905.33251
905.14757
904.90738
904.63325
904.34056
904.02279
903.68558
903.34973
903.05405
902.80128
902.63948
905.69238
905.62071
905.47481
905.27163
905.01523
904.70787
904.38957
904.05747
903.7166
903.38829
903.07211
902.78218
902.62114
905.84612
905.77721
905.63517
905.435
905.18041
904.87265
904.55742
904.23414
903.9078
903.58231
903.26319
902.95256
902.79479
906.00685
905.94538
905.81707
905.62757
905.38115
905.0863
904.75848
904.42548
904.09464
903.7642
903.43548
903.17115
903.03408
906.11605
906.06068
905.94519
905.76831
905.53028
905.22891
904.85962
904.47921
904.13513
903.82022
903.52313
903.27818
903.14389
)
;

boundaryField
{
    minX
    {
        type            zeroGradient;
    }
    minZ
    {
        type            zeroGradient;
    }
    maxZ
    {
        type            zeroGradient;
    }
    leftSolid_to_bottomWater
    {
        type            compressible::turbulentTemperatureCoupledBaffleMixed;
        refValue        nonuniform List<scalar> 
130
(
976.78801
973.89147
972.00101
968.71821
962.47962
961.68602
961.09094
959.98931
956.9805
952.90533
951.61044
950.5799
940.41606
975.17883
972.48465
971.85551
971.51629
966.4845
965.50428
965.49109
964.53939
960.68059
956.78065
954.70066
954.37004
944.10118
973.57178
972.65445
972.17561
970.56418
966.50909
966.86033
967.09133
965.40206
960.14062
957.77951
956.89805
956.14162
945.56677
972.93214
972.3
971.5676
966.75114
965.56268
965.31826
963.88369
960.24691
960.06688
959.12525
958.35112
957.58461
944.78098
972.84746
972.89205
970.60467
968.80528
968.54789
968.68175
968.6678
963.65975
962.68105
960.90904
959.0474
955.98642
948.61451
974.50252
974.33634
972.5634
971.82888
968.41012
966.37383
966.46763
965.23881
961.41187
955.09573
953.61111
948.04448
941.23356
977.45729
976.16877
972.69333
970.41107
968.62501
963.01912
961.58777
959.62328
956.59728
956.29062
952.99604
941.37196
938.62909
976.41379
975.54142
972.51295
970.62264
969.34652
964.45806
965.41282
965.99424
966.45464
965.59001
964.42633
946.78575
945.05194
978.0165
977.58655
976.10654
974.61223
972.89028
971.8868
970.41915
971.52085
972.26664
970.63264
962.29124
956.10615
955.37561
979.42515
979.19132
978.91689
978.45998
978.19825
977.70522
969.90267
963.50209
964.31358
965.9105
962.84494
955.99428
953.1704
)
;
        refGradient     uniform 0;
        valueFraction   nonuniform List<scalar> 
130
(
0.0075140686
0.0075140686
0.0075140686
0.0075140686
0.0075140686
0.0075140686
0.0075140686
0.0075140686
0.0075140686
0.0075140686
0.0075140686
0.0075140686
0.0075140686
0.0075140686
0.0075140686
0.0075140686
0.0075140686
0.0075140686
0.0075140686
0.0075140686
0.0075140686
0.0075140686
0.0075140686
0.0075140686
0.0075140686
0.0075140686
0.0075140686
0.0075140686
0.0075140686
0.0075140686
0.0075140686
0.0075140686
0.0075140686
0.0075140686
0.0075140686
0.0075140686
0.0075140686
0.0075140686
0.0075140686
0.0075140686
0.0075140686
0.0075140686
0.0075140686
0.0075140686
0.0075140686
0.0075140686
0.0075140686
0.0075140686
0.0075140686
0.0075140686
0.0075140686
0.0075140686
0.0075140686
0.0075140686
0.0075140686
0.0075140686
0.0075140686
0.0075140686
0.0075140686
0.0075140686
0.0075140686
0.0075140686
0.0075140686
0.0075140686
0.0075140686
0.0075140686
0.0075140686
0.0075140686
0.0075140686
0.0075140686
0.0075140686
0.0075140686
0.0075140686
0.0075140686
0.0075140686
0.0075140686
0.0075140686
0.0075140686
0.0075140686
0.0075140686
0.0075140686
0.0075140686
0.0075140686
0.0075140686
0.0075140686
0.0075140686
0.0075140686
0.0075140686
0.0075140686
0.0075140686
0.0075140686
0.0075140686
0.0075140686
0.0075140686
0.0075140686
0.0075140686
0.0075140686
0.0075140686
0.0075140686
0.0075140686
0.0075140686
0.0075140686
0.0075140686
0.0075140686
0.0075140686
0.0075140686
0.0075140686
0.0075140686
0.0075140686
0.0075140686
0.0075140686
0.0075140686
0.0075140686
0.0075140686
0.0075140686
0.0075140686
0.0075140686
0.0075140686
0.0075140686
0.0075140686
0.0075140686
0.0075140686
0.0075140686
0.0075140686
0.0075140686
0.0075140686
0.0075140686
0.0075140686
0.0075140686
0.0075140686
)
;
        value           nonuniform List<scalar> 
130
(
905.73845
905.65056
905.51613
905.31395
905.04249
904.81275
904.57997
904.33049
904.05019
903.76447
903.54129
903.3637
903.15357
905.72135
905.64316
905.53282
905.37237
905.12358
904.89629
904.66756
904.41316
904.11507
903.82523
903.58594
903.40245
903.18068
905.7276
905.67085
905.56638
905.39791
905.16505
904.95132
904.71754
904.44366
904.12137
903.84196
903.60919
903.41398
903.18229
905.77957
905.72385
905.61067
905.40533
905.19583
904.96973
904.70589
904.39926
904.12022
903.84862
903.60681
903.40136
903.14484
905.8812
905.82776
905.69193
905.50731
905.29784
905.06197
904.79491
904.4548
904.14633
903.84107
903.56378
903.31984
903.11135
906.03851
905.9767
905.83505
905.64597
905.38188
905.09448
904.80467
904.48004
904.11658
903.73576
903.43115
903.13849
902.92674
906.22899
906.14817
905.97725
905.75844
905.49053
905.14332
904.81662
904.47223
904.11113
903.78296
903.44443
903.06935
902.88891
906.37373
906.29878
906.13507
905.92221
905.65994
905.31769
905.01192
904.69536
904.37486
904.04532
903.71988
903.27905
903.1095
906.54532
906.48108
906.34261
906.14331
905.8858
905.58557
905.24913
904.92684
904.60401
904.26377
903.87483
903.56606
903.4246
906.66432
906.6076
906.49092
906.31193
906.07371
905.77087
905.3457
904.91997
904.58446
904.28387
903.96599
903.6715
903.51706
)
;
        Tnbr            T;
        thicknessLayers List<scalar> 0();
        kappaLayers     List<scalar> 0();
        kappaMethod     solidThermo;
        kappa           none;
        alphaAni        none;
        alpha           none;
        field           T;
    }
    leftSolid_to_heater
    {
        type            compressible::turbulentTemperatureCoupledBaffleMixed;
        refValue        nonuniform List<scalar> 10(734.31835 724.89473 705.08687 672.94646 626.09826 626.17286 673.26016 705.52264 725.37432 734.76967);
        refGradient     uniform 0;
        valueFraction   nonuniform List<scalar> 10(2.08329e-05 2.08329e-05 2.08329e-05 2.08329e-05 2.08329e-05 2.08329e-05 2.08329e-05 2.08329e-05 2.08329e-05 2.08329e-05);
        value           nonuniform List<scalar> 10(902.86794 902.86717 902.85728 902.82483 902.76108 902.63096 902.61354 902.78785 903.02758 903.13763);
        Tnbr            T;
        thicknessLayers List<scalar> 1(0.001);
        kappaLayers     List<scalar> 1(0.0005);
        kappaMethod     solidThermo;
        kappa           none;
        alphaAni        none;
        alpha           none;
        field           T;
    }
    leftSolid_to_topAir
    {
        type            compressible::turbulentTemperatureCoupledBaffleMixed;
        refValue        nonuniform List<scalar> 
130
(
324.61188
347.37231
367.96829
386.98754
404.92053
422.06352
438.53411
454.20603
468.74933
482.124
494.2017
504.74329
513.22892
324.60544
347.12045
367.23687
385.54325
402.49381
418.32701
433.1083
446.76871
459.10029
469.76437
478.26761
484.00901
486.21267
324.6032
347.16
367.33589
385.71753
402.76727
418.73402
433.72225
447.76176
460.77886
472.57447
482.76401
490.71089
495.24472
324.60534
347.17875
367.39284
385.8406
403.00315
419.16267
434.47659
449.03396
462.86224
475.89943
487.91965
498.35691
505.97082
324.60884
347.18997
367.41637
385.88127
403.067
419.25776
434.61195
449.21433
463.08103
476.11453
487.98307
497.90195
504.62763
324.61478
347.20095
367.43141
385.89939
403.08659
419.27789
434.63418
449.24549
463.13818
476.23857
488.26788
498.53036
505.74336
324.62256
347.21049
367.43593
385.89279
403.06231
419.22665
434.54609
449.1131
462.96585
476.06833
488.24351
499.01646
507.27262
324.629
347.20779
367.40074
385.79504
402.85222
418.81888
433.81336
447.85684
460.88154
472.70865
483.00249
491.20003
496.25617
324.63877
347.1841
367.32667
385.65631
402.62928
418.48138
433.26204
446.91359
459.23567
469.89161
478.41582
484.26417
486.73237
324.64943
347.44411
368.07092
387.11884
405.07802
422.23998
438.70545
454.32527
468.80767
482.11672
494.13332
504.63609
513.13887
)
;
        refGradient     uniform 0;
        valueFraction   nonuniform List<scalar> 
130
(
0.00032132529
0.00032132529
0.00032132529
0.00032132529
0.00032132529
0.00032132529
0.00032132529
0.00032132529
0.00032132529
0.00032132529
0.00032132529
0.00032132529
0.00032132529
0.00032132529
0.00032132529
0.00032132529
0.00032132529
0.00032132529
0.00032132529
0.00032132529
0.00032132529
0.00032132529
0.00032132529
0.00032132529
0.00032132529
0.00032132529
0.00032132529
0.00032132529
0.00032132529
0.00032132529
0.00032132529
0.00032132529
0.00032132529
0.00032132529
0.00032132529
0.00032132529
0.00032132529
0.00032132529
0.00032132529
0.00032132529
0.00032132529
0.00032132529
0.00032132529
0.00032132529
0.00032132529
0.00032132529
0.00032132529
0.00032132529
0.00032132529
0.00032132529
0.00032132529
0.00032132529
0.00032132529
0.00032132529
0.00032132529
0.00032132529
0.00032132529
0.00032132529
0.00032132529
0.00032132529
0.00032132529
0.00032132529
0.00032132529
0.00032132529
0.00032132529
0.00032132529
0.00032132529
0.00032132529
0.00032132529
0.00032132529
0.00032132529
0.00032132529
0.00032132529
0.00032132529
0.00032132529
0.00032132529
0.00032132529
0.00032132529
0.00032132529
0.00032132529
0.00032132529
0.00032132529
0.00032132529
0.00032132529
0.00032132529
0.00032132529
0.00032132529
0.00032132529
0.00032132529
0.00032132529
0.00032132529
0.00032132529
0.00032132529
0.00032132529
0.00032132529
0.00032132529
0.00032132529
0.00032132529
0.00032132529
0.00032132529
0.00032132529
0.00032132529
0.00032132529
0.00032132529
0.00032132529
0.00032132529
0.00032132529
0.00032132529
0.00032132529
0.00032132529
0.00032132529
0.00032132529
0.00032132529
0.00032132529
0.00032132529
0.00032132529
0.00032132529
0.00032132529
0.00032132529
0.00032132529
0.00032132529
0.00032132529
0.00032132529
0.00032132529
0.00032132529
0.00032132529
0.00032132529
0.00032132529
0.00032132529
0.00032132529
)
;
        value           nonuniform List<scalar> 
130
(
905.01398
904.95469
904.84021
904.66752
904.44708
904.22719
904.00251
903.7646
903.50971
903.25706
903.04595
902.87826
902.74625
905.00893
904.9578
904.85789
904.70472
904.49766
904.28123
904.05569
903.81104
903.54396
903.28496
903.06241
902.88194
902.73699
905.02739
904.98441
904.8893
904.73771
904.53933
904.32652
904.09412
903.83555
903.55493
903.29516
903.07064
902.8823
902.73042
905.08458
905.04049
904.93853
904.77408
904.57757
904.35688
904.10691
903.83026
903.555
903.29275
903.05891
902.86112
902.70209
905.18758
905.14067
905.02767
904.86127
904.65775
904.42436
904.16041
903.86042
903.56158
903.27171
903.01032
902.79096
902.63891
905.33352
905.27977
905.15701
904.97806
904.74345
904.47458
904.18689
903.87391
903.54124
903.20968
902.91796
902.66861
902.50919
905.50301
905.43861
905.29926
905.10207
904.85126
904.54915
904.23584
903.9085
903.57214
903.24812
902.93598
902.64962
902.49128
905.6567
905.59507
905.45958
905.2654
905.01636
904.71376
904.40337
904.08462
903.7625
903.44091
903.12523
902.81735
902.66133
905.81741
905.7632
905.6414
905.45786
905.21696
904.92725
904.60423
904.27565
903.94879
903.62188
903.29599
903.03368
902.89752
905.92661
905.87858
905.76975
905.59904
905.36685
905.07106
904.70715
904.3318
903.99237
903.68179
903.38867
903.14727
903.01582
)
;
        Tnbr            T;
        thicknessLayers List<scalar> 0();
        kappaLayers     List<scalar> 0();
        kappaMethod     solidThermo;
        kappa           none;
        alphaAni        none;
        alpha           none;
        field           T;
    }
}


// ************************************************************************* //
