/*--------------------------------*- C++ -*----------------------------------*\
| =========                 |                                                 |
| \\      /  F ield         | OpenFOAM: The Open Source CFD Toolbox           |
|  \\    /   O peration     | Version:  v2012                                 |
|   \\  /    A nd           | Website:  www.openfoam.com                      |
|    \\/     M anipulation  |                                                 |
\*---------------------------------------------------------------------------*/
FoamFile
{
    version     2.0;
    format      ascii;
    class       surfaceScalarField;
    location    "620/topAir";
    object      phi;
}
// * * * * * * * * * * * * * * * * * * * * * * * * * * * * * * * * * * * * * //

dimensions      [1 0 -1 0 0 0 0];
oriented        oriented;


internalField   nonuniform List<scalar> 
3140
(
9.5048027e-06
-3.0741232e-07
7.158614e-08
9.6920824e-06
-2.6821296e-07
8.0936363e-08
9.8706098e-06
-2.479942e-07
6.9474336e-08
1.0014551e-05
-1.9517995e-07
5.1247236e-08
1.0117894e-05
-1.3104952e-07
2.7713401e-08
1.0190876e-05
-7.2188787e-08
-7.8876261e-10
1.0268638e-05
-2.5065622e-08
-5.2697494e-08
1.0372063e-05
1.8025411e-08
-1.2146446e-07
1.0511422e-05
8.2059678e-08
-2.214452e-07
1.0708869e-05
1.6732541e-07
-3.648098e-07
1.0958966e-05
3.1656762e-07
-5.6670913e-07
1.1233641e-05
5.6495289e-07
-8.3967887e-07
1.1480378e-05
9.3989594e-07
-1.1866767e-06
1.1711663e-05
1.3767243e-06
-1.6080215e-06
1.189509e-05
1.8675237e-06
-2.0509163e-06
1.2010728e-05
2.3493109e-06
-2.4648833e-06
1.2042975e-05
2.7788147e-06
-2.8110055e-06
1.1989846e-05
3.1278805e-06
-3.0747525e-06
1.1871895e-05
3.37756e-06
-3.2596919e-06
1.1727881e-05
3.5204108e-06
-3.3765591e-06
1.1596718e-05
3.5677029e-06
-3.4367599e-06
1.1504374e-05
3.5424195e-06
-3.4503324e-06
1.1461877e-05
3.4671121e-06
-3.4249097e-06
1.1467421e-05
3.3591411e-06
-3.365065e-06
1.1504933e-05
3.2330353e-06
-3.2710954e-06
1.1533276e-05
3.1069556e-06
-3.1361149e-06
1.1463797e-05
3.0114445e-06
-2.943115e-06
1.111822e-05
3.0068679e-06
-2.6627226e-06
1.0134676e-05
3.2294227e-06
-2.2473334e-06
4.0017443e-06
-1.6330064e-06
9.1125001e-06
-2.2968062e-07
7.8737193e-08
9.0858034e-06
-3.4340388e-07
1.0188747e-07
9.092316e-06
-3.6164239e-07
1.0713557e-07
9.1456141e-06
-3.5611021e-07
1.0763126e-07
9.24426e-06
-3.3253951e-07
1.0284147e-07
9.3825838e-06
-3.011439e-07
9.0626456e-08
9.564006e-06
-2.7519392e-07
6.8700094e-08
9.8053182e-06
-2.5766693e-07
3.4430155e-08
1.0132268e-05
-2.2676275e-07
-1.8091425e-08
1.0574273e-05
-1.6503851e-07
-1.097092e-07
1.1156059e-05
-2.122692e-08
-2.4418589e-07
1.1861907e-05
2.9555737e-07
-4.3666142e-07
1.2600881e-05
8.994049e-07
-6.9855756e-07
1.3256234e-05
1.7254928e-06
-1.0040328e-06
1.3752989e-05
2.6679538e-06
-1.2970403e-06
1.4027723e-05
3.5946064e-06
-1.5199855e-06
1.4066287e-05
4.395515e-06
-1.6554374e-06
1.3909425e-05
5.024484e-06
-1.7401478e-06
1.3634807e-05
5.4691237e-06
-1.8175099e-06
1.3331456e-05
5.7326985e-06
-1.9095564e-06
1.3060487e-05
5.8370503e-06
-1.9989941e-06
1.2847552e-05
5.8169393e-06
-2.0621877e-06
1.2696485e-05
5.7033542e-06
-2.085813e-06
1.2599185e-05
5.5173945e-06
-2.0617172e-06
1.2536716e-05
5.2735334e-06
-1.9790257e-06
1.2466938e-05
4.9932553e-06
-1.817859e-06
1.2304496e-05
4.720295e-06
-1.5482071e-06
1.1892295e-05
4.5501514e-06
-1.1334417e-06
1.0982101e-05
4.6753019e-06
-5.3844977e-07
5.312419e-06
3.2684563e-07
9.1690325e-06
-2.105385e-07
8.0785871e-08
8.9997038e-06
-2.8011209e-07
1.060364e-07
8.8169854e-06
-2.9334622e-07
1.1442157e-07
8.6332742e-06
-2.9259153e-07
1.2019195e-07
8.4610673e-06
-2.8474183e-07
1.2440824e-07
8.3056067e-06
-2.7228543e-07
1.2660083e-07
8.1635999e-06
-2.6076065e-07
1.2757138e-07
8.0322303e-06
-2.5596816e-07
1.2966828e-07
7.9293762e-06
-2.6011062e-07
1.3619604e-07
7.8986837e-06
-2.8049005e-07
1.461307e-07
8.056199e-06
-3.3118162e-07
1.5242163e-07
8.5627918e-06
-3.4351574e-07
1.3257722e-07
9.4623429e-06
-6.8827168e-08
6.9237809e-08
1.0662695e-05
5.3850835e-07
-1.2490188e-08
1.1753187e-05
1.6170527e-06
-3.8543409e-08
1.255666e-05
2.7304709e-06
6.1662587e-08
1.2982464e-05
3.6004421e-06
3.6998103e-07
1.3093387e-05
4.2325289e-06
6.8133748e-07
1.3003885e-05
4.6564548e-06
9.0209748e-07
1.2840911e-05
4.8987984e-06
9.9654908e-07
1.2683625e-05
4.9796158e-06
1.0142831e-06
1.2550619e-05
4.9218467e-06
1.027662e-06
1.2434454e-05
4.7615826e-06
1.0575654e-06
1.2321166e-05
4.5330962e-06
1.0973011e-06
1.2201121e-05
4.2632009e-06
1.1301732e-06
1.2052718e-05
3.970524e-06
1.171003e-06
1.1840771e-05
3.6892836e-06
1.2428889e-06
1.1521602e-05
3.4983916e-06
1.3709392e-06
1.099975e-05
3.5833626e-06
1.6140243e-06
4.3177214e-06
1.9601126e-06
8.979511e-06
7.8902831e-08
8.5964595e-06
1.0293897e-07
8.1929141e-06
1.1019885e-07
7.7860324e-06
1.1428967e-07
7.3846758e-06
1.1661439e-07
6.9952615e-06
1.1712822e-07
6.617466e-06
1.1703423e-07
6.2428332e-06
1.1866349e-07
5.8569634e-06
1.2575747e-07
5.4330947e-06
1.4337539e-07
4.9185045e-06
1.8340434e-07
4.3093588e-06
2.6562967e-07
3.8307177e-06
4.0984036e-07
3.7611236e-06
6.08549e-07
4.4416712e-06
9.3709599e-07
5.5874446e-06
1.585148e-06
6.5815442e-06
2.6065563e-06
7.3560929e-06
3.4578506e-06
7.9734296e-06
4.0386618e-06
8.5023289e-06
4.3692542e-06
8.9703331e-06
4.5109558e-06
9.3781111e-06
4.5135324e-06
9.7036559e-06
4.4356949e-06
9.9322646e-06
4.304368e-06
1.0053885e-05
4.1416913e-06
1.0081314e-05
3.9434348e-06
1.0049251e-05
3.721924e-06
1.0068079e-05
3.4804178e-06
1.0441539e-05
3.2111583e-06
2.7664356e-06
9.6167141e-06
-3.0715874e-07
3.1007524e-08
9.9193684e-06
-2.6947968e-07
4.7763263e-08
1.020136e-05
-2.6198656e-07
4.9473577e-08
1.0436001e-05
-2.2681827e-07
4.3428423e-08
1.0616884e-05
-1.8481701e-07
3.1649408e-08
1.0756782e-05
-1.5305651e-07
1.2372293e-08
1.0857766e-05
-1.3975267e-07
-1.393107e-08
1.0930974e-05
-1.4774216e-07
-4.6936582e-08
1.0985596e-05
-1.8286587e-07
-9.3201312e-08
1.1030492e-05
-2.5256048e-07
-1.5713292e-07
1.1075229e-05
-3.672383e-07
-2.44171e-07
1.1132059e-05
-5.3792711e-07
-3.5849111e-07
1.1221198e-05
-7.7671293e-07
-4.9889504e-07
1.1425216e-05
-1.1499721e-06
-6.6164567e-07
1.1738345e-05
-1.5474008e-06
-8.1600718e-07
1.2110127e-05
-1.8845852e-06
-9.513814e-07
1.2447436e-05
-2.0622533e-06
-1.0855125e-06
1.267292e-05
-2.0627843e-06
-1.2371944e-06
1.2763906e-05
-1.9459162e-06
-1.4047979e-06
1.2753845e-05
-1.7960096e-06
-1.5707166e-06
1.2694103e-05
-1.6641083e-06
-1.7132216e-06
1.2626538e-05
-1.560125e-06
-1.8229703e-06
1.2576064e-05
-1.4801427e-06
-1.8946777e-06
1.2556361e-05
-1.4208678e-06
-1.9251278e-06
1.2577539e-05
-1.380113e-06
-1.9133476e-06
1.2640469e-05
-1.344646e-06
-1.8565042e-06
1.2724036e-05
-1.2872211e-06
-1.7428012e-06
1.2766614e-05
-1.1464315e-06
-1.5634997e-06
1.2633415e-05
-7.7849395e-07
-1.3409747e-06
2.7788281e-07
-1.1075915e-06
9.2373395e-06
-2.3125363e-07
3.4461492e-08
9.3576832e-06
-3.4753914e-07
5.9602925e-08
9.5046462e-06
-3.7108104e-07
6.9266659e-08
9.6916325e-06
-3.7626708e-07
7.0092653e-08
9.9146809e-06
-3.6971904e-07
6.4692652e-08
1.0161689e-05
-3.6134911e-07
5.1906813e-08
1.0424115e-05
-3.6301785e-07
2.953473e-08
1.0700093e-05
-3.8485545e-07
-4.4390977e-09
1.0994575e-05
-4.3784762e-07
-5.7593569e-08
1.1306129e-05
-5.4176552e-07
-1.3205738e-07
1.1647653e-05
-7.1731949e-07
-2.3561878e-07
1.2037875e-05
-9.9326669e-07
-3.7150401e-07
1.2503877e-05
-1.4079972e-06
-5.3316598e-07
1.3027534e-05
-1.9858144e-06
-6.9163768e-07
1.3589328e-05
-2.5887762e-06
-8.1723256e-07
1.4089866e-05
-2.967327e-06
-9.3772013e-07
1.4425252e-05
-2.9422109e-06
-1.1110816e-06
1.4548618e-05
-2.5859111e-06
-1.3408558e-06
1.4482654e-05
-2.1046157e-06
-1.5934589e-06
1.4309173e-05
-1.6988635e-06
-1.8338774e-06
1.4102508e-05
-1.4205364e-06
-2.0365933e-06
1.3883738e-05
-1.2200303e-06
-2.1842598e-06
1.3656896e-05
-1.0803493e-06
-2.2595973e-06
1.3433967e-05
-1.0088381e-06
-2.2517334e-06
1.3252697e-05
-1.0221877e-06
-2.1565737e-06
1.3173013e-05
-1.1127628e-06
-1.9707155e-06
1.3288077e-05
-1.2685175e-06
-1.6821703e-06
1.3827135e-05
-1.4952909e-06
-1.3233613e-06
1.5492131e-05
-1.8445051e-06
-1.1372379e-06
-2.0652022e-06
-1.29866e-06
9.296318e-06
-2.1294429e-07
3.5118996e-08
9.2772614e-06
-2.8387462e-07
6.1428017e-08
9.2464191e-06
-2.9900209e-07
7.3184219e-08
9.2159654e-06
-3.0251583e-07
7.6893869e-08
9.196693e-06
-3.01465e-07
7.5425709e-08
9.1919952e-06
-2.9824307e-07
6.819141e-08
9.2014822e-06
-2.9887127e-07
5.3936086e-08
9.2247702e-06
-3.1051759e-07
3.2039754e-08
9.2603308e-06
-3.4181537e-07
4.5987943e-09
9.3208874e-06
-4.0785972e-07
-4.8338201e-08
9.4154591e-06
-5.3771697e-07
-1.2176165e-07
9.5588784e-06
-7.7647304e-07
-2.2764476e-07
9.7730734e-06
-1.1883638e-06
-3.6460325e-07
1.0074887e-05
-1.809044e-06
-4.9111168e-07
1.0410168e-05
-2.4279262e-06
-5.3499437e-07
1.069308e-05
-2.7009094e-06
-4.8855306e-07
1.0946679e-05
-2.4318613e-06
-3.9530926e-07
1.1080547e-05
-1.7632729e-06
-2.7669483e-07
1.1094198e-05
-9.9320899e-07
-2.2429168e-07
1.1008675e-05
-3.1176151e-07
-3.0570222e-07
1.0908316e-05
7.4460954e-08
-3.8078158e-07
1.0832052e-05
2.3666344e-07
-3.5274701e-07
1.0761183e-05
2.6110508e-07
-2.1241467e-07
1.0705101e-05
2.0273142e-07
-5.7143226e-08
1.0617594e-05
4.995742e-08
1.4680934e-07
1.0487911e-05
-1.695443e-07
3.5910949e-07
1.0379722e-05
-5.1035883e-07
5.9468986e-07
1.0421175e-05
-8.7189907e-07
7.0742044e-07
1.1092415e-05
-1.2197773e-06
3.1848399e-07
-1.4516468e-06
-7.2929041e-07
9.100798e-06
3.4112841e-08
8.8606195e-06
5.9242411e-08
8.6017137e-06
7.0102158e-08
8.3404697e-06
7.3017436e-08
8.0848986e-06
7.0720073e-08
7.8411278e-06
6.2655394e-08
7.6115764e-06
4.7713755e-08
7.3943519e-06
2.53695e-08
7.1820726e-06
-3.7800633e-09
6.977166e-06
-5.9580246e-08
6.7579468e-06
-1.3509709e-07
6.4974059e-06
-2.5030819e-07
6.1645136e-06
-4.4565331e-07
5.734904e-06
-7.7113526e-07
5.3025819e-06
-1.0596979e-06
5.0518308e-06
-8.6682502e-07
5.0247763e-06
1.9996405e-07
5.0365234e-06
1.6809217e-06
5.1358389e-06
2.9441164e-06
5.4767409e-06
3.7147993e-06
5.9401439e-06
4.121024e-06
6.4048157e-06
4.2849506e-06
6.7964111e-06
4.3049039e-06
7.0922404e-06
4.2111762e-06
7.2855323e-06
3.9985129e-06
7.4238415e-06
3.6357104e-06
7.5029895e-06
3.1326434e-06
7.6404467e-06
2.4713959e-06
8.5446825e-06
1.0874776e-06
-9.2181494e-07
9.5939997e-06
-3.091695e-07
1.5154336e-08
9.8871841e-06
-2.7022629e-07
2.4807967e-08
1.016791e-05
-2.5923592e-07
2.7989404e-08
1.0404346e-05
-2.1969079e-07
2.6690765e-08
1.0586808e-05
-1.732553e-07
2.2448902e-08
1.0720376e-05
-1.3699064e-07
1.5798516e-08
1.0814403e-05
-1.14704e-07
6.7536097e-09
1.0878781e-05
-1.0632003e-07
-4.9821079e-09
1.0918818e-05
-1.1458063e-07
-1.8637188e-08
1.0941777e-05
-1.4511745e-07
-3.4924011e-08
1.0958026e-05
-2.082342e-07
-5.2068111e-08
1.098632e-05
-3.2112669e-07
-6.5403317e-08
1.1060755e-05
-5.0941035e-07
-6.3423894e-08
1.1272822e-05
-8.4101454e-07
-3.1924697e-08
1.1561259e-05
-1.1592768e-06
5.5645967e-08
1.1821848e-05
-1.3976282e-06
1.8618267e-07
1.2001487e-05
-1.5694768e-06
3.0434585e-07
1.2098845e-05
-1.7298525e-06
3.9476151e-07
1.2125526e-05
-1.8918529e-06
4.5936283e-07
1.2097018e-05
-2.0536439e-06
5.1011927e-07
1.2039938e-05
-2.2186084e-06
5.6099558e-07
1.1973039e-05
-2.3791632e-06
6.2147948e-07
1.1900098e-05
-2.5162666e-06
6.9259528e-07
1.1818113e-05
-2.6131791e-06
7.6745824e-07
1.1731221e-05
-2.6678866e-06
8.3787465e-07
1.1668185e-05
-2.6985636e-06
9.0034872e-07
1.1693519e-05
-2.7181129e-06
9.4402245e-07
1.1900683e-05
-2.6838433e-06
9.0615014e-07
1.2191648e-05
-2.2565197e-06
6.1650218e-07
-9.8854805e-07
-5.0083758e-08
9.2091649e-06
-2.311661e-07
1.6262172e-08
9.3163992e-06
-3.4680528e-07
2.8947412e-08
9.4601499e-06
-3.6831922e-07
3.4599213e-08
9.646464e-06
-3.7000004e-07
3.4087309e-08
9.8679424e-06
-3.5846427e-07
2.8421529e-08
1.010908e-05
-3.4336336e-07
1.7138783e-08
1.0360488e-05
-3.3479873e-07
-1.7831961e-09
1.0617817e-05
-3.4035159e-07
-2.7741162e-08
1.0880396e-05
-3.6919746e-07
-6.5555703e-08
1.1153591e-05
-4.3386478e-07
-1.1648719e-07
1.1452126e-05
-5.6148614e-07
-1.8084109e-07
1.1808982e-05
-7.9740567e-07
-2.5193182e-07
1.2279143e-05
-1.2059946e-06
-3.0644605e-07
1.2812105e-05
-1.7656691e-06
-2.9957598e-07
1.3266439e-05
-2.1815517e-06
-2.4915458e-07
1.3489964e-05
-2.3072744e-06
-2.518152e-07
1.3476414e-05
-2.308813e-06
-3.5871011e-07
1.3311063e-05
-2.3470201e-06
-5.5907385e-07
1.3030585e-05
-2.3850748e-06
-8.2063093e-07
1.2666962e-05
-2.4285647e-06
-1.0962659e-06
1.2250352e-05
-2.5093175e-06
-1.3302649e-06
1.1790515e-05
-2.6174683e-06
-1.4872508e-06
1.1285544e-05
-2.7147965e-06
-1.5574753e-06
1.073708e-05
-2.7710856e-06
-1.5469639e-06
1.0163342e-05
-2.8016999e-06
-1.4505212e-06
9.6405357e-06
-2.8873093e-06
-1.2599997e-06
9.4104154e-06
-3.1141978e-06
-1.0557869e-06
9.9155301e-06
-3.4883496e-06
-1.0232046e-06
1.1561319e-05
-3.559125e-06
-1.4797932e-06
-2.8577408e-06
-2.3575555e-06
9.269127e-06
-2.1266689e-07
1.6453281e-08
9.23763e-06
-2.8331277e-07
2.9431984e-08
9.2041549e-06
-2.9742102e-07
3.5760543e-08
9.174501e-06
-2.9943891e-07
3.5986043e-08
9.1570941e-06
-2.963937e-07
3.0761296e-08
9.1531011e-06
-2.9039919e-07
1.9219274e-08
9.1601068e-06
-2.867216e-07
-1.1480997e-09
9.1743944e-06
-2.9163441e-07
-3.0966769e-08
9.1984276e-06
-3.1242265e-07
-7.6211275e-08
9.223149e-06
-3.6431821e-07
-1.4260763e-07
9.2514143e-06
-4.7739654e-07
-2.3411422e-07
9.2927505e-06
-7.1460306e-07
-3.5176976e-07
9.3990676e-06
-1.2004603e-06
-4.7644406e-07
9.5703961e-06
-1.9069345e-06
-5.2155436e-07
9.5013977e-06
-2.2082701e-06
-4.4064713e-07
9.0695516e-06
-1.9424709e-06
-4.2330767e-07
8.4595339e-06
-1.5323479e-06
-5.6338095e-07
8.0201414e-06
-1.4258633e-06
-7.5989797e-07
7.5839338e-06
-1.1456787e-06
-1.0286925e-06
7.0668953e-06
-8.9828191e-07
-1.3199491e-06
6.4792152e-06
-7.8229701e-07
-1.521204e-06
5.8627135e-06
-7.9721214e-07
-1.5580681e-06
5.2688855e-06
-8.9805674e-07
-1.4376103e-06
4.7290843e-06
-1.0641793e-06
-1.2270594e-06
4.2993432e-06
-1.2915033e-06
-9.3615983e-07
4.0464318e-06
-1.6420536e-06
-6.3436845e-07
4.2260968e-06
-2.1417944e-06
-5.5659171e-07
4.9967705e-06
-2.8039819e-06
-7.4486114e-07
6.3522981e-06
-2.9347649e-06
-1.655411e-06
-2.0186256e-06
-3.2722298e-06
9.0743486e-06
1.604958e-08
8.8217611e-06
2.8516785e-08
8.5600609e-06
3.4380895e-08
8.2994687e-06
3.4170353e-08
8.0453507e-06
2.8443968e-08
7.8014771e-06
1.6129279e-08
7.5675583e-06
-5.0896375e-09
7.3388129e-06
-3.7520322e-08
7.1113081e-06
-8.8699021e-08
6.8573579e-06
-1.6995021e-07
6.5426028e-06
-2.9774151e-07
6.0861953e-06
-5.0851488e-07
5.3203956e-06
-8.8046418e-07
4.1115396e-06
-1.4711872e-06
2.7295381e-06
-1.891787e-06
1.6629768e-06
-1.7480121e-06
1.6219095e-06
-1.2955114e-06
1.8126214e-06
6.0867362e-08
2.1026765e-06
1.5046869e-06
2.5049416e-06
2.4111461e-06
2.9615318e-06
2.8801767e-06
3.3719356e-06
3.0762326e-06
3.6647345e-06
3.1134778e-06
3.7670825e-06
3.0443606e-06
3.6351067e-06
2.8388836e-06
3.3615062e-06
2.2673059e-06
3.0855892e-06
1.2669282e-06
2.9020945e-06
-1.4741403e-07
2.9058138e-06
-1.8443952e-06
-4.2951965e-06
9.5883258e-06
-3.0942439e-07
5.2302599e-09
9.8738557e-06
-2.697335e-07
9.0146288e-09
1.0148349e-05
-2.5696318e-07
1.046633e-08
1.0379564e-05
-2.1441811e-07
9.9029934e-09
1.0557259e-05
-1.6299959e-07
7.763673e-09
1.0687557e-05
-1.187458e-07
4.2569636e-09
1.0779421e-05
-8.4825954e-08
-2.7619063e-10
1.0841817e-05
-6.014797e-08
-7.2112651e-09
1.0883281e-05
-4.466384e-08
-1.5392498e-08
1.0915212e-05
-4.1699445e-08
-2.5062559e-08
1.095888e-05
-6.0718674e-08
-3.4827843e-08
1.1056652e-05
-1.228583e-07
-3.9942321e-08
1.1274561e-05
-2.5286432e-07
-2.7820284e-08
1.164573e-05
-4.2077087e-07
1.8359879e-08
1.2010404e-05
-3.9839119e-07
8.9667846e-08
1.2267366e-05
-2.395455e-07
1.6852842e-07
1.2416248e-05
-9.7990568e-08
2.5277441e-07
1.2507805e-05
-4.9557786e-08
3.518057e-07
1.2573276e-05
-8.0243305e-08
4.7299683e-07
1.2632111e-05
-1.737811e-07
6.2388462e-07
1.2694766e-05
-3.0991877e-07
8.0721358e-07
1.2753671e-05
-4.6332378e-07
1.0250755e-06
1.2794486e-05
-6.212826e-07
1.2723399e-06
1.2813935e-05
-7.8420038e-07
1.5312154e-06
1.2824074e-05
-9.4306697e-07
1.7690583e-06
1.2820144e-05
-1.0377664e-06
1.9392091e-06
1.2701415e-05
-9.2278605e-07
1.9818491e-06
1.2256961e-05
-4.8401414e-07
1.8306836e-06
1.0985665e-05
4.9138504e-07
1.3955535e-06
2.6561546e-06
6.6100491e-07
9.2014839e-06
-2.3100346e-07
5.326332e-09
9.297004e-06
-3.4626141e-07
9.954977e-09
9.4294584e-06
-3.667133e-07
1.1895168e-08
9.6045326e-06
-3.6625274e-07
1.0847707e-08
9.8138035e-06
-3.5079399e-07
6.9443384e-09
1.0040814e-05
-3.2907474e-07
4.5477887e-10
1.0275475e-05
-3.0995027e-07
-1.132086e-08
1.0514337e-05
-2.9953043e-07
-2.7218605e-08
1.0758575e-05
-3.0537413e-07
-4.9070977e-08
1.1020616e-05
-3.4275362e-07
-7.7435368e-08
1.133416e-05
-4.4519598e-07
-1.09811e-07
1.1773094e-05
-6.7705679e-07
-1.3644613e-07
1.2453638e-05
-1.1050977e-06
-1.3437191e-07
1.3233623e-05
-1.4252734e-06
-7.486149e-08
1.3840002e-05
-1.2391522e-06
-1.4922356e-08
1.4224368e-05
-8.8204088e-07
5.9480208e-09
1.4438222e-05
-6.5106666e-07
-2.0003947e-08
1.4519157e-05
-6.1861803e-07
-7.1578988e-08
1.4482392e-05
-7.2186599e-07
-1.4295677e-07
1.435508e-05
-9.1131897e-07
-2.3216245e-07
1.4141838e-05
-1.1149429e-06
-3.1274451e-07
1.3828793e-05
-1.2904884e-06
-3.4782948e-07
1.3401168e-05
-1.4330454e-06
-3.190561e-07
1.2877097e-05
-1.5731989e-06
-2.3517136e-07
1.2352152e-05
-1.7383293e-06
-1.3169467e-07
1.2011522e-05
-1.8930402e-06
-6.4939666e-08
1.1941896e-05
-1.7409278e-06
-1.6703075e-07
1.1963595e-05
-1.0259733e-06
-4.9871295e-07
1.1791279e-05
2.551801e-07
-1.074223e-06
2.0276262e-06
-1.8448699e-06
9.2617801e-06
-2.1266654e-07
5.2967371e-09
9.2183863e-06
-2.8334844e-07
9.9122814e-09
9.1726576e-06
-2.9712773e-07
1.1903145e-08
9.1298931e-06
-2.9829805e-07
1.0795326e-08
9.0971135e-06
-2.9374081e-07
6.4869986e-09
9.0738252e-06
-2.8533882e-07
-1.2291791e-09
9.0563584e-06
-2.7792964e-07
-1.570308e-08
9.0400132e-06
-2.7761025e-07
-3.6543e-08
9.018894e-06
-2.9319199e-07
-6.7275268e-08
8.9885635e-06
-3.4339739e-07
-1.1163224e-07
8.9546278e-06
-4.7264703e-07
-1.7271933e-07
8.9624116e-06
-7.9173388e-07
-2.4485189e-07
9.2062916e-06
-1.5298764e-06
-2.9560328e-07
9.5962209e-06
-2.0926002e-06
-2.4549218e-07
9.5472692e-06
-1.4678191e-06
-1.645135e-07
9.1362976e-06
-7.0991042e-07
-1.8517483e-07
8.5890929e-06
-3.9237682e-07
-2.7492036e-07
7.9352273e-06
-2.801519e-07
-4.4437937e-07
7.2609545e-06
-4.1277048e-07
-6.6354866e-07
6.5536008e-06
-6.0119174e-07
-9.2316864e-07
5.8322543e-06
-7.9186645e-07
-1.1240711e-06
5.1213684e-06
-9.8643703e-07
-1.1533476e-06
4.4262839e-06
-1.1652843e-06
-1.013636e-06
3.7896645e-06
-1.3378102e-06
-8.3036214e-07
3.3562571e-06
-1.5983525e-06
-6.4764591e-07
3.4431676e-06
-2.0284048e-06
-5.8985586e-07
4.2281041e-06
-2.1229845e-06
-9.6148688e-07
5.2879016e-06
-1.2003501e-06
-1.6287092e-06
5.9915546e-06
2.8266669e-07
-2.3816916e-06
1.6611283e-06
-3.0882976e-06
9.0672207e-06
5.1146359e-09
8.8029273e-06
9.4613442e-09
8.5290221e-06
1.1157973e-08
8.255177e-06
9.7169208e-09
7.9848533e-06
5.0265299e-09
7.719571e-06
-3.9277534e-09
7.456291e-06
-1.9739762e-08
7.1850378e-06
-4.3878152e-08
6.884994e-06
-8.1848221e-08
6.5148042e-06
-1.4315947e-07
5.9904539e-06
-2.4604166e-07
5.1217604e-06
-4.3158503e-07
3.5209214e-06
-8.1003738e-07
1.3623606e-06
-1.4121218e-06
-6.3972858e-07
-1.3680929e-06
-2.0235978e-06
-1.0755656e-06
-2.9150863e-06
-7.9709282e-07
-2.8170433e-06
-3.1800599e-07
-2.1388243e-06
4.1084174e-07
-1.3627881e-06
1.0311611e-06
-6.9583584e-07
1.4194947e-06
-2.3467967e-07
1.6276425e-06
-1.938901e-08
1.7323717e-06
-9.7737431e-08
1.785566e-06
-5.7717696e-07
1.7221528e-06
-1.3094277e-06
9.7499023e-07
-1.8214087e-06
-3.3633032e-07
-1.284168e-06
-1.8698989e-06
1.5085757e-07
-2.9842463e-06
-3.7490782e-06
9.585213e-06
-3.0989582e-07
-1.1100374e-09
9.8665673e-06
-2.7038011e-07
-1.9576509e-09
1.0137226e-05
-2.5756691e-07
-2.6196004e-09
1.0365109e-05
-2.1478602e-07
-3.1848767e-09
1.0539579e-05
-1.6296563e-07
-3.7288245e-09
1.0666417e-05
-1.1823875e-07
-4.3277977e-09
1.0754829e-05
-8.3601505e-08
-5.0663098e-09
1.0812585e-05
-5.8820048e-08
-6.1189591e-09
1.08494e-05
-4.4729883e-08
-7.4344034e-09
1.0880151e-05
-4.6684334e-08
-9.0494734e-09
1.0936235e-05
-7.9257042e-08
-1.1482749e-08
1.108312e-05
-1.7103184e-07
-1.542713e-08
1.140621e-05
-3.2799259e-07
-2.2357544e-08
1.1851292e-05
-3.9272115e-07
-3.3773549e-08
1.2226174e-05
-2.38835e-07
-4.671764e-08
1.2495964e-05
-4.2350333e-08
-5.9705067e-08
1.269733e-05
1.2699097e-07
-7.6276245e-08
1.2863645e-05
2.8509018e-07
-1.0021111e-07
1.3031115e-05
4.3980195e-07
-1.3482159e-07
1.322357e-05
6.124555e-07
-1.8151661e-07
1.3437603e-05
8.2960331e-07
-2.3685297e-07
1.3637571e-05
1.1153934e-06
-2.9064332e-07
1.3778161e-05
1.4622771e-06
-3.3080525e-07
1.3820118e-05
1.8404955e-06
-3.514601e-07
1.3727987e-05
2.2126462e-06
-3.516701e-07
1.3425467e-05
2.5759863e-06
-3.3448133e-07
1.2750415e-05
2.9571452e-06
-3.0038533e-07
1.143697e-05
3.3871699e-06
-2.4289592e-07
9.0555345e-06
3.9342659e-06
-1.5641836e-07
4.9799189e-06
-6.4906233e-08
9.1969822e-06
-2.3115874e-07
-1.4240081e-09
9.2859776e-06
-3.4658085e-07
-2.8398188e-09
9.4115051e-06
-3.6703461e-07
-4.1642968e-09
9.5794119e-06
-3.664087e-07
-5.435801e-09
9.7807024e-06
-3.5058174e-07
-6.7289168e-09
9.9993055e-06
-3.2824596e-07
-8.1387634e-09
1.0222895e-05
-3.0857094e-07
-9.9383232e-09
1.044731e-05
-2.9845888e-07
-1.1988973e-08
1.067558e-05
-3.0757405e-07
-1.4484056e-08
1.0926274e-05
-3.5678153e-07
-1.7993736e-08
1.1253349e-05
-4.9264302e-07
-2.3396297e-08
1.1778793e-05
-8.0027718e-07
-3.240259e-08
1.2652307e-05
-1.2875572e-06
-4.7996432e-08
1.3421659e-05
-1.1697035e-06
-6.7274731e-08
1.3981255e-05
-7.3441579e-07
-7.9183844e-08
1.4414826e-05
-3.8631634e-07
-8.4025695e-08
1.4757781e-05
-1.4549681e-07
-9.1976538e-08
1.5014354e-05
5.8750202e-08
-1.0426332e-07
1.5239575e-05
1.9493885e-07
-1.2688645e-07
1.5483907e-05
2.9413612e-07
-1.6282829e-07
1.5756018e-05
4.3861727e-07
-1.9918364e-07
1.5984087e-05
7.5076524e-07
-2.1660642e-07
1.6122399e-05
1.216183e-06
-2.1604903e-07
1.6127381e-05
1.795977e-06
-1.9949047e-07
1.5981126e-05
2.3967969e-06
-1.7246147e-07
1.5569102e-05
3.0632213e-06
-1.4213427e-07
1.4656648e-05
3.8049697e-06
-1.0355767e-07
1.2982555e-05
4.5909321e-06
-2.8632998e-08
1.0225965e-05
5.5276846e-06
8.9597685e-08
6.8473118e-06
2.3206541e-07
9.2572649e-06
-2.1272154e-07
-1.4448176e-09
9.2069907e-06
-2.8350857e-07
-2.8864028e-09
9.1534384e-06
-2.9730005e-07
-4.2796339e-09
9.1018785e-06
-2.9838175e-07
-5.6721655e-09
9.0586001e-06
-2.936652e-07
-7.1516638e-09
9.0229363e-06
-2.8496812e-07
-8.8437381e-09
8.9874019e-06
-2.7772245e-07
-1.1017708e-08
8.9445047e-06
-2.7868763e-07
-1.3417604e-08
8.885222e-06
-2.9914483e-07
-1.64219e-08
8.8021361e-06
-3.6461105e-07
-2.07139e-08
8.7049703e-06
-5.4067457e-07
-2.7509828e-08
8.7059943e-06
-1.0063134e-06
-3.9816193e-08
9.2969866e-06
-2.1079905e-06
-6.6469085e-08
9.514565e-06
-1.5343347e-06
-9.9695505e-08
9.3318019e-06
-6.1632264e-07
-1.0015738e-07
9.1077333e-06
-2.5255695e-07
-9.4519253e-08
8.7733695e-06
1.5695525e-08
-1.0152409e-07
8.374652e-06
1.3565289e-07
-1.2288332e-07
8.0098203e-06
5.4731936e-08
-1.5962484e-07
7.6702164e-06
-9.9596799e-08
-1.9141136e-07
7.514901e-06
-3.432511e-07
-1.8888505e-07
7.7686242e-06
-5.0852894e-07
-1.5036781e-07
8.5069609e-06
-4.7744736e-07
-6.2005881e-08
9.4915916e-06
-7.4986994e-08
5.096928e-08
1.0555135e-05
4.4494295e-07
2.3460756e-07
1.1308216e-05
1.3375639e-06
3.7677455e-07
1.1321948e-05
2.3756253e-06
4.4920941e-07
1.0474689e-05
3.2627224e-06
5.4349369e-07
8.5699054e-06
4.3860209e-06
6.6360518e-07
5.8864319e-06
7.570689e-07
9.0627585e-06
-1.4131865e-09
8.7915236e-06
-2.8126987e-09
8.5095441e-06
-4.1629628e-09
8.2263938e-06
-5.5149639e-09
7.9447224e-06
-6.9676172e-09
7.6645252e-06
-8.6991875e-09
7.3779446e-06
-1.0882074e-08
7.0685119e-06
-1.3133768e-08
6.7034827e-06
-1.5964634e-08
6.2154835e-06
-1.9772774e-08
5.4539981e-06
-2.5236555e-08
4.0499541e-06
-3.3940137e-08
1.1822661e-06
-5.1953768e-08
-1.6939676e-06
-8.7964532e-08
-3.6243901e-06
-5.6503484e-08
-4.9771202e-06
2.3251509e-08
-5.8431361e-06
8.3148183e-08
-6.1668708e-06
1.3902067e-07
-5.9065687e-06
2.02426e-07
-5.246896e-06
2.6780351e-07
-4.4973446e-06
3.2261828e-07
-3.7859726e-06
4.0395764e-07
-3.0494594e-06
5.149236e-07
-1.952626e-06
6.1056454e-07
-4.4712214e-07
6.5875697e-07
1.1245723e-06
7.386069e-07
2.0741401e-06
1.088692e-06
2.2045722e-06
1.2655047e-06
2.2635233e-06
1.3508166e-06
1.3351644e-06
9.5851419e-06
-3.099181e-07
-7.3570529e-09
9.8663585e-06
-2.7038431e-07
-1.2788512e-08
1.0136816e-05
-2.5753351e-07
-1.5537914e-08
1.0364434e-05
-2.1469126e-07
-1.6100407e-08
1.0538572e-05
-1.6279154e-07
-1.5059012e-08
1.0664966e-05
-1.1798629e-07
-1.2714144e-08
1.0752506e-05
-8.3454755e-08
-9.1277537e-09
1.0809444e-05
-5.8585169e-08
-4.4547993e-09
1.0845451e-05
-4.4184334e-08
7.4381027e-10
1.087432e-05
-4.5654916e-08
7.6840021e-09
1.0926392e-05
-7.6962078e-08
1.3225197e-08
1.1064404e-05
-1.6628627e-07
1.2409458e-08
1.1375168e-05
-3.2607282e-07
-7.7783418e-09
1.1815247e-05
-4.0843065e-07
-6.5779215e-08
1.2187826e-05
-2.657082e-07
-1.5321811e-07
1.2440944e-05
-6.5861699e-08
-2.4600539e-07
1.2608032e-05
9.8637003e-08
-3.4115746e-07
1.2723483e-05
2.3324919e-07
-4.481835e-07
1.2828202e-05
3.3447621e-07
-5.7343355e-07
1.2960972e-05
4.0550946e-07
-7.1941708e-07
1.3144605e-05
4.6839678e-07
-8.8878664e-07
1.3359078e-05
5.8050003e-07
-1.0858859e-06
1.3548038e-05
7.9042633e-07
-1.3108659e-06
1.3661083e-05
1.0838317e-06
-1.5493928e-06
1.3646289e-05
1.4318878e-06
-1.770115e-06
1.3427652e-05
1.8077509e-06
-1.925101e-06
1.2861067e-05
2.2127081e-06
-1.9478955e-06
1.1685581e-05
2.7116441e-06
-1.7799145e-06
9.4826821e-06
3.4160237e-06
-1.3694531e-06
4.7386012e-06
-6.3879724e-07
9.1968509e-06
-2.3117978e-07
-8.0442971e-09
9.2856211e-06
-3.4660389e-07
-1.5390534e-08
9.4108459e-06
-3.670492e-07
-1.987286e-08
9.5783739e-06
-3.6639793e-07
-2.1255887e-08
9.7791542e-06
-3.5052975e-07
-1.9768882e-08
9.996539e-06
-3.2818761e-07
-1.5319443e-08
1.0219173e-05
-3.0852405e-07
-7.5000161e-09
1.0442234e-05
-2.9825625e-07
4.6200567e-09
1.0668142e-05
-3.0688632e-07
2.2297096e-08
1.0914305e-05
-3.5493155e-07
4.5074323e-08
1.1231714e-05
-4.8814952e-07
7.0253066e-08
1.1737745e-05
-7.9215937e-07
8.7132833e-08
1.2587595e-05
-1.2953057e-06
7.0930431e-08
1.3349374e-05
-1.2349872e-06
-2.4532631e-09
1.3896651e-05
-7.9013167e-07
-1.016971e-07
1.4295873e-05
-4.2789283e-07
-1.2071508e-07
1.4604481e-05
-1.9939349e-07
-1.0065594e-07
1.482317e-05
-3.1131304e-08
-5.50691e-08
1.4988677e-05
2.8251376e-08
1.8938023e-08
1.5145466e-05
-3.0553947e-08
1.2391785e-07
1.5357637e-05
-1.7945531e-07
2.4658992e-07
1.5638345e-05
-2.3306792e-07
3.2825229e-07
1.5914448e-05
-1.9271156e-08
3.3007418e-07
1.6069003e-05
4.8315172e-07
2.576252e-07
1.6047688e-05
1.1491976e-06
1.3987056e-07
1.5748366e-05
1.9099379e-06
6.0075947e-08
1.5021185e-05
2.6785746e-06
1.5971239e-07
1.3585995e-05
3.5737864e-06
5.4404997e-07
1.120185e-05
4.7205931e-06
1.1680233e-06
6.2932283e-06
1.8929084e-06
9.2571258e-06
-2.1273278e-07
-8.0571443e-09
9.2065993e-06
-2.8352269e-07
-1.5441526e-08
9.1526916e-06
-2.9731488e-07
-2.0106817e-08
9.1006629e-06
-2.9839248e-07
-2.1649337e-08
9.0566862e-06
-2.9367563e-07
-2.0029532e-08
9.0195441e-06
-2.8506506e-07
-1.4824464e-08
8.9831349e-06
-2.7781878e-07
-5.3141161e-09
8.9387819e-06
-2.7852798e-07
1.1206752e-08
8.8770858e-06
-2.984286e-07
3.6815078e-08
8.7892953e-06
-3.6241547e-07
7.4555893e-08
8.6805253e-06
-5.3422446e-07
1.2731908e-07
8.6473722e-06
-9.8835078e-07
1.8949347e-07
9.1438015e-06
-2.0818356e-06
2.2390039e-07
9.3596447e-06
-1.6998545e-06
1.513892e-07
9.0962921e-06
-6.7470256e-07
4.8472259e-08
8.8006426e-06
-2.7252738e-07
4.5238671e-08
8.3136586e-06
2.7214482e-08
1.5851124e-07
7.6322268e-06
1.5971708e-07
3.6760648e-07
6.8151858e-06
4.9452091e-08
6.3698149e-07
5.8063555e-06
-1.5504439e-07
9.4223745e-07
4.6754177e-06
-4.3970868e-07
1.2024552e-06
3.7591722e-06
-7.8137596e-07
1.3147035e-06
3.6118421e-06
-1.1263284e-06
1.1954221e-06
4.5681513e-06
-1.244933e-06
8.2959222e-07
6.4310063e-06
-9.6710931e-07
4.9569696e-07
8.3343958e-06
-4.1792159e-08
4.3213709e-07
9.4251329e-06
1.0425588e-06
9.9967359e-07
9.5475415e-06
2.1538372e-06
1.8442444e-06
8.7538491e-06
3.4928052e-06
2.6872293e-06
5.1310803e-06
3.3956471e-06
9.0626214e-06
-7.8150971e-09
8.7911388e-06
-1.4853203e-08
8.5088026e-06
-1.9142005e-08
8.2251497e-06
-2.0254998e-08
7.9425892e-06
-1.808308e-08
7.6609315e-06
-1.2106962e-08
7.3739598e-06
-1.7296078e-09
7.0635353e-06
1.8762505e-08
6.6976548e-06
5.1487143e-08
6.2091411e-06
1.0632585e-07
5.4478587e-06
2.018252e-07
4.0456456e-06
3.7999258e-07
1.1618679e-06
7.5150699e-07
-1.921807e-06
1.3154745e-06
-3.9835277e-06
1.333979e-06
-5.3921999e-06
1.1603588e-06
-6.2957671e-06
1.0141069e-06
-6.6787869e-06
6.830478e-07
-6.3948063e-06
-2.9949129e-08
-5.7119154e-06
-5.666665e-07
-4.9100923e-06
-9.1533098e-07
-4.1966919e-06
-1.087645e-06
-3.6378476e-06
-1.1676387e-06
-3.1181761e-06
-1.152083e-06
-2.3779126e-06
-1.0470568e-06
-1.1061374e-06
-5.7280905e-07
2.5779303e-07
7.703228e-07
1.2783232e-06
2.407197e-06
2.4826226e-06
3.6495468e-06
4.4244544e-06
9.5880606e-06
-3.0952058e-07
-1.6920468e-08
9.8730712e-06
-2.6979038e-07
-2.800777e-08
1.0146815e-05
-2.5696056e-07
-3.2316064e-08
1.0377054e-05
-2.1434823e-07
-3.1980277e-08
1.0553562e-05
-1.6288605e-07
-2.8663179e-08
1.0682491e-05
-1.1861994e-07
-2.2997833e-08
1.0773129e-05
-8.4540734e-08
-1.5195129e-08
1.0833448e-05
-5.9866252e-08
-4.8755084e-09
1.0871285e-05
-4.4657342e-08
7.5748951e-09
1.0898898e-05
-4.1622821e-08
2.1656555e-08
1.0935556e-05
-6.004166e-08
3.6459196e-08
1.1020696e-05
-1.2048769e-07
4.7379316e-08
1.1218729e-05
-2.5051332e-07
4.3957715e-08
1.1581121e-05
-4.4250178e-07
1.3405067e-08
1.1953364e-05
-4.4024613e-07
-8.5861729e-08
1.2213211e-05
-2.8868866e-07
-2.1742963e-07
1.2352675e-05
-1.43481e-07
-3.3722798e-07
1.2423232e-05
-9.5854921e-08
-4.2305943e-07
1.2470383e-05
-1.4862573e-07
-4.7249237e-07
1.2528369e-05
-2.8398369e-07
-4.9460357e-07
1.2613317e-05
-4.720349e-07
-5.037528e-07
1.2709595e-05
-6.6984023e-07
-5.1528423e-07
1.2781009e-05
-8.454658e-07
-5.4047783e-07
1.2808169e-05
-1.0002856e-06
-5.8032711e-07
1.2806981e-05