/*--------------------------------*- C++ -*----------------------------------*\
| =========                 |                                                 |
| \\      /  F ield         | OpenFOAM: The Open Source CFD Toolbox           |
|  \\    /   O peration     | Version:  v2012                                 |
|   \\  /    A nd           | Website:  www.openfoam.com                      |
|    \\/     M anipulation  |                                                 |
\*---------------------------------------------------------------------------*/
FoamFile
{
    version     2.0;
    format      ascii;
    class       volVectorField;
    location    "620/topAir";
    object      U;
}
// * * * * * * * * * * * * * * * * * * * * * * * * * * * * * * * * * * * * * //

dimensions      [0 1 -1 0 0 0 0];


internalField   nonuniform List<vector> 
1200
(
(0.10465669 -0.0024698913 0.00087486628)
(0.11849912 -0.0025436846 0.0013115026)
(0.1303881 -0.002317894 0.0013874379)
(0.13967118 -0.0017532084 0.0012428199)
(0.14778152 -0.00091380185 0.00089122584)
(0.15536689 2.6570477e-05 0.00029220848)
(0.16269351 0.00096326093 -0.0005857375)
(0.17001974 0.0018307698 -0.0019029468)
(0.17754286 0.0027272441 -0.0039286204)
(0.18557485 0.0038420845 -0.0069821715)
(0.19427904 0.0055065635 -0.011470089)
(0.20332875 0.0080864209 -0.017801651)
(0.21121585 0.011963515 -0.026222711)
(0.21637642 0.016528069 -0.036537031)
(0.21886309 0.021643729 -0.047911339)
(0.21923202 0.026606053 -0.059123764)
(0.21764919 0.030835387 -0.069018346)
(0.21428959 0.034046713 -0.076895838)
(0.20965457 0.036136052 -0.082573654)
(0.20455918 0.037099988 -0.086227061)
(0.19988101 0.037082518 -0.088190251)
(0.19626487 0.036340946 -0.088816724)
(0.19400302 0.035128035 -0.088406126)
(0.19309584 0.033642085 -0.087177021)
(0.19333247 0.032061843 -0.085245316)
(0.19423924 0.030632386 -0.082571649)
(0.19482772 0.029776144 -0.07888561)
(0.19311948 0.03033997 -0.073599644)
(0.18558566 0.03431748 -0.06571273)
(0.14432167 0.047785854 -0.053164961)
(0.098690153 -0.0039079043 0.0008462295)
(0.098470026 -0.0047189819 0.0012752144)
(0.098917281 -0.0047622489 0.0014529731)
(0.09983574 -0.00428667 0.0015308439)
(0.10130383 -0.003484723 0.0015355056)
(0.10335227 -0.0026077672 0.0014518289)
(0.10596075 -0.0018249866 0.0012545624)
(0.10929121 -0.0011931629 0.00088523488)
(0.11384443 -0.00039473551 0.00021996379)
(0.12011988 0.00095283065 -0.00091838582)
(0.12907621 0.0036836793 -0.0028351089)
(0.14099864 0.0087945054 -0.0058988406)
(0.15563077 0.017075027 -0.010600437)
(0.17118258 0.027473021 -0.017024401)
(0.18557743 0.039466127 -0.024712885)
(0.19704289 0.051796716 -0.03273824)
(0.20441981 0.063373814 -0.040203256)
(0.20740656 0.073266881 -0.046600691)
(0.20665441 0.080719565 -0.051762622)
(0.20352894 0.085295552 -0.055683807)
(0.19956737 0.087169255 -0.058401683)
(0.19588612 0.086982707 -0.05994906)
(0.19302373 0.085420979 -0.060412038)
(0.19113463 0.082985152 -0.059921508)
(0.19017157 0.08003002 -0.058560235)
(0.18987023 0.076990168 -0.056227959)
(0.18955138 0.074650153 -0.052514632)
(0.18786798 0.074609919 -0.046523403)
(0.18341477 0.080226382 -0.036261623)
(0.1554647 0.096177137 -0.016664983)
(0.098818159 -0.0029221946 0.00087322794)
(0.097966519 -0.0042275946 0.0013232594)
(0.09633247 -0.0046341219 0.0015222791)
(0.094288234 -0.0047219468 0.0016406881)
(0.092299631 -0.0046822013 0.0017307554)
(0.090547098 -0.0046031669 0.0018046981)
(0.089016197 -0.0045905196 0.0018808964)
(0.087639447 -0.004685579 0.0020021865)
(0.086469593 -0.004717942 0.0022363519)
(0.085820324 -0.0045908542 0.0026139782)
(0.086221299 -0.0040468268 0.0030891578)
(0.089775094 -0.0016136915 0.0032594113)
(0.099606396 0.0055192605 0.0024932134)
(0.11529787 0.018451104 0.00061358723)
(0.13400386 0.035411532 -0.0022077774)
(0.15215268 0.053582669 -0.0052152832)
(0.16680577 0.070291727 -0.0078435952)
(0.17670605 0.084301823 -0.0098581561)
(0.18216129 0.095000513 -0.011468658)
(0.18446976 0.10214706 -0.012997187)
(0.18514405 0.10584742 -0.014598191)
(0.18516119 0.10655103 -0.016032041)
(0.18484661 0.10492111 -0.016956778)
(0.18422646 0.10158965 -0.017267661)
(0.18331192 0.097061526 -0.016892122)
(0.18208535 0.091800911 -0.015696312)
(0.18034505 0.086580262 -0.01337902)
(0.17769881 0.083085583 -0.0093650346)
(0.17462755 0.085091358 -0.0026438583)
(0.15858559 0.098897884 0.01000808)
(0.096861529 -0.0015573421 0.00083871951)
(0.094644619 -0.0023001561 0.0012505476)
(0.090931627 -0.0025258174 0.0014107668)
(0.08638926 -0.0025563719 0.0014883164)
(0.081837143 -0.0024941819 0.001539261)
(0.077519349 -0.0023709507 0.0015798851)
(0.073397536 -0.0022273466 0.0016345108)
(0.069372809 -0.0021016905 0.0017490101)
(0.065316236 -0.0020327217 0.0019979864)
(0.061019184 -0.0021929842 0.0024895687)
(0.056075118 -0.003083995 0.0034546734)
(0.050081919 -0.0047659689 0.0053218716)
(0.042561451 -0.0055186947 0.0087260138)
(0.038121438 0.00033099709 0.013584896)
(0.044505463 0.015221981 0.019298222)
(0.059359632 0.032579371 0.025394622)
(0.075506479 0.04765989 0.031203515)
(0.089834522 0.060020745 0.036478261)
(0.10197253 0.069601968 0.040847883)
(0.11251803 0.076327611 0.043915256)
(0.12197544 0.080141758 0.045785072)
(0.13041253 0.081164497 0.046653376)
(0.13757145 0.079842758 0.046706032)
(0.14312938 0.076758065 0.046162779)
(0.14690723 0.072473208 0.045306585)
(0.14896568 0.06745141 0.044430828)
(0.14969366 0.062338987 0.04381815)
(0.15014858 0.058431968 0.043430682)
(0.1544884 0.058649873 0.042781835)
(0.17592073 0.068898641 0.042186172)
(0.10591868 -0.0024712453 0.00099785681)
(0.12061499 -0.0025557163 0.0013876789)
(0.13375296 -0.0024208563 0.0013767632)
(0.1443711 -0.0020434849 0.0011339238)
(0.15362368 -0.0014937633 0.00067749614)
(0.16209379 -0.00095407145 -3.590986e-05)
(0.16979778 -0.00057280069 -0.0010676907)
(0.17665309 -0.00041969889 -0.0025831019)
(0.18263684 -0.00055999775 -0.0048365884)
(0.18772924 -0.0010753628 -0.0081175036)
(0.19186862 -0.0020961657 -0.012765207)
(0.19496289 -0.0037703503 -0.019033181)
(0.1964224 -0.0062479763 -0.026865127)
(0.19598115 -0.010215882 -0.035514026)
(0.19532343 -0.014849442 -0.043765636)
(0.19573083 -0.019193047 -0.050638047)
(0.19696376 -0.022236345 -0.055942628)
(0.19802614 -0.023610923 -0.059990861)
(0.19814122 -0.02375117 -0.063054705)
(0.19720224 -0.023431766 -0.065224845)
(0.19566617 -0.023168218 -0.066565893)
(0.194137 -0.023051193 -0.06715463)
(0.19305436 -0.023031906 -0.067047941)
(0.19265347 -0.02308478 -0.066268028)
(0.19308049 -0.023170367 -0.064790103)
(0.19444432 -0.023114836 -0.06249484)
(0.19670829 -0.022459142 -0.059049583)
(0.1995689 -0.020054205 -0.053850015)
(0.20238269 -0.012411108 -0.046118822)
(0.19527804 0.010800673 -0.0357959)
(0.099978852 -0.0039196892 0.0010507593)
(0.10069734 -0.0047670426 0.0015896615)
(0.10252442 -0.0049495086 0.0017792685)
(0.10499417 -0.0047322719 0.001813659)
(0.10792204 -0.0043109106 0.0017336988)
(0.11124785 -0.0039384934 0.0015157227)
(0.11487979 -0.0038138222 0.0011146164)
(0.11874057 -0.0040500146 0.00045662231)
(0.12281634 -0.0047708116 -0.00057908035)
(0.12708446 -0.0061673825 -0.0021428108)
(0.13157191 -0.0084882859 -0.0043857072)
(0.13637367 -0.012018355 -0.0074600395)
(0.14164839 -0.017081872 -0.011377966)
(0.14733986 -0.024307846 -0.015523642)
(0.15336113 -0.032117518 -0.018891914)
(0.15939327 -0.038260009 -0.020858483)
(0.16484078 -0.040790782 -0.021696399)
(0.16877542 -0.039456245 -0.02248394)
(0.17063534 -0.035686346 -0.023897232)
(0.17066619 -0.031458608 -0.025930093)
(0.16973656 -0.028026823 -0.028176448)
(0.16863025 -0.025529449 -0.030203886)
(0.16761531 -0.023743756 -0.031599709)
(0.16673501 -0.022644577 -0.031964811)
(0.16623661 -0.022333874 -0.0309366)
(0.16671444 -0.022856354 -0.028146154)
(0.16920887 -0.02402275 -0.023059085)
(0.17595096 -0.025137732 -0.014781925)
(0.19295669 -0.024461904 -0.0019174831)
(0.25198897 -0.015091315 0.013325624)
(0.10011759 -0.0029504261 0.0010710418)
(0.10022027 -0.0042807784 0.001636856)
(0.10003161 -0.0047306815 0.0018738271)
(0.099691019 -0.0048959316 0.0019847149)
(0.099412795 -0.0049720956 0.0020284243)
(0.099313171 -0.0050468512 0.0020045137)
(0.099406647 -0.0052086085 0.0019094942)
(0.099672656 -0.0055566713 0.0017556551)
(0.10009289 -0.0062318967 0.0015657118)
(0.10071748 -0.0074902717 0.00132094)
(0.10166462 -0.0096740672 0.00088207776)
(0.10310864 -0.013279697 3.7219076e-05)
(0.10527629 -0.019033075 -0.0011145904)
(0.10819122 -0.027466469 -0.001724843)
(0.11173203 -0.036597877 -0.00043315243)
(0.11558683 -0.043046537 0.004367765)
(0.12081113 -0.043598521 0.012839486)
(0.12636988 -0.039036829 0.021345811)
(0.13086926 -0.032278192 0.02780509)
(0.13368641 -0.026544027 0.031432346)
(0.13487324 -0.022426512 0.033562985)
(0.13562952 -0.019313505 0.035790752)
(0.13707242 -0.01740363 0.038192096)
(0.13895443 -0.016789414 0.040581949)
(0.14059838 -0.017866428 0.042253126)
(0.14151999 -0.020257409 0.043492938)
(0.14219889 -0.023397361 0.044688042)
(0.14394591 -0.027458736 0.046142833)
(0.15146609 -0.032505427 0.049536527)
(0.18294807 -0.03859835 0.0506878)
(0.098104785 -0.0015842804 0.0010461635)
(0.096784088 -0.002356464 0.0015933372)
(0.094444943 -0.002615122 0.0018162488)
(0.091526849 -0.002691494 0.0019096527)
(0.08860499 -0.0026912605 0.0019319775)
(0.085871116 -0.0026486341 0.0018863863)
(0.08332481 -0.0026070973 0.0017752963)
(0.080932376 -0.0026239766 0.0016134121)
(0.078643297 -0.0027828235 0.0014317325)
(0.076426799 -0.003228447 0.0012722383)
(0.074208549 -0.0042367149 0.0011803584)
(0.071766846 -0.0063092732 0.0012221607)
(0.068749232 -0.010205987 0.001276019)
(0.06480612 -0.016225749 0.0011714002)
(0.05995594 -0.021401041 0.003465375)
(0.056065543 -0.020556145 0.014887651)
(0.057945569 -0.011569361 0.040291785)
(0.060636216 0.0020863909 0.064557274)
(0.063941665 0.015816188 0.083013574)
(0.068965674 0.026732863 0.095926021)
(0.076343077 0.033691011 0.10375809)
(0.084742715 0.036315538 0.10724825)
(0.092303708 0.035842865 0.10816857)
(0.09854169 0.03327181 0.10714002)
(0.10313637 0.029509288 0.10447362)
(0.1065017 0.024429192 0.099487621)
(0.10884637 0.018412669 0.092385047)
(0.11075093 0.011799809 0.083906628)
(0.11826658 0.0053460427 0.075661815)
(0.15332229 0.0011597184 0.059903573)
(0.10579305 -0.0024924054 0.00034272338)
(0.12028899 -0.0025754064 0.000558652)
(0.13333332 -0.0024146433 0.00063850965)
(0.14396593 -0.0019899556 0.00062398157)
(0.15327702 -0.0013824122 0.00053926316)
(0.16176065 -0.00078269809 0.00038480351)
(0.16944239 -0.00030157452 0.00012693752)
(0.17630847 2.7624547e-05 -0.00025389119)
(0.18237127 0.00017646218 -0.00077312104)
(0.18761712 9.6529508e-05 -0.0014496386)
(0.19199993 -0.00030116367 -0.0022899874)
(0.19544854 -0.0011722836 -0.0032356565)
(0.19736669 -0.0027616147 -0.0040563509)
(0.1974918 -0.0058495869 -0.0043063864)
(0.19735983 -0.0094025432 -0.0036340136)
(0.19746675 -0.012764917 -0.0024542074)
(0.19692593 -0.015960239 -0.0017914971)
(0.19517747 -0.019269546 -0.0023929643)
(0.19241904 -0.022660274 -0.0042697569)
(0.18907339 -0.026071148 -0.0069463851)
(0.18555131 -0.029482868 -0.0098726166)
(0.18225779 -0.032767325 -0.01260197)
(0.17946889 -0.035685626 -0.014836409)
(0.17726252 -0.038009759 -0.016424501)
(0.17564923 -0.039667098 -0.017258961)
(0.17474703 -0.040808478 -0.017152734)
(0.1750554 -0.041624824 -0.015971678)
(0.17776514 -0.04158905 -0.014672294)
(0.18419808 -0.03686852 -0.01653573)
(0.19184583 -0.018962331 -0.022659546)
(0.099855867 -0.0039335237 0.00033549305)
(0.10034023 -0.004769321 0.00056536295)
(0.1020354 -0.0049104446 0.00065832965)
(0.1044851 -0.0046256202 0.00064926242)
(0.10742167 -0.0041206736 0.00055012134)
(0.11072335 -0.0036521527 0.00034255982)
(0.1142746 -0.00336521 -1.0350877e-05)
(0.11798202 -0.0033221915 -0.00055071258)
(0.12179654 -0.0036089801 -0.0013268947)
(0.12571508 -0.0043564939 -0.002418316)
(0.12979487 -0.0058269747 -0.0038843598)
(0.13420965 -0.0084611956 -0.0057042749)
(0.13929488 -0.012880879 -0.0076290463)
(0.14501363 -0.019516925 -0.009065665)
(0.15073424 -0.025504007 -0.0099508803)
(0.15515382 -0.029177908 -0.011571807)
(0.15703484 -0.031309908 -0.015252845)
(0.15647247 -0.033307604 -0.020796452)
(0.15447763 -0.035104444 -0.027233967)
(0.15164023 -0.036712645 -0.033509953)
(0.14818319 -0.038443658 -0.038750824)
(0.14432308 -0.040391568 -0.042456948)
(0.14020672 -0.042344117 -0.044461539)
(0.1358089 -0.044033919 -0.044803644)
(0.13121339 -0.04552626 -0.043350961)
(0.12667695 -0.047462383 -0.03961577)
(0.1238617 -0.050569221 -0.033355578)
(0.12754171 -0.05434013 -0.027714048)
(0.14498088 -0.05171817 -0.034571075)
(0.19662789 -0.032946722 -0.056022708)
(0.099999004 -0.0029460891 0.00033985033)
(0.099878477 -0.0042706102 0.0005759499)
(0.099564463 -0.0047009558 0.00068299611)
(0.099212834 -0.0048348215 0.00069194693)
(0.098966379 -0.0048674615 0.00061149755)
(0.09889175 -0.0048791562 0.00042105099)
(0.098980487 -0.0049406217 8.1782365e-05)
(0.09918885 -0.005134371 -0.00045852365)
(0.099501034 -0.0055847329 -0.0012688568)
(0.099893861 -0.0064936052 -0.0024283168)
(0.10034651 -0.0082705499 -0.0040691953)
(0.10095255 -0.011662794 -0.0063037135)
(0.10202663 -0.017842858 -0.0090054506)
(0.10347976 -0.026509129 -0.011462721)
(0.10441392 -0.032568904 -0.013229704)
(0.10342582 -0.033539156 -0.015649895)
(0.099388182 -0.03169086 -0.0199954)
(0.094422077 -0.030880321 -0.023751596)
(0.090193526 -0.030843489 -0.027924662)
(0.086057624 -0.031712714 -0.032799439)
(0.080911983 -0.033697136 -0.036683718)
(0.074920245 -0.036399052 -0.038287061)
(0.068865468 -0.039172332 -0.037463756)
(0.063000986 -0.041659149 -0.034522901)
(0.058391996 -0.04394959 -0.028554189)
(0.055481498 -0.047311479 -0.018702022)
(0.056287555 -0.052764027 -0.0065108848)
(0.065048064 -0.060579232 -0.00062115652)
(0.079585888 -0.062949113 -0.025156702)
(0.11537307 -0.052767739 -0.071166955)
(0.097988658 -0.0015795554 0.00033108958)
(0.096448427 -0.0023468459 0.00055637947)
(0.093985751 -0.0025975858 0.00065408783)
(0.091055256 -0.0026640249 0.00065448309)
(0.08816202 -0.0026512466 0.00056571305)
(0.08544738 -0.0025911886 0.00036576518)
(0.082883727 -0.0025233974 1.2940276e-05)
(0.08041181 -0.0025008391 -0.00055311884)
(0.077978984 -0.002595838 -0.001419667)
(0.075446756 -0.0029453155 -0.0027114764)
(0.072520086 -0.0038518825 -0.0047098325)
(0.068668418 -0.0060390997 -0.0079336852)
(0.06297809 -0.011221588 -0.013468113)
(0.053277841 -0.019530544 -0.022646207)
(0.038481569 -0.02224489 -0.032909102)
(0.023569867 -0.016554173 -0.037488455)
(0.012571914 -0.0099139816 -0.02929036)
(0.022938312 -0.0074299272 0.0092862116)
(0.024990465 0.0011766773 0.044370378)
(0.02944296 0.010039503 0.066274024)
(0.035934329 0.016208234 0.078671449)
(0.042777652 0.018982315 0.084790677)
(0.048520935 0.01894681 0.086956781)
(0.052182339 0.016516727 0.086102238)
(0.052851802 0.011927106 0.082355886)
(0.050587122 0.0045947578 0.075366195)
(0.04686245 -0.0057265682 0.064807395)
(0.046459854 -0.019184871 0.0468311)
(0.038326512 -0.022829554 -0.011584805)
(0.06163421 -0.0038608182 -0.092188733)
(0.10576455 -0.0024935755 0.00017464163)
(0.12018306 -0.002570957 0.0003123739)
(0.13314136 -0.0023947475 0.00038916598)
(0.1437071 -0.0019384863 0.00040569247)
(0.15297956 -0.0012727267 0.0003671766)
(0.1614691 -0.00057458896 0.00027391539)
(0.16922646 5.565e-05 0.00012691947)
(0.17625946 0.00059872681 -7.1621666e-05)
(0.18263754 0.0010586747 -0.00032735645)
(0.18845998 0.0014234397 -0.00062816958)
(0.19386709 0.0016419425 -0.00091512926)
(0.19910695 0.0015907877 -0.0010097494)
(0.20402533 0.0011282866 -0.00045858311)
(0.20868366 0.00018726611 0.0014406227)
(0.21406256 0.00051279929 0.0047624921)
(0.21950658 0.0017489985 0.0088448774)
(0.22375505 0.002860688 0.01319452)
(0.22648556 0.0033089918 0.017743274)
(0.22810712 0.0029527181 0.022603513)
(0.22893724 0.0017896256 0.027883234)
(0.22910223 -3.9573832e-05 0.033647593)
(0.22862653 -0.0023457899 0.039838611)
(0.22743668 -0.0049844519 0.046146856)
(0.22551717 -0.0078388901 0.051989341)
(0.22314582 -0.010635531 0.056634391)
(0.22083123 -0.012610985 0.059403208)
(0.21874618 -0.012381382 0.059686303)
(0.21569039 -0.0085460306 0.056636928)
(0.2069976 0.0013455248 0.047088252)
(0.14908843 0.029532804 0.025197902)
(0.099825256 -0.0039349374 0.00017028571)
(0.10020817 -0.0047635423 0.0003111766)
(0.10177023 -0.0048825502 0.00038542719)
(0.1040909 -0.0045521735 0.00038725951)
(0.1069021 -0.0039646405 0.00031731904)
(0.11006774 -0.0033583259 0.00016793875)
(0.1134614 -0.0028611185 -7.5780518e-05)
(0.11699548 -0.002514108 -0.000440789)
(0.12064062 -0.002360871 -0.00095972348)
(0.12444908 -0.0025255435 -0.0016555881)
(0.12862273 -0.0033030087 -0.0025013954)
(0.13364666 -0.0052677884 -0.003316369)
(0.14030765 -0.0090109753 -0.0035626158)
(0.14878096 -0.012673062 -0.0023682559)
(0.15788675 -0.011766939 -0.00044129657)
(0.16525331 -0.0082680477 0.00069125039)
(0.16999204 -0.0053750948 0.00038547504)
(0.17260346 -0.004418103 -0.0011819342)
(0.17372355 -0.0053883379 -0.0037574724)
(0.17372015 -0.0075882162 -0.0069148601)
(0.17291026 -0.010325783 -0.0099599215)
(0.17136717 -0.013141795 -0.012116132)
(0.16889831 -0.015907765 -0.012970237)
(0.16530866 -0.018867174 -0.012626635)
(0.16095852 -0.022162079 -0.011647988)
(0.1570608 -0.024946229 -0.011232965)
(0.15669078 -0.023824748 -0.014133508)
(0.16167662 -0.014472151 -0.022393002)
(0.17372859 0.0074028668 -0.03631257)
(0.17804774 0.045942943 -0.053932533)
(0.099969483 -0.0029435622 0.0001708823)
(0.099749977 -0.0042649969 0.00031188839)
(0.099298985 -0.0046862439 0.00038840215)
(0.098803773 -0.0048018208 0.00039108514)
(0.098404668 -0.0048031822 0.00031565355)
(0.09814827 -0.0047640887 0.00014839113)
(0.098005178 -0.0047445621 -0.00013510081)
(0.097921444 -0.0048142992 -0.00057562808)
(0.097839255 -0.005093472 -0.0012305369)
(0.097713574 -0.005835648 -0.0021888168)
(0.097588563 -0.0076034038 -0.0035210652)
(0.097864233 -0.011571037 -0.0051891253)
(0.099316819 -0.01950364 -0.0066741555)
(0.10159532 -0.02651668 -0.0064103812)
(0.1051855 -0.024428424 -0.0041703749)
(0.10631533 -0.018620036 -0.0023287971)
(0.10221052 -0.013622255 -0.0033795272)
(0.095548625 -0.011067354 -0.0070395585)
(0.087829254 -0.01215254 -0.012340684)
(0.080368473 -0.015665853 -0.017782259)
(0.073245128 -0.02003643 -0.0216323)
(0.066250325 -0.024174263 -0.022412949)
(0.05937987 -0.027547611 -0.01995765)
(0.05299301 -0.030211141 -0.015970901)
(0.047477087 -0.033127882 -0.012404625)
(0.044130266 -0.036837605 -0.013032084)
(0.049169104 -0.03543892 -0.026328433)
(0.066711608 -0.023684811 -0.046173651)
(0.088389089 -0.0018186881 -0.067689034)
(0.095678083 0.032429331 -0.091079507)
(0.097959705 -0.0015812719 0.00016620315)
(0.096323016 -0.0023507302 0.00030072401)
(0.093725922 -0.0026012686 0.00037045495)
(0.090651744 -0.0026638963 0.00036557399)
(0.087601094 -0.0026425453 0.00028046363)
(0.084690425 -0.0025675079 9.9004693e-05)
(0.081860521 -0.0024759737 -0.00021062008)
(0.079012952 -0.0024210123 -0.00070483084)
(0.0759908 -0.0024891399 -0.001481885)
(0.072494715 -0.0028658267 -0.0027321472)
(0.067938454 -0.0040238675 -0.0047790296)
(0.061085679 -0.007296724 -0.0082899525)
(0.050272724 -0.016005331 -0.014826326)
(0.029289092 -0.022812184 -0.025700574)
(0.0021417761 -0.011180256 -0.032067379)
(-0.020379731 0.0022560499 -0.02659309)
(-0.034735044 0.0038478669 -0.018650784)
(-0.039679109 0.0021680688 -0.0062688178)
(-0.029418221 -0.00034023397 0.015188593)
(-0.021644932 0.00038136248 0.032195392)
(-0.012815646 0.0011553173 0.042457741)
(-0.0055974801 0.00076501255 0.04774226)
(-0.00091127688 -0.00084228099 0.049952721)
(0.00032736563 -0.0038923294 0.0502356)
(-0.0027198401 -0.010052718 0.04680314)
(-0.013209499 -0.020451611 0.027757421)
(-0.027150981 -0.023467699 -0.014955543)
(-0.029535516 -0.0033573242 -0.059601587)
(-0.011136745 0.022195879 -0.087246501)
(0.020199119 0.050786641 -0.11273775)
(0.1057485 -0.0024976972 3.2314307e-05)
(0.12012553 -0.0025777258 5.434528e-05)
(0.1330318 -0.0024027513 5.7918262e-05)
(0.14354746 -0.0019457376 4.1842225e-05)
(0.15277425 -0.0012767706 7.0157139e-06)
(0.1612185 -0.00057369705 -4.7398177e-05)
(0.16893002 6.5195721e-05 -0.00012468183)
(0.17590757 0.00061212719 -0.00022906728)
(0.1822117 0.001060915 -0.00036815798)
(0.18795498 0.001380935 -0.00054565433)
(0.19333902 0.0014834586 -0.00075304914)
(0.19881015 0.0012006085 -0.00093515798)
(0.20456618 0.00055879762 -0.0009208048)
(0.21082578 0.0002916818 -0.00045219454)
(0.21762962 0.0012594397 0.0003751217)
(0.22410927 0.0025497774 0.0012501637)
(0.22944594 0.0039104946 0.002050198)
(0.2341139 0.005630968 0.0029482534)
(0.238801 0.0077806306 0.0041529883)
(0.24394038 0.010364855 0.0058696054)
(0.24957507 0.013409242 0.0083688921)
(0.25519412 0.016969359 0.011977113)
(0.25983978 0.02088009 0.016910492)
(0.26249998 0.024846442 0.023033282)
(0.26239742 0.028606005 0.02976068)
(0.25872967 0.032324238 0.036009416)
(0.24990153 0.03666244 0.040272936)
(0.23287691 0.042674484 0.040837968)
(0.20423193 0.052335379 0.03525961)
(0.10874383 0.073977465 0.021216763)
(0.099806152 -0.0039396744 2.6831013e-05)
(0.1001325 -0.004771126 4.3094621e-05)
(0.10161748 -0.0048902905 3.7391399e-05)
(0.10385772 -0.0045566105 6.4153436e-06)
(0.1065861 -0.0039619693 -5.0784513e-05)
(0.10966302 -0.0033455513 -0.000137712)
(0.11295242 -0.0028353238 -0.00025964214)
(0.11634941 -0.0024849202 -0.00042649607)
(0.11982606 -0.0023614825 -0.00065296118)
(0.12347221 -0.0026441828 -0.00095028984)
(0.12761593 -0.0037496894 -0.0013079886)
(0.13306688 -0.0064224894 -0.0016492141)
(0.14087031 -0.010694901 -0.0017526646)
(0.15108558 -0.010683768 -0.0011138535)
(0.16069953 -0.0066619738 -0.00039719256)
(0.16802359 -0.0025033313 -0.00032996867)
(0.17442798 0.00058468622 -0.00078170231)
(0.18083566 0.002982243 -0.0013944752)
(0.1873578 0.0052528017 -0.0020996937)
(0.19476532 0.0080941562 -0.0028649261)
(0.20357782 0.012430567 -0.0034434282)
(0.21361377 0.019050749 -0.0032052155)
(0.22403201 0.028058566 -0.0016436243)
(0.23374078 0.038534564 0.0013331601)
(0.24166636 0.049525338 0.0053684198)
(0.24635426 0.061135972 0.0095082307)
(0.24486556 0.073816583 0.012216359)
(0.23279551 0.087849795 0.011951108)
(0.20824736 0.10478435 0.0064275785)
(0.12362856 0.13078466 -0.0079163111)
(0.099950129 -0.0029445261 2.5983221e-05)
(0.099673168 -0.004267539 4.1090965e-05)
(0.099139778 -0.0046890314 3.3898601e-05)
(0.098551621 -0.0048030297 -4.4583286e-07)
(0.098048728 -0.0048012208 -6.5206849e-05)
(0.097670625 -0.0047568731 -0.00016672586)
(0.097369274 -0.0047352869 -0.00031472526)
(0.097055054 -0.0048168777 -0.00052693527)
(0.096637449 -0.0051525273 -0.00083445809)
(0.096051626 -0.0060834783 -0.0012811359)
(0.095414386 -0.0084029498 -0.0019196376)
(0.095636538 -0.013829675 -0.0027985938)
(0.097166977 -0.024505152 -0.0039812565)
(0.10120495 -0.02379866 -0.0038990931)
(0.10611292 -0.017078919 -0.0023562093)
(0.10543999 -0.010692542 -0.002500932)
(0.10275147 -0.0049687496 -0.0040223534)
(0.098076573 -0.00018624603 -0.0064997045)
(0.094431372 0.0025533974 -0.0098180718)
(0.09147153 0.0029451113 -0.013824711)
(0.088928171 0.0023432211 -0.017237594)
(0.090821519 0.0029551577 -0.018734167)
(0.099533644 0.0069211885 -0.017567325)
(0.11670547 0.015553919 -0.014575542)
(0.13507973 0.027749128 -0.0097340036)
(0.15308005 0.042735983 -0.0054222759)
(0.16591217 0.058990375 -0.0036130517)
(0.16797394 0.077298944 -0.0054631003)
(0.15933475 0.10062015 -0.011892988)
(0.10176375 0.13457813 -0.023412191)
(0.097940422 -0.0015814195 2.4918688e-05)
(0.09624648 -0.0023511274 3.845495e-05)
(0.093566117 -0.0026013204 2.9318766e-05)
(0.090395212 -0.0026629805 -7.848849e-06)
(0.087233574 -0.002640318 -7.7318418e-05)
(0.084184325 -0.002563168 -0.00018692372)
(0.081157656 -0.0024725307 -0.00035100865)
(0.077995303 -0.0024278846 -0.00059535968)
(0.07444538 -0.0025368336 -0.000973974)
(0.070024805 -0.0030538511 -0.0015875264)
(0.063717875 -0.0046831906 -0.0026431896)
(0.053211436 -0.0096206967 -0.0046709854)
(0.036452468 -0.022961373 -0.0094086378)
(-0.0078534403 -0.012882815 -0.0195487)
(-0.038583005 0.0038523052 -0.016776175)
(-0.058021161 0.0061127005 -0.01232552)
(-0.072674572 0.005672432 -0.0084567371)
(-0.079628275 0.0023638527 -0.0032531502)
(-0.080381486 -0.0025649638 0.0035423298)
(-0.07393466 -0.0074166928 0.011142182)
(-0.064890482 -0.011483609 0.016723433)
(-0.055894752 -0.014856149 0.020694529)
(-0.046958259 -0.016667454 0.023525065)
(-0.036918318 -0.015103938 0.024946893)
(-0.019552885 -0.0075741178 0.022818166)
(0.003850414 0.010169255 0.013568391)
(0.027066144 0.034257485 0.0057427479)
(0.03289266 0.053113849 -0.0042230717)
(0.040464899 0.078887758 -0.018508091)
(0.045392233 0.11479725 -0.032611769)
(0.10574915 -0.0024978996 -7.1457015e-05)
(0.12012678 -0.0025777971 -0.00012838328)
(0.13303234 -0.0024024449 -0.00016314597)
(0.14354624 -0.0019446617 -0.00017678802)
(0.15277031 -0.0012745399 -0.00017284214)
(0.16121031 -0.00057016451 -0.00015356404)
(0.16891269 6.7937714e-05 -0.00011901146)
(0.17587762 0.00061544695 -6.8151237e-05)
(0.18217043 0.0010674138 1.0582753e-06)
(0.18789923 0.001391668 8.2246339e-05)
(0.19325443 0.0015043457 0.00015403776)
(0.19865692 0.001243573 0.00013274055)
(0.20424984 0.00059813867 -0.00021763524)
(0.21023222 0.00024398426 -0.001227911)
(0.21677442 0.0011797606 -0.0027166931)
(0.22294626 0.0025001693 -0.0042548073)
(0.22782212 0.0038052944 -0.0057897775)
(0.23167338 0.0053449673 -0.0076688284)
(0.23521114 0.0071048805 -0.010289415)
(0.23903099 0.0088403795 -0.013925959)
(0.24354057 0.010399283 -0.018711854)
(0.24866457 0.012085773 -0.024600861)
(0.25360467 0.014153951 -0.031339071)
(0.25717974 0.016513797 -0.038491098)
(0.25833805 0.019056796 -0.045398471)
(0.256104 0.021944007 -0.051056941)
(0.24903571 0.025797966 -0.053988798)
(0.23434715 0.032078933 -0.052326229)
(0.20852902 0.043172702 -0.04367273)
(0.11813272 0.068052564 -0.026094017)
(0.099805592 -0.0039400161 -7.3334815e-05)
(0.10013016 -0.0047713793 -0.00013601215)
(0.10161233 -0.004890159 -0.0001744657)
(0.10384891 -0.0045556673 -0.00018677237)
(0.10657257 -0.0039598221 -0.00017456446)
(0.10964068 -0.0033422735 -0.00013723586)
(0.11291792 -0.0028328668 -7.23205e-05)
(0.11630172 -0.0024805364 2.7162083e-05)
(0.11975928 -0.0023505256 0.00016768293)
(0.12337074 -0.0026207158 0.00034884369)
(0.12744623 -0.0036977581 0.00053680893)
(0.13275865 -0.0063279615 0.00060409181)
(0.14037168 -0.010742166 0.00023121409)
(0.15022676 -0.011250935 -0.0010780625)
(0.15969047 -0.0073154817 -0.0023128801)
(0.16679019 -0.0030550675 -0.0026551732)
(0.17253068 -0.00011799101 -0.0024032541)
(0.17805658 0.0016241492 -0.0021325797)
(0.18338853 0.0024602494 -0.0020806943)
(0.18877317 0.0028916745 -0.0022834452)
(0.194259 0.0036356099 -0.0026761907)
(0.20088429 0.0058307289 -0.0034846262)
(0.21037063 0.011124399 -0.005229823)
(0.21994021 0.01949389 -0.0078688283)
(0.2284044 0.029715865 -0.011227977)
(0.23441805 0.040770661 -0.014523042)
(0.2356866 0.052938066 -0.016019623)
(0.22860836 0.067554421 -0.013405417)
(0.21143195 0.087209304 -0.0041040073)
(0.14617136 0.11827275 0.013990068)
(0.099949546 -0.0029447318 -7.3199822e-05)
(0.099670606 -0.0042677987 -0.00013522553)
(0.099133891 -0.0046892729 -0.00017371241)
(0.098541243 -0.0048031818 -0.0001854003)
(0.098032138 -0.0048012856 -0.00016976221)
(0.097643013 -0.0047575749 -0.00012330187)
(0.097327943 -0.004736167 -3.8923976e-05)
(0.097000154 -0.0048148923 9.7802976e-05)
(0.096562365 -0.0051431215 0.00031025564)
(0.09593761 -0.0060554806 0.00062940644)
(0.095208183 -0.0083291038 0.0010808)
(0.095165969 -0.013669401 0.0016393414)
(0.096561398 -0.024431267 0.0021552735)
(0.099137781 -0.025002808 0.0010854132)
(0.10380283 -0.018209242 -0.0010703653)
(0.10264653 -0.011595117 -0.00087131649)
(0.099026979 -0.0058472443 0.00076865933)
(0.091929042 -0.0014113378 0.0030529178)
(0.084165143 0.00024574081 0.0056577973)
(0.074289136 -0.0015491717 0.0090386967)
(0.062380838 -0.0057622739 0.012793377)
(0.050432293 -0.0099174202 0.015626643)
(0.040985394 -0.011391052 0.016696443)
(0.048799661 -0.0076432254 0.015995575)
(0.071199594 0.0014515922 0.01558564)
(0.10413575 0.016742985 0.015850157)
(0.12803001 0.033507369 0.017297148)
(0.14179885 0.053265433 0.022684682)
(0.14695346 0.079642877 0.033424063)
(0.12018028 0.1169319 0.048190125)
(0.097939891 -0.0015815174 -7.1167466e-05)
(0.096244021 -0.0023512783 -0.00013033935)
(0.093560292 -0.0026014984 -0.00016557781)
(0.090384676 -0.0026631409 -0.00017321199)
(0.087215734 -0.0026404454 -0.00015175794)
(0.084154457 -0.0025638314 -9.6126599e-05)
(0.081115744 -0.0024732813 5.6888009e-06)
(0.077944633 -0.0024264552 0.00017614429)
(0.074383922 -0.0025294958 0.00046491247)
(0.069950144 -0.003028912 0.00096771817)
(0.063623832 -0.0046002376 0.0018848132)
(0.0530767 -0.009345418 0.0037227948)
(0.036579305 -0.022343626 0.0080738636)
(-0.0084753748 -0.015518231 0.016949048)
(-0.043345341 0.003669278 0.015244604)
(-0.063267647 0.0067928867 0.013674032)
(-0.078502706 0.0069414465 0.012459946)
(-0.085947018 0.0041229994 0.0098018211)
(-0.087960867 -0.00056479383 0.0058668535)
(-0.08038187 -0.0057421928 0.00071532788)
(-0.070709591 -0.010315799 -0.002653337)
(-0.061427308 -0.01460134 -0.0037763439)
(-0.053590314 -0.019378538 -0.003112549)
(-0.046652161 -0.023438111 -0.0009460099)
(-0.039108676 -0.022983594 0.003109862)
(-0.032724054 -0.01385385 0.012538633)
(-0.0034001976 0.012713376 0.029522233)
(0.011757393 0.036073498 0.044830046)
(0.031043548 0.063043652 0.061611504)
(0.065154178 0.097065959 0.076188479)
(0.10576605 -0.0024943958 -0.00020966363)
(0.12018524 -0.0025715714 -0.00037879421)
(0.13313956 -0.0023947019 -0.00048385873)
(0.14369685 -0.0019373385 -0.00052758374)
(0.15295658 -0.0012704611 -0.00051756446)
(0.16142887 -0.00057162674 -0.0004564225)
(0.16916702 6.0592397e-05 -0.00034542438)
(0.17617437 0.00060379255 -0.00019357238)
(0.18250657 0.0010591758 6.9193653e-07)
(0.18826221 0.0014208814 0.00022094644)
(0.19357908 0.0016393427 0.00040346675)
(0.1986753 0.0015956859 0.00036557248)