/*--------------------------------*- C++ -*----------------------------------*\
| =========                 |                                                 |
| \\      /  F ield         | OpenFOAM: The Open Source CFD Toolbox           |
|  \\    /   O peration     | Version:  v2012                                 |
|   \\  /    A nd           | Website:  www.openfoam.com                      |
|    \\/     M anipulation  |                                                 |
\*---------------------------------------------------------------------------*/
FoamFile
{
    version     2.0;
    format      ascii;
    class       volScalarField;
    location    "130/rightSolid";
    object      T;
}
// * * * * * * * * * * * * * * * * * * * * * * * * * * * * * * * * * * * * * //

dimensions      [0 0 0 1 0 0 0];


internalField   nonuniform List<scalar> 
130
(
617.88631
622.03551
626.27207
630.3652
634.14277
637.54514
640.52638
643.03398
645.10921
646.77799
648.01991
648.84299
649.25259
614.30001
619.27822
624.25268
628.94206
633.1676
636.88652
640.08305
642.76797
644.96132
646.67735
647.94469
648.78873
649.21135
606.96671
613.84244
620.40122
626.31257
631.45751
635.81674
639.4349
642.38866
644.74044
646.53022
647.82134
648.6705
649.10131
595.87226
606.46417
615.63302
623.32219
629.59925
634.67331
638.74315
641.98082
644.50672
646.40047
647.74703
648.60679
649.02788
582.62008
599.42589
611.77691
621.09831
628.28175
633.88877
638.28408
641.71512
644.35273
646.31358
647.70345
648.58231
649.00585
582.6584
599.42955
611.74592
621.07565
628.26017
633.86674
638.26452
641.70282
644.33947
646.29899
647.69062
648.57167
648.99664
595.86865
606.46976
615.65149
623.32455
629.58087
634.64937
638.7179
641.95791
644.48236
646.37635
647.72537
648.59156
649.01585
606.9244
613.83324
620.43265
626.34582
631.44647
635.78235
639.39801
642.35538
644.70583
646.49765
647.79689
648.66119
649.09401
614.18298
619.1813
624.1828
628.90429
633.15062
636.87466
640.06571
642.74597
644.94118
646.66347
647.93645
648.7792
649.1998
617.73755
621.89871
626.14667
630.25269
634.05115
637.46546
640.44624
642.97775
645.08619
646.76283
648.00507
648.82579
649.23678
)
;

boundaryField
{
    maxX
    {
        type            zeroGradient;
    }
    minZ
    {
        type            zeroGradient;
    }
    maxZ
    {
        type            zeroGradient;
    }
    rightSolid_to_bottomWater
    {
        type            compressible::turbulentTemperatureCoupledBaffleMixed;
        refValue        nonuniform List<scalar> 
130
(
990.62699
994.0223
995.85437
998.34353
996.43845
998.49606
1004.2525
1001.5059
1000.8395
1005.853
1008.1858
1009.6401
1010.0722
989.87444
994.46974
998.66358
1002.6935
999.0997
997.92486
997.98941
1001.0514
1005.2978
1007.0113
1008.873
1012.0066
1013.5014
983.07312
981.69506
986.40189
990.64917
998.5421
1003.3763
1005.1368
1007.5324
1010.5269
1009.0717
1006.634
1006.9995
1010.091
973.52792
973.79073
978.34861
998.06604
1003.8749
1006.1756
1006.5285
1008.4534
1011.2846
1010.8815
1010.1472
1007.9589
1006.9802
954.48405
965.46352
994.61231
1000.863
1003.5989
1006.0741
1008.1409
1009.2521
1010.277
1009.1271
1009.8568
1008.309
1006.671
965.50959
965.70196
986.36021
998.75717
1001.4008
1003.2948
1005.4634
1008.9704
1009.0683
1007.5112
1008.6325
1007.242
1005.7446
975.47845
975.38961
983.73747
998.89225
1002.1356
1005.7019
1005.8801
1008.3309
1010.4688
1009.9585
1008.8705
1007.2752
1006.3706
983.08703
986.06274
997.32369
1001.0695
996.92377
999.33337
1002.6784
1006.7252
1008.7215
1006.8401
1004.7283
1008.185
1010.1081
985.1468
992.63921
997.01111
1004.0379
1003.1889
1002.3733
1001.0224
1001.9817
1005.1942
1007.5696
1010.1498
1012.1128
1013.0299
987.70802
992.03494
993.01186
994.52179
993.74172
995.77301
997.54457
997.79874
1002.6316
1006.613
1008.2911
1009.0063
1010.0055
)
;
        refGradient     uniform 0;
        valueFraction   nonuniform List<scalar> 
130
(
0.0075140686
0.0075140686
0.0075140686
0.0075140686
0.0075140686
0.0075140686
0.0075140686
0.0075140686
0.0075140686
0.0075140686
0.0075140686
0.0075140686
0.0075140686
0.0075140686
0.0075140686
0.0075140686
0.0075140686
0.0075140686
0.0075140686
0.0075140686
0.0075140686
0.0075140686
0.0075140686
0.0075140686
0.0075140686
0.0075140686
0.0075140686
0.0075140686
0.0075140686
0.0075140686
0.0075140686
0.0075140686
0.0075140686
0.0075140686
0.0075140686
0.0075140686
0.0075140686
0.0075140686
0.0075140686
0.0075140686
0.0075140686
0.0075140686
0.0075140686
0.0075140686
0.0075140686
0.0075140686
0.0075140686
0.0075140686
0.0075140686
0.0075140686
0.0075140686
0.0075140686
0.0075140686
0.0075140686
0.0075140686
0.0075140686
0.0075140686
0.0075140686
0.0075140686
0.0075140686
0.0075140686
0.0075140686
0.0075140686
0.0075140686
0.0075140686
0.0075140686
0.0075140686
0.0075140686
0.0075140686
0.0075140686
0.0075140686
0.0075140686
0.0075140686
0.0075140686
0.0075140686
0.0075140686
0.0075140686
0.0075140686
0.0075140686
0.0075140686
0.0075140686
0.0075140686
0.0075140686
0.0075140686
0.0075140686
0.0075140686
0.0075140686
0.0075140686
0.0075140686
0.0075140686
0.0075140686
0.0075140686
0.0075140686
0.0075140686
0.0075140686
0.0075140686
0.0075140686
0.0075140686
0.0075140686
0.0075140686
0.0075140686
0.0075140686
0.0075140686
0.0075140686
0.0075140686
0.0075140686
0.0075140686
0.0075140686
0.0075140686
0.0075140686
0.0075140686
0.0075140686
0.0075140686
0.0075140686
0.0075140686
0.0075140686
0.0075140686
0.0075140686
0.0075140686
0.0075140686
0.0075140686
0.0075140686
0.0075140686
0.0075140686
0.0075140686
0.0075140686
0.0075140686
0.0075140686
0.0075140686
0.0075140686
)
;
        value           nonuniform List<scalar> 
130
(
620.66689
624.80986
629.02781
633.10832
636.84258
640.23423
643.23578
645.7034
647.75765
649.45128
650.70116
651.52882
651.93849
617.10222
622.07692
627.04487
631.72859
635.89473
639.57629
642.74875
645.43601
647.64437
649.36007
650.63164
651.49272
651.92332
609.77356
616.58645
623.13054
629.02855
634.19336
638.55554
642.1592
645.1083
647.46449
649.22956
650.49241
651.33776
651.78847
598.69173
609.20486
618.33794
626.11652
632.38928
637.44183
641.48317
644.71048
647.23825
649.11441
650.44507
651.28175
651.69223
585.39701
602.15738
614.63331
623.93059
631.07974
636.66249
641.03969
644.45281
647.07791
649.01505
650.39969
651.26013
651.66808
585.51784
602.1628
614.5405
623.89226
631.04183
636.6198
641.00022
644.43852
647.05572
648.98846
650.3778
651.24158
651.65201
598.7027
609.22232
618.39668
626.12502
632.35798
637.41455
641.45328
644.68686
647.208
649.08359
650.41404
651.26155
651.67577
609.7316
616.60999
623.24361
629.13972
634.17025
638.49107
642.10416
645.06923
647.41661
649.1805
650.45385
651.33745
651.7814
616.95049
621.9669
626.96302
631.70119
635.90863
639.59798
642.75437
645.42119
647.62364
649.35053
650.63308
651.48408
651.90833
620.49731
624.65917
628.88201
632.96792
636.73141
640.13476
643.10596
645.61984
647.74831
649.44194
650.68722
651.50697
651.9223
)
;
        Tnbr            T;
        thicknessLayers List<scalar> 0();
        kappaLayers     List<scalar> 0();
        kappaMethod     solidThermo;
        kappa           none;
        alphaAni        none;
        alpha           none;
        field           T;
    }
    rightSolid_to_topAir
    {
        type            compressible::turbulentTemperatureCoupledBaffleMixed;
        refValue        nonuniform List<scalar> 
130
(
433.32328
431.52132
429.42334
427.33397
425.46108
423.91907
422.75664
421.99922
421.6985
421.98328
423.1329
425.68755
430.11364
404.44777
401.80021
399.65572
398.02211
396.8317
396.00053
395.45637
395.18285
395.26954
395.98202
397.90811
402.17572
408.26058
410.75904
405.3217
400.01899
395.47441
391.87523
389.12588
387.06924
385.62851
384.8502
384.92195
386.37164
390.73406
400.79496
437.03681
436.3419
434.09838
431.02747
427.69667
424.40213
421.30096
418.58371
416.52096
415.56719
416.91678
423.49554
431.69214
437.86031
440.00387
442.56031
445.94836
449.55367
452.78231
455.55089
457.78913
459.4963
460.87323
462.54922
465.91379
472.26204
438.0176
440.30551
442.76288
445.95454
449.45979
452.64019
455.36694
457.57895
459.27675
460.64334
462.28392
465.5575
471.64576
437.08863
436.36408
433.90687
430.54542
426.96561
423.49061
420.27267
417.47548
415.34043
414.29671
415.45193
421.4586
429.71379
410.60294
405.15089
399.83719
395.29016
391.70886
389.00991
387.04339
385.72759
385.09622
385.33146
386.95877
391.46388
401.29323
404.40284
401.76324
399.61288
397.95856
396.74422
395.9009
395.36849
395.13766
395.29927
396.12408
398.20671
402.65295
408.69117
433.26832
431.46238
429.35801
427.25727
425.37026
423.81633
422.65001
421.90247
421.62813
421.9565
423.16661
425.79115
430.25464
)
;
        refGradient     uniform 0;
        valueFraction   nonuniform List<scalar> 
130
(
0.00032132529
0.00032132529
0.00032132529
0.00032132529
0.00032132529
0.00032132529
0.00032132529
0.00032132529
0.00032132529
0.00032132529
0.00032132529
0.00032132529
0.00032132529
0.00032132529
0.00032132529
0.00032132529
0.00032132529
0.00032132529
0.00032132529
0.00032132529
0.00032132529
0.00032132529
0.00032132529
0.00032132529
0.00032132529
0.00032132529
0.00032132529
0.00032132529
0.00032132529
0.00032132529
0.00032132529
0.00032132529
0.00032132529
0.00032132529
0.00032132529
0.00032132529
0.00032132529
0.00032132529
0.00032132529
0.00032132529
0.00032132529
0.00032132529
0.00032132529
0.00032132529
0.00032132529
0.00032132529
0.00032132529
0.00032132529
0.00032132529
0.00032132529
0.00032132529
0.00032132529
0.00032132529
0.00032132529
0.00032132529
0.00032132529
0.00032132529
0.00032132529
0.00032132529
0.00032132529
0.00032132529
0.00032132529
0.00032132529
0.00032132529
0.00032132529
0.00032132529
0.00032132529
0.00032132529
0.00032132529
0.00032132529
0.00032132529
0.00032132529
0.00032132529
0.00032132529
0.00032132529
0.00032132529
0.00032132529
0.00032132529
0.00032132529
0.00032132529
0.00032132529
0.00032132529
0.00032132529
0.00032132529
0.00032132529
0.00032132529
0.00032132529
0.00032132529
0.00032132529
0.00032132529
0.00032132529
0.00032132529
0.00032132529
0.00032132529
0.00032132529
0.00032132529
0.00032132529
0.00032132529
0.00032132529
0.00032132529
0.00032132529
0.00032132529
0.00032132529
0.00032132529
0.00032132529
0.00032132529
0.00032132529
0.00032132529
0.00032132529
0.00032132529
0.00032132529
0.00032132529
0.00032132529
0.00032132529
0.00032132529
0.00032132529
0.00032132529
0.00032132529
0.00032132529
0.00032132529
0.00032132529
0.00032132529
0.00032132529
0.00032132529
0.00032132529
0.00032132529
0.00032132529
0.00032132529
0.00032132529
0.00032132529
)
;
        value           nonuniform List<scalar> 
130
(
617.80664
621.95336
626.18734
630.2779
634.05305
637.45321
640.43257
642.93862
645.0127
646.68076
647.92241
648.74587
649.15667
614.21255
619.18768
624.1592
628.84584
633.06899
636.78585
639.98065
642.66411
644.85637
646.57176
647.83907
648.68405
649.10841
606.88428
613.75523
620.30942
626.21657
631.35791
635.71424
639.33003
642.2819
644.63226
646.42116
647.71208
648.56218
648.996
595.80283
606.38994
615.55399
623.23873
629.51191
634.58261
638.64957
641.88482
644.40882
646.30132
647.64762
648.50904
648.93253
582.55616
599.35559
611.70214
621.02058
628.20199
633.80751
638.20167
641.63183
644.26876
646.22908
647.61877
648.49824
648.92358
582.59447
599.35933
611.67118
620.99791
628.18042
633.78549
638.18212
641.61951
644.25548
646.21445
647.6059
648.48752
648.91421
595.79913
606.39543
615.57231
623.24087
629.49331
634.55842
638.62404
641.8616
644.38414
646.27686
647.62555
648.49321
648.91993
606.84187
613.74583
620.34059
626.24962
631.34683
635.67986
639.29318
642.24869
644.59778
646.38876
647.68785
648.55314
648.98891
614.09549
619.0907
624.08925
628.80804
633.05201
636.774
639.96332
642.64213
644.83628
646.55797
647.83096
648.6747
649.09702
617.6579
621.8166
626.06197
630.16539
633.96146
637.3736
640.35255
642.88248
644.9897
646.66558
647.90757
648.7287
649.14091
)
;
        Tnbr            T;
        thicknessLayers List<scalar> 0();
        kappaLayers     List<scalar> 0();
        kappaMethod     solidThermo;
        kappa           none;
        alphaAni        none;
        alpha           none;
        field           T;
    }
    rightSolid_to_heater
    {
        type            compressible::turbulentTemperatureCoupledBaffleMixed;
        refValue        nonuniform List<scalar> 10(614.1101 609.70475 600.38642 584.70486 558.30208 558.31883 584.68389 600.33581 609.6036 613.96563);
        refGradient     uniform 0;
        valueFraction   nonuniform List<scalar> 10(0.50000003 0.50000003 0.50000003 0.50000003 0.50000003 0.50000003 0.50000003 0.50000003 0.50000003 0.50000003);
        value           nonuniform List<scalar> 10(615.98802 611.99236 603.66687 590.27936 570.45237 570.47988 590.26702 603.62038 611.88325 615.8414);
        Tnbr            T;
        thicknessLayers List<scalar> 0();
        kappaLayers     List<scalar> 0();
        kappaMethod     solidThermo;
        kappa           none;
        alphaAni        none;
        alpha           none;
        field           T;
    }
}


// ************************************************************************* //
