/*--------------------------------*- C++ -*----------------------------------*\
| =========                 |                                                 |
| \\      /  F ield         | OpenFOAM: The Open Source CFD Toolbox           |
|  \\    /   O peration     | Version:  v2012                                 |
|   \\  /    A nd           | Website:  www.openfoam.com                      |
|    \\/     M anipulation  |                                                 |
\*---------------------------------------------------------------------------*/
FoamFile
{
    version     2.0;
    format      ascii;
    class       volScalarField;
    location    "800/bottomWater";
    object      p;
}
// * * * * * * * * * * * * * * * * * * * * * * * * * * * * * * * * * * * * * //

dimensions      [1 -1 -2 0 0 0 0];


internalField   nonuniform List<scalar> 
1460
(
353.46448
353.46559
353.46708
353.44491
353.46467
353.44727
353.45002
353.46057
353.47538
353.4629
353.45911
353.46405
353.46457
353.46055
353.46617
353.46494
353.446
353.45016
353.45094
353.4486
353.44233
353.45205
353.44913
353.45318
353.44838
353.45376
353.47591
353.46371
353.46725
353.46473
274.42098
274.46069
274.4546
274.42553
274.4082
274.41855
274.43197
274.46996
274.50218
274.44569
274.41153
274.41039
274.40553
274.39819
274.45602
274.49624
274.48313
274.45327
274.48924
274.472
274.44524
274.41806
274.44551
274.4111
274.40378
274.43269
274.49269
274.48526
274.44326
274.42815
196.28278
196.23886
196.26244
196.28009
196.30797
196.29384
196.28825
196.2544
196.23578
196.24426
196.27397
196.30065
196.32074
196.27581
196.25521
196.25397
196.27239
196.29992
196.25548
196.24227
196.26027
196.27858
196.28533
196.30326
196.27073
196.24403
196.23865
196.25077
196.27677
196.29781
117.66277
117.64699
117.678
117.67767
117.70543
117.71812
117.67904
117.66712
117.64896
117.6577
117.64993
117.67885
117.675
117.65368
117.63158
117.63652
117.64664
117.67728
117.68424
117.66317
117.62716
117.68745
117.64588
117.68601
117.67673
117.63484
117.65451
117.65409
117.68667
117.68046
39.245874
39.242215
39.234889
39.246108
39.255413
39.243884
39.230711
39.221509
39.248455
39.257294
39.259269
39.268636
39.271227
39.251679
39.254804
39.242677
39.219258
39.225193
39.219059
39.210456
39.240004
39.236917
39.259921
39.255155
39.258418
39.252771
39.246388
39.2204
39.22875
39.24621
353.46787
353.46491
353.47714
353.45557
353.47078
353.45118
353.4535
353.45391
353.45367
353.45459
353.45677
353.45527
353.4585
353.45931
353.45819
353.45287
353.44268
353.44986
353.43642
353.45529
353.4333
353.45776
353.44733
353.45809
353.45325
353.45202
353.47686
353.46163
353.46665
353.46508
274.40742
274.41862
274.47476
274.46411
274.45599
274.42981
274.42713
274.41796
274.42117
274.41285
274.39722
274.41773
274.40199
274.42889
274.46248
274.4646
274.43725
274.42973
274.43676
274.46183
274.45443
274.46012
274.42674
274.40368
274.40407
274.41882
274.47538
274.44955
274.40725
274.40508
196.28815
196.25572
196.24894
196.27073
196.26783
196.30348
196.28314
196.30379
196.29018
196.30774
196.3054
196.29569
196.2895
196.28088
196.25665
196.28104
196.30942
196.29107
196.26656
196.23357
196.31452
196.24106
196.27579
196.29561
196.27985
196.25261
196.23712
196.25974
196.2802
196.30426
117.67997
117.62507
117.64154
117.64658
117.67407
117.67729
117.64107
117.66087
117.62355
117.65661
117.6724
117.62607
117.65181
117.60872
117.62896
117.64471
117.66446
117.67772
117.64517
117.64817
117.62479
117.65438
117.62369
117.68411
117.68058
117.62382
117.64839
117.64866
117.66118
117.68665
39.263248
39.260552
39.242963
39.223958
39.233026
39.231891
39.229613
39.240626
39.262078
39.244295
39.24437
39.253967
39.249087
39.256399
39.235557
39.223224
39.224353
39.224297
39.232558
39.228139
39.268095
39.26628
39.26875
39.270798
39.269082
39.267728
39.258816
39.236908
39.239314
39.257615
353.46478
353.4587
353.4769
353.44194
353.45748
353.44798
353.45985
353.45737
353.45857
353.46332
353.4622
353.46245
353.45761
353.45275
353.45095
353.45706
353.44912
353.44235
353.44505
353.43432
353.44757
353.45625
353.45497
353.45686
353.45621
353.45486
353.46303
353.46571
353.46459
353.46596
274.40877
274.40924
274.44872
274.43227
274.42052
274.44214
274.45382
274.4295
274.3984
274.39939
274.41213
274.44704
274.45221
274.43392
274.42707
274.46824
274.46946
274.41926
274.42822
274.42487
274.46099
274.46793
274.4067
274.40461
274.40735
274.42077
274.45833
274.45478
274.41503
274.40774
196.30298
196.27219
196.23971
196.28839
196.30713
196.27045
196.24305
196.26074
196.26286
196.28918
196.26819
196.24856
196.25125
196.27609
196.29947
196.26756
196.25882
196.28923
196.29389
196.27325
196.2452
196.24668
196.26617
196.30472
196.29272
196.26276
196.23807
196.27652
196.26282
196.30918
117.69081
117.63372
117.66101
117.64263
117.69417
117.66595
117.65154
117.64715
117.68109
117.68757
117.63978
117.66289
117.65415
117.66244
117.66438
117.65937
117.63512
117.66484
117.69018
117.65813
117.64215
117.64754
117.63735
117.67827
117.67972
117.62854
117.64598
117.66582
117.63047
117.6814
39.275498
39.27252
39.260995
39.240073
39.238576
39.235011
39.241907
39.263669
39.256337
39.27621
39.260082
39.240007
39.243791
39.23236
39.22577
39.235903
39.238172
39.235865
39.230634
39.225069
39.233382
39.252286
39.251237
39.272515
39.263762
39.261357
39.252498
39.237216
39.262859
39.266216
353.46267
353.45947
353.4595
353.46425
353.46093
353.45763
353.46984
353.46214
353.46192
353.46701
353.46609
353.46714
353.45972
353.45117
353.43922
353.43738
353.43986
353.43818
353.44341
353.43544
353.4413
353.45682
353.46123
353.46268
353.46074
353.45907
353.45631
353.4667
353.45988
353.463
274.40955
274.39499
274.42573
274.4628
274.45975
274.47658
274.49111
274.43906
274.40047
274.40467
274.41318
274.47654
274.47029
274.46726
274.44462
274.4559
274.4442
274.41924
274.41879
274.42976
274.44535
274.48136
274.44617
274.39765
274.40266
274.42122
274.43643
274.45794
274.41682
274.40245
196.34423
196.27768
196.26892
196.24821
196.27822
196.26016
196.24028
196.23549
196.27336
196.29085
196.26041
196.23569
196.25813
196.27278
196.3018
196.29479
196.29243
196.30572
196.30152
196.26451
196.25638
196.26159
196.25689
196.2705
196.29615
196.27155
196.25475
196.26311
196.24417
196.28276
117.68848
117.66335
117.62406
117.62759
117.66363
117.6628
117.65122
117.6461
117.67897
117.68313
117.63104
117.63471
117.65932
117.65469
117.63845
117.62503
117.61915
117.67733
117.68622
117.66793
117.66975
117.676
117.65151
117.66957
117.67389
117.62998
117.65379
117.67037
117.61588
117.66911
39.28141
39.268467
39.262958
39.244825
39.231777
39.236149
39.250446
39.256789
39.26121
39.264536
39.263537
39.250943
39.230409
39.230307
39.240897
39.270544
39.270663
39.240677
39.242453
39.241396
39.230568
39.230092
39.234539
39.248303
39.249456
39.241772
39.23295
39.234087
39.251621
39.253509
353.45957
353.45996
353.46117
353.4612
353.46028
353.46236
353.46528
353.4659
353.46671
353.45647
353.47526
353.46213
353.45649
353.43959
353.44703
353.43962
353.43537
353.4503
353.46577
353.46803
353.46713
353.4633
353.46798
353.47801
353.47772
353.47657
274.40634
274.39993
274.42806
274.47133
274.48199
274.47611
274.44714
274.39807
274.40999
274.41425
274.47546
274.46724
274.43331
274.41874
274.41374
274.41631
274.41611
274.45879
274.49241
274.47202
274.42305
274.4285
274.46194
274.48218
274.44861
274.41006
196.31898
196.27289
196.25732
196.25081
196.26083
196.25347
196.22563
196.26978
196.28013
196.26271
196.23432
196.25954
196.30394
196.31121
196.30938
196.26986
196.24741
196.22465
196.24282
196.24882
196.27536
196.30223
196.24799
196.27068
196.2235
196.27689
117.67384
117.65426
117.62976
117.65187
117.67129
117.66711
117.63571
117.6619
117.68898
117.63891
117.65613
117.66053
117.69561
117.68339
117.68104
117.66896
117.65461
117.66211
117.67091
117.66351
117.68664
117.67618
117.68324
117.67743
117.62904
117.65953
39.267075
39.256476
39.246777
39.225679
39.22615
39.235694
39.245571
39.25383
39.260074
39.261513
39.255148
39.22822
39.242828
39.237395
39.250062
39.245962
39.248595
39.247181
39.234497
39.23226
39.219197
39.216404
39.220368
39.220818
39.234612
39.238567
353.4596
353.46315
353.46407
353.46282
353.46406
353.45707
353.45852
353.46782
353.46288
353.45457
353.46993
353.45332
353.45863
353.44076
353.44534
353.4444
353.44499
353.44441
353.44648
353.46494
353.46252
353.47634
353.46101
353.47799
353.47411
353.47413
274.41989
274.44783
274.47726
274.47425
274.46087
274.4269
274.40179
274.40351
274.40823
274.41278
274.44641
274.42259
274.41685
274.42774
274.41746
274.41501
274.41157
274.41652
274.42961
274.47217
274.47372
274.47394
274.46174
274.46379
274.43043
274.40021
196.29231
196.24813
196.25012
196.24973
196.24454
196.23374
196.25489
196.30016
196.29177
196.28249
196.23685
196.27387
196.29334
196.29869
196.30657
196.3147
196.29395
196.2662
196.24783
196.22848
196.25904
196.25717
196.26524
196.26487
196.24682
196.28416
117.67579
117.65468
117.66792
117.67741
117.68
117.64545
117.67502
117.6912
117.70375
117.6683
117.66284
117.66566
117.70181
117.64608
117.67342
117.67788
117.67528
117.66312
117.64559
117.65341
117.67207
117.69319
117.65143
117.64701
117.60577
117.66566
39.230947
39.234907
39.228269
39.220735
39.23094
39.238221
39.245659
39.253504
39.244558
39.242922
39.255461
39.238849
39.243148
39.255314
39.254119
39.259822
39.255275
39.254191
39.251641
39.239994
39.22176
39.226041
39.21221
39.220151
39.247247
39.251297
353.44663
353.44978
353.43985
353.43598
353.43637
353.44213
353.44643
353.44891
353.44613
353.45288
353.45095
353.44954
353.44899
353.45959
353.46301
353.45833
353.44892
353.43946
353.45929
353.44559
353.45221
353.45124
353.44664
353.43886
353.43993
353.43801
353.4392
353.48136
353.47479
353.47694
274.44157
274.47221
274.44946
274.42936
274.43096
274.41284
274.42339
274.41807
274.41286
274.40111
274.40303
274.42636
274.43326
274.45146
274.47009
274.46021
274.45453
274.44957
274.45361
274.43001
274.41022
274.41199
274.40708
274.42715
274.42836
274.42973
274.43034
274.45867
274.41181
274.39705
196.27335
196.24635
196.25627
196.27792
196.28227
196.2752
196.29525
196.26405
196.30031
196.29801
196.29925
196.2671
196.27759
196.25752
196.26008
196.27248
196.28397
196.29668
196.23989
196.27962
196.28415
196.29224
196.26348
196.26407
196.26577
196.29364
196.28299
196.25354
196.26125
196.29652
117.66015
117.64647
117.64128
117.66096
117.67413
117.66349
117.65996
117.65191
117.66397
117.67468
117.66026
117.64189
117.64927
117.65207
117.68193
117.64467
117.63694
117.61842
117.63365
117.63167
117.6772
117.68109
117.67145
117.63097
117.65194
117.65392
117.61749
117.63603
117.58759
117.67516
39.248777
39.254117
39.236874
39.226102
39.22466
39.212647
39.23914
39.261983
39.259517
39.260441
39.254018
39.24969
39.236379
39.220909
39.230856
39.22614
39.260146
39.291068
39.249756
39.26374
39.262862
39.270392
39.25727
39.255633
39.252372
39.223748
39.22849
39.249507
39.26637
39.27066
353.45153
353.44831
353.44991
353.45016
353.45151
353.45214
353.45615
353.47625
353.46502
353.46583
353.46301
353.46478
353.47305
353.47003
353.47198
353.4704
353.47985
353.46738
353.45082
353.44694
353.44555
353.44465
353.45404
353.45439
353.45367
353.45657
353.43859
353.48483
353.47648
353.47926
274.43383
274.41416
274.41554
274.42036
274.41779
274.42531
274.4462
274.49409
274.44068
274.40533
274.41006
274.44668
274.44964
274.40093
274.39767
274.40904
274.47046
274.47082
274.42791
274.41557
274.41933
274.42604
274.43386
274.41149
274.40854
274.4203
274.42199
274.44363
274.40021
274.39419
196.27859
196.28581
196.29861
196.30075
196.29369
196.27334
196.24825
196.23789
196.23826
196.28075
196.28779
196.23735
196.24758
196.28857
196.28595
196.2652
196.24784
196.26082
196.30323
196.30405
196.30391
196.29356
196.31231
196.30091
196.30129
196.29406
196.28502
196.24015
196.26919
196.31349
117.65674
117.65498
117.67126
117.68972
117.68664
117.66904
117.66433
117.67298
117.66435
117.68438
117.67577
117.65116
117.66273
117.67211
117.68744
117.64137
117.65759
117.65809
117.6667
117.67468
117.64292
117.63084
117.63221
117.6745
117.67343
117.66339
117.63851
117.6484
117.61298
117.68923
39.277237
39.255638
39.246466
39.235617
39.231589
39.23556
39.261935
39.271113
39.257782
39.261152
39.258528
39.259566
39.253779
39.234059
39.239364
39.235481
39.239547
39.232005
39.225984
39.229436
39.233869
39.271208
39.29013
39.256647
39.264712
39.237618
39.243439
39.258649
39.272373
39.286604
353.45075
353.44605
353.446
353.44798
353.45073
353.43779
353.45498
353.47427
353.45773
353.46289
353.45852
353.46568
353.46567
353.45867
353.46332
353.45862
353.45892
353.45285
353.4518
353.4598
353.45434
353.46427
353.45372
353.45335
353.45994
353.45347
353.44549
353.47688
353.47224
353.47398
274.46848
274.43036
274.41627
274.41196
274.41787
274.43224
274.46543
274.4802
274.41525
274.40598
274.41762
274.4687
274.45973
274.40996
274.4016
274.3991
274.41025
274.42593
274.42709
274.45907
274.46543
274.46949
274.42269
274.40685
274.4054
274.40979
274.41766
274.43991
274.40829
274.39465
196.24211
196.25023
196.26944
196.289
196.27667
196.25028
196.22443
196.22823
196.25787
196.27461
196.29381
196.23135
196.25764
196.29225
196.31156
196.31431
196.29882
196.29473
196.29926
196.27643
196.25893
196.23269
196.24872
196.27792
196.31756
196.27824
196.29089
196.25924
196.26972
196.29224
117.65044
117.63532
117.6756
117.68902
117.68924
117.65586
117.66399
117.67096
117.65065
117.68709
117.65846
117.64493
117.6603
117.6592
117.6894
117.65662
117.60311
117.62793
117.63773
117.67659
117.65404
117.63808
117.63286
117.66701
117.67445
117.6619
117.63836
117.64516
117.5889
117.66351
39.24819
39.232196
39.230327
39.238529
39.235172
39.247428
39.250502
39.264415
39.257004
39.267448
39.257512
39.251126
39.243119
39.226048
39.270412
39.257342
39.27798
39.263793
39.2279
39.230213
39.223228
39.246565
39.262793
39.257683
39.270085
39.255899
39.237913
39.23738
39.255867
39.259763
353.449
353.45035
353.45332
353.44997
353.44803
353.44609
353.44433
353.44328
353.44837
353.45208
353.45301
353.46802
353.4676
353.47084
353.46552
353.46603
353.46731
353.46917
353.4619
353.45447
353.45938
353.45573
353.45506
353.45249
353.45735
353.4478
353.45967
353.47436
353.47285
353.4723
274.50047
274.48455
274.48036
274.44933
274.42538
274.41469
274.42727
274.44473
274.41522
274.40914
274.42497
274.47708
274.47718
274.44941
274.42074
274.40591
274.40158
274.47062
274.48744
274.47359
274.48857
274.48484
274.46152
274.41503
274.41416
274.43256
274.45595
274.4755
274.43543
274.41512
196.26354
196.26593
196.25338
196.24223
196.27227
196.28662
196.29757
196.26715
196.30197
196.27278
196.25859
196.23634
196.27584
196.268
196.28759
196.29826
196.28946
196.23694
196.25839
196.29224
196.26579
196.27143
196.23692
196.27368
196.2807
196.26316
196.25464
196.26719
196.25898
196.28217
117.66693
117.67922
117.68132
117.66963
117.6692
117.69682
117.68174
117.666
117.68885
117.67716
117.65322
117.67032
117.67403
117.66187
117.62513
117.68241
117.65129
117.63313
117.63883
117.65912
117.68389
117.66391
117.64047
117.66265
117.6761
117.63332
117.66638
117.67509
117.63823
117.64624
39.228884
39.222185
39.217612
39.235703
39.243026
39.231489
39.236571
39.255106
39.240906
39.24759
39.251099
39.246037
39.240183
39.249019
39.281413
39.271955
39.258625
39.256765
39.236896
39.228732
39.231308
39.227937
39.247721
39.245034
39.257328
39.255658
39.239649
39.233048
39.231277
39.24412
)
;

boundaryField
{
    minX
    {
        type            calculated;
        value           nonuniform List<scalar> 
50
(
353.46448
274.42098
196.28278
117.66277
39.245874
353.46787
274.40742
196.28815
117.67997
39.263248
353.46478
274.40877
196.30298
117.69081
39.275498
353.46267
274.40955
196.34423
117.68848
39.28141
353.45957
274.40634
196.31898
117.67384
39.267075
353.4596
274.41989
196.29231
117.67579
39.230947
353.44663
274.44157
196.27335
117.66015
39.248777
353.45153
274.43383
196.27859
117.65674
39.277237
353.45075
274.46848
196.24211
117.65044
39.24819
353.449
274.50047
196.26354
117.66693
39.228884
)
;
    }
    maxX
    {
        type            calculated;
        value           nonuniform List<scalar> 
50
(
353.46473
274.42815
196.29781
117.68046
39.24621
353.46508
274.40508
196.30426
117.68665
39.257615
353.46596
274.40774
196.30918
117.6814
39.266216
353.463
274.40245
196.28276
117.66911
39.253509
353.47657
274.41006
196.27689
117.65953
39.238567
353.47413
274.40021
196.28416
117.66566
39.251297
353.47694
274.39705
196.29652
117.67516
39.27066
353.47926
274.39419
196.31349
117.68923
39.286604
353.47398
274.39465
196.29224
117.66351
39.259763
353.4723
274.41512
196.28217
117.64624
39.24412
)
;
    }
    minY
    {
        type            calculated;
        value           nonuniform List<scalar> 
292
(
392.4
392.4
392.4
392.4
392.4
392.4
392.4
392.4
392.4
392.4
392.4
392.4
392.4
392.4
392.4
392.4
392.4
392.4
392.4
392.4
392.4
392.4
392.4
392.4
392.4
392.4
392.4
392.4
392.4
392.4
392.4
392.4
392.4
392.4
392.4
392.4
392.4
392.4
392.4
392.4
392.4
392.4
392.4
392.4
392.4
392.4
392.4
392.4
392.4
392.4
392.4
392.4
392.4
392.4
392.4
392.4
392.4
392.4
392.4
392.4
392.4
392.4
392.4
392.4
392.4
392.4
392.4
392.4
392.4
392.4
392.4
392.4
392.4
392.4
392.4
392.4
392.4
392.4
392.4
392.4
392.4
392.4
392.4
392.4
392.4
392.4
392.4
392.4
392.4
392.4
392.4
392.4
392.4
392.4
392.4
392.4
392.4
392.4
392.4
392.4
392.4
392.4
392.4
392.4
392.4
392.4
392.4
392.4
392.4
392.4
392.4
392.4
392.4
392.4
392.4
392.4
392.4
392.4
392.4
392.4
392.4
392.4
392.4
392.4
392.4
392.4
392.4
392.4
392.4
392.4
392.4
392.4
392.4
392.4
392.4
392.4
392.4
392.4
392.4
392.4
392.4
392.4
392.4
392.4
392.4
392.4
392.4
392.4
392.4
392.4
392.4
392.4
392.4
392.4
392.4
392.4
392.4
392.4
392.4
392.4
392.4
392.4
392.4
392.4
392.4
392.4
392.4
392.4
392.4
392.4
392.4
392.4
392.4
392.4
392.4
392.4
392.4
392.4
392.4
392.4
392.4
392.4
392.4
392.4
392.4
392.4
392.4
392.4
392.4
392.4
392.4
392.4
392.4
392.4
392.4
392.4
392.4
392.4
392.4
392.4
392.4
392.4
392.4
392.4
392.4
392.4
392.4
392.4
392.4
392.4
392.4
392.4
392.4
392.4
392.4
392.4
392.4
392.4
392.4
392.4
392.4
392.4
392.4
392.4
392.4
392.4
392.4
392.4
392.4
392.4
392.4
392.4
392.4
392.4
392.4
392.4
392.4
392.4
392.4
392.4
392.4
392.4
392.4
392.4
392.4
392.4
392.4
392.4
392.4
392.4
392.4
392.4
392.4
392.4
392.4
392.4
392.4
392.4
392.4
392.4
392.4
392.4
392.4
392.4
392.4
392.4
392.4
392.4
392.4
392.4
392.4
392.4
392.4
392.4
392.4
392.4
392.4
392.4
392.4
392.4
392.4
392.4
392.4
392.4
392.4
392.4
392.4
392.4
392.4
392.4
392.4
392.4
)
;
    }
    minZ
    {
        type            calculated;
        value           nonuniform List<scalar> 
150
(
353.46448
274.42098
196.28278
117.66277
39.245874
353.46559
274.46069
196.23886
117.64699
39.242215
353.46708
274.4546
196.26244
117.678
39.234889
353.44491
274.42553
196.28009
117.67767
39.246108
353.46467
274.4082
196.30797
117.70543
39.255413
353.44727
274.41855
196.29384
117.71812
39.243884
353.45002
274.43197
196.28825
117.67904
39.230711
353.46057
274.46996
196.2544
117.66712
39.221509
353.47538
274.50218
196.23578
117.64896
39.248455
353.4629
274.44569
196.24426
117.6577
39.257294
353.45911
274.41153
196.27397
117.64993
39.259269
353.46405
274.41039
196.30065
117.67885
39.268636
353.46457
274.40553
196.32074
117.675
39.271227
353.46055
274.39819
196.27581
117.65368
39.251679
353.46617
274.45602
196.25521
117.63158
39.254804
353.46494
274.49624
196.25397
117.63652
39.242677
353.446
274.48313
196.27239
117.64664
39.219258
353.45016
274.45327
196.29992
117.67728
39.225193
353.45094
274.48924
196.25548
117.68424
39.219059
353.4486
274.472
196.24227
117.66317
39.210456
353.44233
274.44524
196.26027
117.62716
39.240004
353.45205
274.41806
196.27858
117.68745
39.236917
353.44913
274.44551
196.28533
117.64588
39.259921
353.45318
274.4111
196.30326
117.68601
39.255155
353.44838
274.40378
196.27073
117.67673
39.258418
353.45376
274.43269
196.24403
117.63484
39.252771
353.47591
274.49269
196.23865
117.65451
39.246388
353.46371
274.48526
196.25077
117.65409
39.2204
353.46725
274.44326
196.27677
117.68667
39.22875
353.46473
274.42815
196.29781
117.68046
39.24621
)
;
    }
    maxZ
    {
        type            calculated;
        value           nonuniform List<scalar> 
150
(
353.449
274.50047
196.26354
117.66693
39.228884
353.45035
274.48455
196.26593
117.67922
39.222185
353.45332
274.48036
196.25338
117.68132
39.217612
353.44997
274.44933
196.24223
117.66963
39.235703
353.44803
274.42538
196.27227
117.6692
39.243026
353.44609
274.41469
196.28662
117.69682
39.231489
353.44433
274.42727
196.29757
117.68174
39.236571
353.44328
274.44473
196.26715
117.666
39.255106
353.44837
274.41522
196.30197
117.68885
39.240906
353.45208
274.40914
196.27278
117.67716
39.24759
353.45301
274.42497
196.25859
117.65322
39.251099
353.46802
274.47708
196.23634
117.67032
39.246037
353.4676
274.47718
196.27584
117.67403
39.240183
353.47084
274.44941
196.268
117.66187
39.249019
353.46552
274.42074
196.28759
117.62513
39.281413
353.46603
274.40591
196.29826
117.68241
39.271955
353.46731
274.40158
196.28946
117.65129
39.258625
353.46917
274.47062
196.23694
117.63313
39.256765
353.4619
274.48744
196.25839
117.63883
39.236896
353.45447
274.47359
196.29224
117.65912
39.228732
353.45938
274.48857
196.26579
117.68389
39.231308
353.45573
274.48484
196.27143
117.66391
39.227937
353.45506
274.46152
196.23692
117.64047
39.247721
353.45249
274.41503
196.27368
117.66265
39.245034
353.45735
274.41416
196.2807
117.6761
39.257328
353.4478
274.43256
196.26316
117.63332
39.255658
353.45967
274.45595
196.25464
117.66638
39.239649
353.47436
274.4755
196.26719
117.67509
39.233048
353.47285
274.43543
196.25898
117.63823
39.231277
353.4723
274.41512
196.28217
117.64624
39.24412
)
;
    }
    bottomWater_to_rightSolid
    {
        type            calculated;
        value           nonuniform List<scalar> 
130
(
-0.014806502
-0.020940902
-0.029543518
3.8647489e-06
-0.0030825699
0.019921244
0.015155264
0.018417752
0.012771213
0.006387939
-0.019599999
-0.011250467
0.0062096003
-0.015703445
-0.007441559
-0.011861309
0.028094769
0.026279552
0.028750233
0.030798073
0.02908172
0.027727534
0.018816122
-0.0030917812
-0.00068584117
0.017614986
-0.0041345746
-0.0093658939
-0.01493069
-0.0066178509
0.012286041
0.011237218
0.032514663
0.023762471
0.021357332
0.012498146
-0.0027836349
0.022858531
0.026216283
0.00067705054
0.0024529554
0.0013962007
-0.0094322095
-0.0099077587
-0.0054611379
0.0083033304
0.0094564042
0.0017715182
-0.0070500912
-0.005913209
0.011620524
0.013508832
-0.0026049037
0.010062373
0.0059615976
0.0085953677
0.007181278
-0.0055030425
-0.0077398365
-0.020802888
-0.023595624
-0.019631985
-0.019182258
-0.005388318
-0.0014326142
0.015314297
0.014119224
0.019822457
0.015274861
0.014190595
0.011640594
-5.7610798e-06
-0.018240469
-0.013959218
-0.027790011
-0.019848888
0.0072465601
0.011297364
0.05106767
0.0097559046
0.023739913
0.022861509
0.030391735
0.017270117
0.015633183
0.01237183
-0.016251941
-0.011509847
0.0095069234
0.026370248
0.030660098
-0.0079945262
-0.014016444
-0.010564306
-0.0061311486
0.03120818
0.050130448
0.016646814
0.024712055
-0.0023818289
0.0034385427
0.018649324
0.032372642
0.046604137
0.023792846
-0.01209976
-0.0097873826
-0.016772269
0.0065648044
0.022792576
0.017683204
0.030085101
0.015898567
-0.0020867416
-0.0026199944
0.015866623
0.019763106
0.016765405
-0.0031039984
-0.011268305
-0.0086921881
-0.012063486
0.0077211471
0.0050341073
0.017327762
0.01565814
-0.00035092811
-0.0069520659
-0.0087233134
0.0041196261
)
;
    }
    bottomWater_to_leftSolid
    {
        type            calculated;
        value           nonuniform List<scalar> 
130
(
0.0058740416
0.0022152536
-0.0051105716
0.0061084578
0.015413443
0.0038843707
-0.0092891844
-0.018490691
0.0084546823
0.017293537
0.0192688
0.028635884
0.031227236
0.023247821
0.020552102
0.002962895
-0.016041603
-0.0069738333
-0.008108905
-0.01038683
0.00062646254
0.022078051
0.0042947499
0.0043704834
0.013966728
0.0090873458
0.035497616
0.032519933
0.020994589
7.3466345e-05
-0.0014240352
-0.0049890782
0.0019071937
0.023669273
0.016336853
0.03621014
0.02008207
7.3738968e-06
0.0037912589
0.041409846
0.028467195
0.022957708
0.0048253985
-0.0082225352
-0.0038507683
0.010446133
0.016789272
0.021210297
0.024536031
0.023537249
0.010943119
-0.0095909744
0.027074794
0.016476242
0.0067770816
-0.014321251
-0.013849652
-0.0043063333
0.0055710528
0.013830101
0.020074409
0.021513117
0.015148472
-0.011780279
0.0028278308
-0.0090525423
-0.005092882
-0.01173148
-0.019264817
-0.0090600775
-0.0017791788
0.0056587583
0.013504128
0.0045578286
0.0029216173
0.015460563
-0.0011505632
0.0031484885
0.0087770334
0.01411679
-0.003126459
-0.013898205
-0.015339803
-0.027352535
-0.0008603983
0.021982842
0.01951667
0.020440654
0.014018276
0.0096904908
-0.0036206155
0.037236654
0.015638097
0.0064660348
-0.0043834448
-0.008410541
-0.004439694
0.021934948
0.031112841
0.017781936
0.021152219
0.018528063
0.019566064
0.013778631
0.0081899343
-0.0078035397
-0.0096727545
-0.0014714171
-0.004828285
0.0074284972
0.010502462
0.024414968
0.017004285
0.027448067
0.017511809
0.011125555
0.0031186041
-0.011116161
-0.017815149
-0.022388369
-0.0042971078
0.0030255889
-0.0085109697
-0.0034292756
0.015105883
0.00090626612
0.0075896362
0.011099175
0.006036643
0.0001828114
)
;
    }
    bottomWater_to_heater
    {
        type            calculated;
        value           nonuniform List<scalar> 
92
(
0.011678775
0.014803965
0.0026768567
-0.020741785
0.016399094
-0.0044432792
-0.016775783
-0.01564702
-0.0076396525
-0.014230114
-0.0040974013
-0.0018278933
353.45117
353.43922
353.43738
353.43986
274.46726
274.44462
274.4559
274.4442
196.27278
196.3018
196.29479
196.29243
117.65469
117.63845
117.62503
117.61915
-0.0096931727
39.230307
0.00089664586
39.240897
0.030543558
39.270544
0.030663311
39.270663
353.45649
353.43959
274.43331
274.41874
196.30394
196.31121
117.69561
117.68339
39.242828
39.237395
353.45863
353.45959
353.46301
353.45833
353.44076
353.44892
274.41685
274.45146
274.47009
274.46021
274.42774
274.45453
196.29334
196.25752
196.26008
196.27248
196.29869
196.28397
117.70181
117.65207
117.68193
117.64467
117.64608
117.63694
39.243148
39.220909
39.230856
39.22614
39.255314
39.260146
-0.019090574
-0.0091443191
-0.013860455
0.020145888
-0.0059405173
-0.00063611291
-0.0045186562
-0.0004532473
-0.013952384
0.030411818
0.017341734
0.037980377
0.0090185339
0.041412888
0.03195468
0.018624559
)
;
    }
}


// ************************************************************************* //
