/*--------------------------------*- C++ -*----------------------------------*\
| =========                 |                                                 |
| \\      /  F ield         | OpenFOAM: The Open Source CFD Toolbox           |
|  \\    /   O peration     | Version:  v2012                                 |
|   \\  /    A nd           | Website:  www.openfoam.com                      |
|    \\/     M anipulation  |                                                 |
\*---------------------------------------------------------------------------*/
FoamFile
{
    version     2.0;
    format      ascii;
    class       volScalarField;
    location    "800/bottomWater";
    object      p_rgh;
}
// * * * * * * * * * * * * * * * * * * * * * * * * * * * * * * * * * * * * * //

dimensions      [1 -1 -2 0 0 0 0];


internalField   nonuniform List<scalar> 
1460
(
0.30448339
0.3055867
0.30707534
0.28490635
0.30466674
0.28726968
0.29001903
0.30056751
0.3153781
0.30290002
0.29910745
0.30404698
0.30457262
0.30054691
0.30616981
0.30494164
0.28599826
0.2901591
0.29094293
0.28859666
0.28233073
0.29205249
0.28913445
0.2931844
0.28838262
0.29376247
0.3159131
0.30370708
0.30724788
0.30473009
-0.25902402
-0.21930703
-0.22539677
-0.25446788
-0.27179995
-0.2614478
-0.24803176
-0.21003759
-0.17781508
-0.23431246
-0.2684709
-0.26960882
-0.27447472
-0.28181161
-0.22398149
-0.18376401
-0.19687286
-0.22673368
-0.19076335
-0.20799579
-0.23476079
-0.26193553
-0.23448501
-0.26889865
-0.2762158
-0.24730977
-0.18730968
-0.19473924
-0.23674398
-0.25185175
0.082780866
0.038855584
0.062440284
0.080089884
0.10796908
0.093841161
0.08824686
0.054400596
0.035781699
0.044258113
0.07396997
0.10065399
0.1207404
0.075810754
0.055205978
0.053972133
0.072394002
0.099924635
0.055475657
0.04226754
0.060268837
0.078580614
0.085334821
0.10326415
0.070727364
0.044034634
0.038647731
0.050767681
0.07677063
0.097811229
-0.057232315
-0.073005481
-0.041997361
-0.04232824
-0.014573287
-0.0018816979
-0.040962244
-0.052878575
-0.071038038
-0.062301585
-0.070070217
-0.041154764
-0.044998916
-0.066317826
-0.088418851
-0.083475135
-0.073356886
-0.042720584
-0.035764116
-0.056825204
-0.09283598
-0.032547839
-0.074122863
-0.033989769
-0.043267128
-0.085158658
-0.065491806
-0.065911056
-0.033333075
-0.039536189
0.0058740416
0.0022152536
-0.0051105716
0.0061084578
0.015413443
0.0038843707
-0.0092891844
-0.018490691
0.0084546823
0.017293537
0.0192688
0.028635884
0.031227236
0.011678775
0.014803965
0.0026768567
-0.020741785
-0.014806502
-0.020940902
-0.029543518
3.8647489e-06
-0.0030825699
0.019921244
0.015155264
0.018417752
0.012771213
0.006387939
-0.019599999
-0.011250467
0.0062096003
0.30786616
0.30490638
0.3171393
0.29557093
0.31077907
0.29117748
0.293502
0.29390603
0.29367128
0.2945898
0.29676683
0.29526551
0.29849744
0.29931338
0.29818705
0.29287499
0.28267741
0.28985703
0.27641757
0.29529262
0.27330341
0.29776413
0.2873255
0.29809055
0.29325443
0.29202089
0.31686179
0.30163362
0.30664916
0.30507668
-0.27257589
-0.26138307
-0.20524412
-0.21589482
-0.22401391
-0.25019095
-0.25287295
-0.2620408
-0.25883349
-0.26715336
-0.28278485
-0.26227153
-0.2780148
-0.25110726
-0.21752425
-0.21540372
-0.24275104
-0.25026572
-0.24323839
-0.21817333
-0.22557073
-0.21987799
-0.25326299
-0.27632488
-0.27593084
-0.26118182
-0.20461557
-0.23045318
-0.27274914
-0.274915
0.088152937
0.055716029
0.048941166
0.070729341
0.067834015
0.10347501
0.08313589
0.10378536
0.090180549
0.10774273
0.10540236
0.095690059
0.089502989
0.080878382
0.056645381
0.081040282
0.10941587
0.09106624
0.066562045
0.033571932
0.11451699
0.041058062
0.075786861
0.095606829
0.079845234
0.052612093
0.037121748
0.05974268
0.080204953
0.10426015
-0.0400325
-0.094926731
-0.078461242
-0.073423339
-0.045929465
-0.042705087
-0.078927924
-0.059129274
-0.09644579
-0.063388482
-0.04759868
-0.093925824
-0.068192114
-0.11128321
-0.091040901
-0.075291079
-0.055544973
-0.042284815
-0.074833212
-0.071826369
-0.095207156
-0.065624138
-0.096307707
-0.035885475
-0.039415618
-0.096175318
-0.07161163
-0.071338992
-0.058820647
-0.033354047
0.023247821
0.020552102
0.002962895
-0.016041603
-0.0069738333
-0.008108905
-0.01038683
0.00062646254
0.022078051
0.0042947499
0.0043704834
0.013966728
0.0090873458
0.016399094
-0.0044432792
-0.016775783
-0.01564702
-0.015703445
-0.007441559
-0.011861309
0.028094769
0.026279552
0.028750233
0.030798073
0.02908172
0.027727534
0.018816122
-0.0030917812
-0.00068584117
0.017614986
0.30478197
0.29869673
0.31690258
0.2819432
0.29748055
0.2879759
0.29984528
0.29736578
0.29857362
0.30331992
0.30220026
0.30244959
0.29760688
0.29274819
0.29095409
0.29706129
0.28911561
0.28235188
0.28505069
0.2743182
0.28756716
0.29625373
0.29496529
0.2968578
0.29620877
0.29485706
0.30303384
0.30570541
0.30459341
0.30595581
-0.27122782
-0.2707595
-0.23127535
-0.24773075
-0.25947765
-0.23785848
-0.22618496
-0.25049557
-0.2816046
-0.28060701
-0.26786923
-0.23295725
-0.22779055
-0.24608336
-0.25293102
-0.21175559
-0.21054314
-0.26073776
-0.25178322
-0.25512978
-0.21901019
-0.21206782
-0.27330295
-0.27538503
-0.27264615
-0.25923243
-0.22167449
-0.22522178
-0.26496843
-0.27226219
0.10297968
0.072192499
0.039713522
0.088390922
0.10712886
0.070454287
0.043052784
0.060737283
0.062858505
0.089181187
0.068194039
0.048559151
0.05125261
0.076092152
0.099472592
0.067562967
0.058815006
0.089230577
0.093888407
0.073245767
0.045195101
0.046677597
0.066171983
0.10472068
0.092715605
0.062757653
0.038069846
0.076523338
0.062818818
0.10917941
-0.029186282
-0.086277163
-0.058985451
-0.077373884
-0.025827399
-0.054053687
-0.068463397
-0.072852349
-0.038907368
-0.032432316
-0.080224257
-0.057107273
-0.065851991
-0.057558766
-0.055623405
-0.060631796
-0.084881495
-0.055161789
-0.029823021
-0.061873951
-0.077848397
-0.072458282
-0.082651558
-0.041725035
-0.040284173
-0.091462158
-0.074021028
-0.054178747
-0.089531272
-0.038602444
0.035497616
0.032519933
0.020994589
7.3466345e-05
-0.0014240352
-0.0049890782
0.0019071937
0.023669273
0.016336853
0.03621014
0.02008207
7.3738968e-06
0.0037912589
-0.0076396525
-0.014230114
-0.0040974013
-0.0018278933
-0.0041345746
-0.0093658939
-0.01493069
-0.0066178509
0.012286041
0.011237218
0.032514663
0.023762471
0.021357332
0.012498146
-0.0027836349
0.022858531
0.026216283
0.30266508
0.29947208
0.29950036
0.30425282
0.30093328
0.29763398
0.30984395
0.30214331
0.30192297
0.30700921
0.30609231
0.30713809
0.29971703
0.29116922
0.27922164
0.27738024
0.27986203
0.27818161
0.2834136
0.27544227
0.28129755
0.296822
0.30123156
0.30267723
0.30074476
0.29907469
0.29631461
0.30669941
0.29988031
0.30299927
-0.2704502
-0.28500934
-0.25426656
-0.21720245
-0.22025125
-0.20341693
-0.18889051
-0.24094414
-0.27953303
-0.27532884
-0.26682176
-0.2034577
-0.20971022
-0.21274258
-0.23538457
-0.22409897
-0.23580207
-0.26075626
-0.26121228
-0.25024047
-0.23465214
-0.19863774
-0.23383205
-0.28234683
-0.27733779
-0.25878092
-0.24357165
-0.22206411
-0.26317519
-0.27755004
0.14422949
0.077676987
0.068920523
0.048208289
0.078224388
0.060163554
0.040283386
0.035485779
0.073362803
0.090852462
0.06040958
0.035691515
0.058126927
0.072784804
0.10179906
0.094786038
0.092429998
0.10571739
0.10151964
0.064506604
0.056380658
0.061593621
0.056894922
0.070502277
0.09615253
0.071546778
0.054751042
0.063105735
0.044171289
0.082759601
-0.031521614
-0.056648901
-0.09593772
-0.09240694
-0.056374141
-0.057200517
-0.068778638
-0.073896612
-0.041033652
-0.036869393
-0.088964068
-0.08529448
-0.060680211
-0.065306807
-0.081548539
-0.094966497
-0.10085089
-0.042665176
-0.033779165
-0.052065415
-0.050245767
-0.043995136
-0.068490229
-0.050434612
-0.04611438
-0.090018721
-0.066212014
-0.049632607
-0.10412074
-0.050887698
0.041409846
0.028467195
0.022957708
0.0048253985
-0.0082225352
-0.0038507683
0.010446133
0.016789272
0.021210297
0.024536031
0.023537249
0.010943119
-0.0095909744
-0.0096931727
0.00089664586
0.030543558
0.030663311
0.00067705054
0.0024529554
0.0013962007
-0.0094322095
-0.0099077587
-0.0054611379
0.0083033304
0.0094564042
0.0017715182
-0.0070500912
-0.005913209
0.011620524
0.013508832
0.29957239
0.29996482
0.30116688
0.30119593
0.30027979
0.30235613
0.30528044
0.30589989
0.30671095
0.29646778
0.31525509
0.30213223
0.29649128
0.27958672
0.28702516
0.27962068
0.27536826
0.29029771
0.30577305
0.30803192
0.30713377
0.3032992
0.30797831
0.31801499
0.3177243
0.31656543
-0.27366407
-0.28007256
-0.25194438
-0.20866732
-0.19801295
-0.20388949
-0.23286289
-0.2819346
-0.27000615
-0.26574924
-0.20454064
-0.21276143
-0.24668551
-0.26125513
-0.26625674
-0.26368614
-0.26389227
-0.22121486
-0.18759143
-0.20798024
-0.2569521
-0.25150279
-0.21806381
-0.19781804
-0.23139258
-0.2699374
0.11897883
0.072889298
0.057323897
0.050809139
0.060832657
0.053469977
0.025633025
0.069780164
0.080133441
0.062708299
0.034315166
0.059536927
0.10393866
0.11121019
0.10938056
0.069856254
0.047407764
0.024646385
0.042824142
0.04881508
0.075360096
0.10223062
0.047993774
0.070681146
0.023497516
0.076889857
-0.046164481
-0.065741395
-0.090238163
-0.068130491
-0.048706945
-0.052889968
-0.084291734
-0.058100023
-0.031022622
-0.081089652
-0.063867809
-0.059468713
-0.024391414
-0.036606812
-0.038959433
-0.051039078
-0.065394017
-0.057892396
-0.049094246
-0.056492197
-0.0333599
-0.043823616
-0.036762774
-0.042573387
-0.09096081
-0.060467801
0.027074794
0.016476242
0.0067770816
-0.014321251
-0.013849652
-0.0043063333
0.0055710528
0.013830101
0.020074409
0.021513117
0.015148472
-0.011780279
0.0028278308
-0.0026049037
0.010062373
0.0059615976
0.0085953677
0.007181278
-0.0055030425
-0.0077398365
-0.020802888
-0.023595624
-0.019631985
-0.019182258
-0.005388318
-0.0014326142
0.29960349
0.30315318
0.30407174
0.3028157
0.30405896
0.29706664
0.29852194
0.30781708
0.30288032
0.29457159
0.30992748
0.29331713
0.29862882
0.28076182
0.28533957
0.28439504
0.28498739
0.28440828
0.28647631
0.30493713
0.30252081
0.31634164
0.3010084
0.31799374
0.31410525
0.31412653
-0.26011455
-0.23217128
-0.2027425
-0.2057487
-0.2191348
-0.25310472
-0.27821372
-0.27649224
-0.27177123
-0.26722297
-0.23359052
-0.25741134
-0.2631483
-0.25226471
-0.2625422
-0.26499114
-0.26843148
-0.26347821
-0.2503897
-0.20783193
-0.20628445
-0.20605742
-0.2182626
-0.21621199
-0.24957162
-0.27978662
0.092309627
0.048132375
0.050116368
0.049730252
0.044543138
0.033735119
0.054890623
0.10016062
0.091773231
0.082492642
0.036848413
0.073870963
0.093335813
0.098692513
0.10657482
0.11469631
0.093949052
0.066200465
0.047833115
0.028479741
0.059039274
0.057172591
0.065244671
0.064865373
0.046820416
0.084157559
-0.044212872
-0.065322931
-0.052083883
-0.042586597
-0.039999435
-0.074546316
-0.044980172
-0.028795395
-0.016248871
-0.051696302
-0.057163356
-0.054338707
-0.018187562
-0.073924293
-0.046581906
-0.042120114
-0.044717573
-0.056882867
-0.07441247
-0.066590059
-0.047931962
-0.02680702
-0.068569154
-0.072986836
-0.11423086
-0.054336103
-0.0090525423
-0.005092882
-0.01173148
-0.019264817
-0.0090600775
-0.0017791788
0.0056587583
0.013504128
0.0045578286
0.0029216173
0.015460563
-0.0011505632
0.0031484885
0.015314297
0.014119224
0.019822457
0.015274861
0.014190595
0.011640594
-5.7610798e-06
-0.018240469
-0.013959218
-0.027790011
-0.019848888
0.0072465601
0.011297364
0.28663275
0.28977731
0.27985303
0.27598313
0.27636768
0.28212725
0.28642618
0.28890691
0.28613333
0.29287848
0.29094656
0.2895363
0.28899232
0.29959403
0.30301486
0.29832714
0.28891739
0.27945929
0.29928787
0.28559008
0.29220619
0.29124368
0.2866392
0.27885596
0.27993102
0.27801042
0.27920194
0.32136002
0.31479476
0.31694192
-0.23842677
-0.20778598
-0.23054138
-0.25063805
-0.24904109
-0.26715963
-0.25660627
-0.26193242
-0.26714469
-0.2788921
-0.27697218
-0.25364386
-0.24673971
-0.22854486
-0.20990646
-0.21979228
-0.22547341
-0.23043087
-0.22638998
-0.24999233
-0.2697807
-0.2680065
-0.27292158
-0.25285392
-0.25164085
-0.25026792
-0.24965926
-0.22132685
-0.2681885
-0.28294699
0.07335384
0.046349
0.056268768
0.07791906
0.082270495
0.075195386
0.095246107
0.064054264
0.10031489
0.098009058
0.099250362
0.067104679
0.077587376
0.057522608
0.060079506
0.072482519
0.083972892
0.096681312
0.039888541
0.079618019
0.084148832
0.092239578
0.063482406
0.064065815
0.065772481
0.093642798
0.082986472
0.05353691
0.061253361
0.0965221
-0.059849655
-0.073531298
-0.078721625
-0.059043941
-0.045868571
-0.056510554
-0.060035344
-0.068088839
-0.056032415
-0.045317256
-0.05973539
-0.078108138
-0.070728775
-0.067934164
-0.038071394
-0.075325156
-0.083061894
-0.10157539
-0.086345782
-0.088327153
-0.042798354
-0.038909383
-0.048554298
-0.089029443
-0.068056702
-0.066079802
-0.10250621
-0.083973745
-0.1324097
-0.044842111
0.0087770334
0.01411679
-0.003126459
-0.013898205
-0.015339803
-0.027352535
-0.0008603983
0.021982842
0.01951667
0.020440654
0.014018276
0.0096904908
-0.0036206155
-0.019090574
-0.0091443191
-0.013860455
0.020145888
0.05106767
0.0097559046
0.023739913
0.022861509
0.030391735
0.017270117
0.015633183
0.01237183
-0.016251941
-0.011509847
0.0095069234
0.026370248
0.030660098
0.29153431
0.2883106
0.2899057
0.29016441
0.29150877
0.29213854
0.29614666
0.31624774
0.30502212
0.30582809
0.30301379
0.30478103
0.31305342
0.31003147
0.31198366
0.31040417
0.31984864
0.30737531
0.29081725
0.28694484
0.28554595
0.28464631
0.29404003
0.29438637
0.29367152
0.29657182
0.27858753
0.32482708
0.31648204
0.31926225
-0.24617158
-0.26583686
-0.26446295
-0.2596449
-0.26220553
-0.25468989
-0.2338048
-0.18590816
-0.23931899
-0.27466949
-0.26994491
-0.23332326
-0.23035913
-0.27906615
-0.28232843
-0.27096
-0.20954371
-0.20918331
-0.25209288
-0.26442855
-0.26066612
-0.25396484
-0.24613695
-0.26851397
-0.27145846
-0.25970273
-0.25801155
-0.23637218
-0.27979159
-0.28580921
0.078586476
0.085812532
0.098606933
0.10075156
0.093692716
0.073343892
0.048252207
0.037891816
0.038256832
0.080747311
0.087794732
0.037350584
0.047578043
0.088565856
0.085949626
0.065204743
0.047837161
0.060818051
0.10322588
0.10404719
0.10391432
0.093556074
0.11230687
0.10090682
0.10128978
0.094059447
0.085015409
0.040148103
0.069191999
0.11348863
-0.063263112
-0.065017009
-0.048737565
-0.030278888
-0.033362989
-0.050959557
-0.055667329
-0.047021976
-0.055650228
-0.035620219
-0.044228811
-0.068839665
-0.057272587
-0.047892253
-0.032558214
-0.078628184
-0.062411197
-0.06191459
-0.053296816
-0.045322659
-0.077076284
-0.089157596
-0.087785524
-0.04549839
-0.046572481
-0.056611368
-0.081486141
-0.071599579
-0.10701822
-0.030765442
0.037236654
0.015638097
0.0064660348
-0.0043834448
-0.008410541
-0.004439694
0.021934948
0.031112841
0.017781936
0.021152219
0.018528063
0.019566064
0.013778631
-0.0059405173
-0.00063611291
-0.0045186562
-0.0004532473
-0.0079945262
-0.014016444
-0.010564306
-0.0061311486
0.03120818
0.050130448
0.016646814
0.024712055
-0.0023818289
0.0034385427
0.018649324
0.032372642
0.046604137
0.29075375
0.28605494
0.28600445
0.2879789
0.29072887
0.27779251
0.29497627
0.31427018
0.29773395
0.30288735
0.29852039
0.30568058
0.30566769
0.29866628
0.30332332
0.29861709
0.29891831
0.29285334
0.29180412
0.29979872
0.29433815
0.30427007
0.29371638
0.29334929
0.29993923
0.29346928
0.28548542
0.31687728
0.31223745
0.3139771
-0.21151884
-0.24963737
-0.26373499
-0.26804344
-0.26213429
-0.24776304
-0.21456709
-0.19980015
-0.26475081
-0.27402373
-0.26237617
-0.21130487
-0.22027348
-0.27004416
-0.27840363
-0.28090336
-0.26974889
-0.25406996
-0.25291278
-0.22093241
-0.21456544
-0.21051415
-0.25730946
-0.27315066
-0.27460051
-0.27020833
-0.26233989
-0.24009064
-0.27170852
-0.28535016
0.042109859
0.050225566
0.069441022
0.088995133
0.076674326
0.050283844
0.024426254
0.028231852
0.057870796
0.074612316
0.093812969
0.031351258
0.057636202
0.092245192
0.11156033
0.11431422
0.098821268
0.094730926
0.09925876
0.076430803
0.058926838
0.032691843
0.048715223
0.077918336
0.11756144
0.078241247
0.090893289
0.059244144
0.069717951
0.092235984
-0.069560657
-0.084681193
-0.044404561
-0.030983698
-0.030761802
-0.064140511
-0.05600923
-0.049039427
-0.069351674
-0.032909066
-0.061536718
-0.07507423
-0.05969597
-0.060800726
-0.030604251
-0.063382815
-0.11688873
-0.092067863
-0.082271276
-0.04341225
-0.065956222
-0.081918501
-0.087141338
-0.052992612
-0.045545895
-0.0580972
-0.081642637
-0.074835689
-0.13110395
-0.056490718
0.0081899343
-0.0078035397
-0.0096727545
-0.0014714171
-0.004828285
0.0074284972
0.010502462
0.024414968
0.017004285
0.027448067
0.017511809
0.011125555
0.0031186041
-0.013952384
0.030411818
0.017341734
0.037980377
0.023792846
-0.01209976
-0.0097873826
-0.016772269
0.0065648044
0.022792576
0.017683204
0.030085101
0.015898567
-0.0020867416
-0.0026199944
0.015866623
0.019763106
0.28899644
0.29035409
0.29332385
0.28997422
0.28802834
0.28609397
0.2843323
0.28328105
0.28837308
0.29207769
0.29300708
0.30802346
0.30759822
0.31084498
0.30551784
0.30602587
0.30731182
0.30916918
0.30190416
0.29447421
0.29938471
0.29573144
0.29505672
0.29248643
0.29735378
0.28780199
0.29966751
0.31435733
0.31284589
0.31230345
-0.17953471
-0.19544929
-0.19964495
-0.23067033
-0.25462052
-0.2653114
-0.25272634
-0.23527185
-0.26477734
-0.27086
-0.25503287
-0.20292305
-0.20281723
-0.23058939
-0.25926378
-0.27409138
-0.27842442
-0.20937515
-0.19256007
-0.20641488
-0.19142868
-0.19515909
-0.21847831
-0.26496836
-0.26584239
-0.24743701
-0.2240517
-0.20449565
-0.24456741
-0.26487552
0.063543032
0.065928224
0.053378879
0.04222594
0.072273636
0.086621427
0.097565191
0.067153413
0.10197147
0.072784611
0.058593763
0.036338969
0.075843564
0.067997371
0.087594557
0.098264313
0.089464709
0.036938108
0.058391419
0.092237029
0.065791728
0.071427895
0.036915591
0.073680606
0.080704839
0.063159706
0.054642722
0.067194662
0.058982936
0.082169888
-0.053067254
-0.040782676
-0.038682752
-0.050373489
-0.050797064
-0.023184828
-0.03826292
-0.05399547
-0.031153547
-0.042839278
-0.066777533
-0.049677129
-0.045965042
-0.058125393
-0.094867119
-0.03759272
-0.0687119
-0.086867202
-0.081174094
-0.060879643
-0.036107282
-0.05608811
-0.079525954
-0.057348527
-0.043903322
-0.086679551
-0.053617796
-0.044911659
-0.081768626
-0.07375767
-0.011116161
-0.017815149
-0.022388369
-0.0042971078
0.0030255889
-0.0085109697
-0.0034292756
0.015105883
0.00090626612
0.0075896362
0.011099175
0.006036643
0.0001828114
0.0090185339
0.041412888
0.03195468
0.018624559
0.016765405
-0.0031039984
-0.011268305
-0.0086921881
-0.012063486
0.0077211471
0.0050341073
0.017327762
0.01565814
-0.00035092811
-0.0069520659
-0.0087233134
0.0041196261
)
;

boundaryField
{
    minX
    {
        type            fixedFluxPressure;
        gradient        uniform 0;
        value           nonuniform List<scalar> 
50
(
0.30448339
-0.25902402
0.082780866
-0.057232315
0.0058740416
0.30786616
-0.27257589
0.088152937
-0.0400325
0.023247821
0.30478197
-0.27122782
0.10297968
-0.029186282
0.035497616
0.30266508
-0.2704502
0.14422949
-0.031521614
0.041409846
0.29957239
-0.27366407
0.11897883
-0.046164481
0.027074794
0.29960349
-0.26011455
0.092309627
-0.044212872
-0.0090525423
0.28663275
-0.23842677
0.07335384
-0.059849655
0.0087770334
0.29153431
-0.24617158
0.078586476
-0.063263112
0.037236654
0.29075375
-0.21151884
0.042109859
-0.069560657
0.0081899343
0.28899644
-0.17953471
0.063543032
-0.053067254
-0.011116161
)
;
    }
    maxX
    {
        type            fixedFluxPressure;
        gradient        uniform 0;
        value           nonuniform List<scalar> 
50
(
0.30473009
-0.25185175
0.097811229
-0.039536189
0.0062096003
0.30507668
-0.274915
0.10426015
-0.033354047
0.017614986
0.30595581
-0.27226219
0.10917941
-0.038602444
0.026216283
0.30299927
-0.27755004
0.082759601
-0.050887698
0.013508832
0.31656543
-0.2699374
0.076889857
-0.060467801
-0.0014326142
0.31412653
-0.27978662
0.084157559
-0.054336103
0.011297364
0.31694192
-0.28294699
0.0965221
-0.044842111
0.030660098
0.31926225
-0.28580921
0.11348863
-0.030765442
0.046604137
0.3139771
-0.28535016
0.092235984
-0.056490718
0.019763106
0.31230345
-0.26487552
0.082169888
-0.07375767
0.0041196261
)
;
    }
    minY
    {
        type            fixedValue;
        value           uniform 0;
    }
    minZ
    {
        type            fixedFluxPressure;
        gradient        uniform 0;
        value           nonuniform List<scalar> 
150
(
0.30448339
-0.25902402
0.082780866
-0.057232315
0.0058740416
0.3055867
-0.21930703
0.038855584
-0.073005481
0.0022152536
0.30707534
-0.22539677
0.062440284
-0.041997361
-0.0051105716
0.28490635
-0.25446788
0.080089884
-0.04232824
0.0061084578
0.30466674
-0.27179995
0.10796908
-0.014573287
0.015413443
0.28726968
-0.2614478
0.093841161
-0.0018816979
0.0038843707
0.29001903
-0.24803176
0.08824686
-0.040962244
-0.0092891844
0.30056751
-0.21003759
0.054400596
-0.052878575
-0.018490691
0.3153781
-0.17781508
0.035781699
-0.071038038
0.0084546823
0.30290002
-0.23431246
0.044258113
-0.062301585
0.017293537
0.29910745
-0.2684709
0.07396997
-0.070070217
0.0192688
0.30404698
-0.26960882
0.10065399
-0.041154764
0.028635884
0.30457262
-0.27447472
0.1207404
-0.044998916
0.031227236
0.30054691
-0.28181161
0.075810754
-0.066317826
0.011678775
0.30616981
-0.22398149
0.055205978
-0.088418851
0.014803965
0.30494164
-0.18376401
0.053972133
-0.083475135
0.0026768567
0.28599826
-0.19687286
0.072394002
-0.073356886
-0.020741785
0.2901591
-0.22673368
0.099924635
-0.042720584
-0.014806502
0.29094293
-0.19076335
0.055475657
-0.035764116
-0.020940902
0.28859666
-0.20799579
0.04226754
-0.056825204
-0.029543518
0.28233073
-0.23476079
0.060268837
-0.09283598
3.8647489e-06
0.29205249
-0.26193553
0.078580614
-0.032547839
-0.0030825699
0.28913445
-0.23448501
0.085334821
-0.074122863
0.019921244
0.2931844
-0.26889865
0.10326415
-0.033989769
0.015155264
0.28838262
-0.2762158
0.070727364
-0.043267128
0.018417752
0.29376247
-0.24730977
0.044034634
-0.085158658
0.012771213
0.3159131
-0.18730968
0.038647731
-0.065491806
0.006387939
0.30370708
-0.19473924
0.050767681
-0.065911056
-0.019599999
0.30724788
-0.23674398
0.07677063
-0.033333075
-0.011250467
0.30473009
-0.25185175
0.097811229
-0.039536189
0.0062096003
)
;
    }
    maxZ
    {
        type            fixedFluxPressure;
        gradient        uniform 0;
        value           nonuniform List<scalar> 
150
(
0.28899644
-0.17953471
0.063543032
-0.053067254
-0.011116161
0.29035409
-0.19544929
0.065928224
-0.040782676
-0.017815149
0.29332385
-0.19964495
0.053378879
-0.038682752
-0.022388369
0.28997422
-0.23067033
0.04222594
-0.050373489
-0.0042971078
0.28802834
-0.25462052
0.072273636
-0.050797064
0.0030255889
0.28609397
-0.2653114
0.086621427
-0.023184828
-0.0085109697
0.2843323
-0.25272634
0.097565191
-0.03826292
-0.0034292756
0.28328105
-0.23527185
0.067153413
-0.05399547
0.015105883
0.28837308
-0.26477734
0.10197147
-0.031153547
0.00090626612
0.29207769
-0.27086
0.072784611
-0.042839278
0.0075896362
0.29300708
-0.25503287
0.058593763
-0.066777533
0.011099175
0.30802346
-0.20292305
0.036338969
-0.049677129
0.006036643
0.30759822
-0.20281723
0.075843564
-0.045965042
0.0001828114
0.31084498
-0.23058939
0.067997371
-0.058125393
0.0090185339
0.30551784
-0.25926378
0.087594557
-0.094867119
0.041412888
0.30602587
-0.27409138
0.098264313
-0.03759272
0.03195468
0.30731182
-0.27842442
0.089464709
-0.0687119
0.018624559
0.30916918
-0.20937515
0.036938108
-0.086867202
0.016765405
0.30190416
-0.19256007
0.058391419
-0.081174094
-0.0031039984
0.29447421
-0.20641488
0.092237029
-0.060879643
-0.011268305
0.29938471
-0.19142868
0.065791728
-0.036107282
-0.0086921881
0.29573144
-0.19515909
0.071427895
-0.05608811
-0.012063486
0.29505672
-0.21847831
0.036915591
-0.079525954
0.0077211471
0.29248643
-0.26496836
0.073680606
-0.057348527
0.0050341073
0.29735378
-0.26584239
0.080704839
-0.043903322
0.017327762
0.28780199
-0.24743701
0.063159706
-0.086679551
0.01565814
0.29966751
-0.2240517
0.054642722
-0.053617796
-0.00035092811
0.31435733
-0.20449565
0.067194662
-0.044911659
-0.0069520659
0.31284589
-0.24456741
0.058982936
-0.081768626
-0.0087233134
0.31230345
-0.26487552
0.082169888
-0.07375767
0.0041196261
)
;
    }
    bottomWater_to_rightSolid
    {
        type            fixedFluxPressure;
        gradient        uniform 0;
        value           nonuniform List<scalar> 
130
(
-0.014806502
-0.020940902
-0.029543518
3.8647489e-06
-0.0030825699
0.019921244
0.015155264
0.018417752
0.012771213
0.006387939
-0.019599999
-0.011250467
0.0062096003
-0.015703445
-0.007441559
-0.011861309
0.028094769
0.026279552
0.028750233
0.030798073
0.02908172
0.027727534
0.018816122
-0.0030917812
-0.00068584117
0.017614986
-0.0041345746
-0.0093658939
-0.01493069
-0.0066178509
0.012286041
0.011237218
0.032514663
0.023762471
0.021357332
0.012498146
-0.0027836349
0.022858531
0.026216283
0.00067705054
0.0024529554
0.0013962007
-0.0094322095
-0.0099077587
-0.0054611379
0.0083033304
0.0094564042
0.0017715182
-0.0070500912
-0.005913209
0.011620524
0.013508832
-0.0026049037
0.010062373
0.0059615976
0.0085953677
0.007181278
-0.0055030425
-0.0077398365
-0.020802888
-0.023595624
-0.019631985
-0.019182258
-0.005388318
-0.0014326142
0.015314297
0.014119224
0.019822457
0.015274861
0.014190595
0.011640594
-5.7610798e-06
-0.018240469
-0.013959218
-0.027790011
-0.019848888
0.0072465601
0.011297364
0.05106767
0.0097559046
0.023739913
0.022861509
0.030391735
0.017270117
0.015633183
0.01237183
-0.016251941
-0.011509847
0.0095069234
0.026370248
0.030660098
-0.0079945262
-0.014016444
-0.010564306
-0.0061311486
0.03120818
0.050130448
0.016646814
0.024712055
-0.0023818289
0.0034385427
0.018649324
0.032372642
0.046604137
0.023792846
-0.01209976
-0.0097873826
-0.016772269
0.0065648044
0.022792576
0.017683204
0.030085101
0.015898567
-0.0020867416
-0.0026199944
0.015866623
0.019763106
0.016765405
-0.0031039984
-0.011268305
-0.0086921881
-0.012063486
0.0077211471
0.0050341073
0.017327762
0.01565814
-0.00035092811
-0.0069520659
-0.0087233134
0.0041196261
)
;
    }
    bottomWater_to_leftSolid
    {
        type            fixedFluxPressure;
        gradient        uniform 0;
        value           nonuniform List<scalar> 
130
(
0.0058740416
0.0022152536
-0.0051105716
0.0061084578
0.015413443
0.0038843707
-0.0092891844
-0.018490691
0.0084546823
0.017293537
0.0192688
0.028635884
0.031227236
0.023247821
0.020552102
0.002962895
-0.016041603
-0.0069738333
-0.008108905
-0.01038683
0.00062646254
0.022078051
0.0042947499
0.0043704834
0.013966728
0.0090873458
0.035497616
0.032519933
0.020994589
7.3466345e-05
-0.0014240352
-0.0049890782
0.0019071937
0.023669273
0.016336853
0.03621014
0.02008207
7.3738968e-06
0.0037912589
0.041409846
0.028467195
0.022957708
0.0048253985
-0.0082225352
-0.0038507683
0.010446133
0.016789272
0.021210297
0.024536031
0.023537249
0.010943119
-0.0095909744
0.027074794
0.016476242
0.0067770816
-0.014321251
-0.013849652
-0.0043063333
0.0055710528
0.013830101
0.020074409
0.021513117
0.015148472
-0.011780279
0.0028278308
-0.0090525423
-0.005092882
-0.01173148
-0.019264817
-0.0090600775
-0.0017791788
0.0056587583
0.013504128
0.0045578286
0.0029216173
0.015460563
-0.0011505632
0.0031484885
0.0087770334
0.01411679
-0.003126459
-0.013898205
-0.015339803
-0.027352535
-0.0008603983
0.021982842
0.01951667
0.020440654
0.014018276
0.0096904908
-0.0036206155
0.037236654
0.015638097
0.0064660348
-0.0043834448
-0.008410541
-0.004439694
0.021934948
0.031112841
0.017781936
0.021152219
0.018528063
0.019566064
0.013778631
0.0081899343
-0.0078035397
-0.0096727545
-0.0014714171
-0.004828285
0.0074284972
0.010502462
0.024414968
0.017004285
0.027448067
0.017511809
0.011125555
0.0031186041
-0.011116161
-0.017815149
-0.022388369
-0.0042971078
0.0030255889
-0.0085109697
-0.0034292756
0.015105883
0.00090626612
0.0075896362
0.011099175
0.006036643
0.0001828114
)
;
    }
    bottomWater_to_heater
    {
        type            fixedFluxPressure;
        gradient        uniform 0;
        value           nonuniform List<scalar> 
92
(
0.011678775
0.014803965
0.0026768567
-0.020741785
0.016399094
-0.0044432792
-0.016775783
-0.01564702
-0.0076396525
-0.014230114
-0.0040974013
-0.0018278933
0.29116922
0.27922164
0.27738024
0.27986203
-0.21274258
-0.23538457
-0.22409897
-0.23580207
0.072784804
0.10179906
0.094786038
0.092429998
-0.065306807
-0.081548539
-0.094966497
-0.10085089
-0.0096931727
-0.0096931727
0.00089664586
0.00089664586
0.030543558
0.030543558
0.030663311
0.030663311
0.29649128
0.27958672
-0.24668551
-0.26125513
0.10393866
0.11121019
-0.024391414
-0.036606812
0.0028278308
-0.0026049037
0.29862882
0.29959403
0.30301486
0.29832714
0.28076182
0.28891739
-0.2631483
-0.22854486
-0.20990646
-0.21979228
-0.25226471
-0.22547341
0.093335813
0.057522608
0.060079506
0.072482519
0.098692513
0.083972892
-0.018187562
-0.067934164
-0.038071394
-0.075325156
-0.073924293
-0.083061894
0.0031484885
-0.019090574
-0.0091443191
-0.013860455
0.015314297
0.020145888
-0.019090574
-0.0091443191
-0.013860455
0.020145888
-0.0059405173
-0.00063611291
-0.0045186562
-0.0004532473
-0.013952384
0.030411818
0.017341734
0.037980377
0.0090185339
0.041412888
0.03195468
0.018624559
)
;
    }
}


// ************************************************************************* //
