/*--------------------------------*- C++ -*----------------------------------*\
| =========                 |                                                 |
| \\      /  F ield         | OpenFOAM: The Open Source CFD Toolbox           |
|  \\    /   O peration     | Version:  v2012                                 |
|   \\  /    A nd           | Website:  www.openfoam.com                      |
|    \\/     M anipulation  |                                                 |
\*---------------------------------------------------------------------------*/
FoamFile
{
    version     2.0;
    format      ascii;
    class       surfaceScalarField;
    location    "800/bottomWater";
    object      phi;
}
// * * * * * * * * * * * * * * * * * * * * * * * * * * * * * * * * * * * * * //

dimensions      [1 0 -1 0 0 0 0];
oriented        oriented;


internalField   nonuniform List<scalar> 
3858
(
-0.00013727051
9.059727e-05
4.4915768e-05
-5.1137479e-05
-0.00015446088
6.6420552e-05
0.0001240659
-0.00018755746
1.0081089e-05
4.3571152e-05
0.00013935704
-5.616232e-05
-4.5097198e-05
8.7988536e-05
-1.2214362e-06
-0.00021764834
0.00014396961
3.0810735e-05
-0.0002875359
5.8116403e-05
1.3497249e-05
-0.00011215254
-0.00022685233
5.0916587e-05
0.00016531933
-0.00037070444
8.9418368e-05
0.00024364926
-0.00013842429
5.8959418e-05
0.00011983868
0.00013091249
-7.4756166e-06
-4.5149343e-05
0.00014563773
1.7718659e-05
-0.00018880875
0.00012845673
1.3493906e-05
-0.00029398504
0.00011435399
-9.7847177e-06
-0.00021643949
-7.8390181e-05
-1.0372543e-06
7.1683305e-07
-0.00025110975
3.2269551e-05
4.4918048e-05
-0.00012420056
8.2363782e-05
-3.8693369e-05
-3.9847651e-05
0.0001248839
5.6546391e-05
-0.00027149622
0.00017774952
0.0001647032
-0.00017954861
7.3353435e-05
6.7819191e-05
9.0554982e-05
9.5835923e-06
-1.7686297e-05
0.00011965634
-3.3160604e-05
-0.0001533535
0.00014493848
-7.55496e-06
-0.00027438504
0.00016530974
-4.321308e-05
-0.00038998296
0.00017021677
-5.2275309e-05
-0.00040193092
3.886973e-05
-2.5802228e-05
-0.00017137601
-0.00022967283
-4.7532552e-06
2.150761e-05
-0.00021210003
1.7743473e-05
9.2913431e-05
-9.6447305e-05
2.2607165e-05
9.9862417e-05
-8.823771e-06
-0.00033296022
0.00029450412
0.00012905337
-0.00018056912
-0.00044948427
0.00014263228
9.2175491e-05
-0.00049981487
3.9512811e-05
0.00027534649
7.4449144e-05
-0.0001182631
-0.00012433041
0.00057903217
-9.1366724e-05
-0.00039974441
0.000452767
-3.3383378e-05
-0.00028074794
-2.8689145e-05
-3.2190921e-05
-2.4564029e-05
-0.00053555774
5.2521503e-05
0.00017269256
-0.00071215918
0.00014419815
0.00033450316
-0.00039915617
9.8921273e-05
0.00025906784
0.0002255607
-1.9212886e-05
-0.00010334977
0.00064981776
-0.00014176242
-0.00045267307
0.00066137501
-0.00018359497
-0.00062836947
0.00047447931
-0.00018442892
-0.00041246001
-0.00019261298
-0.00010168665
-0.00010513901
-0.00054764534
-1.0785407e-05
-2.929756e-05
-0.00029225361
9.2211601e-05
-9.4587911e-05
-0.00016159522
0.00018703792
7.6899337e-06
-0.0005803276
0.00020655354
0.00027689151
-0.00049715191
4.8401721e-05
0.00036793155
3.8528191e-05
-3.901326e-05
0.00014120804
0.00041510124
-6.8721402e-05
2.5497384e-05
0.00014464495
0.00011600418
-0.00033563076
0.00046891687
5.7521011e-05
-0.00062874359
0.00050572797
-4.2398369e-05
-0.00049227139
-7.5495606e-05
-2.210687e-05
-0.0001698051
-0.00053766363
-1.4475489e-05
4.8350627e-05
-0.00047225538
4.1999632e-05
0.00020178889
-0.0003501449
0.00010025934
0.00016560684
0.00013604446
4.5039035e-05
0.00018024333
6.9221764e-05
-0.00019103747
-0.00015431635
-5.9091413e-05
-0.00038863303
-0.00037515845
7.293915e-05
-0.00017453606
-0.00017443413
3.4786309e-05
-7.0605147e-05
0.00046192681
1.3174446e-05
3.4650037e-05
0.00024344003
0.00010407178
0.00034320383
-0.00041917589
8.1932959e-05
0.00014636708
-0.00031511643
-2.360455e-05
-0.0002184129
-0.00010837551
-0.00023900368
-0.00032037289
-9.9388175e-05
-0.00019780799
-0.00017159517
0.00015662925
-7.9846264e-05
-0.00016802563
0.00061860249
2.7645727e-05
-0.00012913821
0.00065146643
-2.8978837e-05
8.1997557e-05
0.00036406513
-0.00010072159
9.3215571e-05
-0.00010132438
-0.00010250661
-0.00024284779
-0.00010493323
-0.00010664874
-0.00023415058
-0.00023778359
-6.3167226e-05
-7.2345151e-06
-0.00047466973
8.6158445e-05
-9.7238263e-05
-0.00048687036
-3.4534995e-06
-0.00029548224
-0.00027107474
-2.7833191e-05
-0.00020567763
-2.0191634e-05
-3.1084793e-05
-0.00015005582
0.0002451893
0.00011429012
-0.00016320134
3.792158e-05
0.00011986887
-0.00010856159
0.00035761564
5.6661465e-05
5.130932e-05
0.00041479303
-6.8935976e-05
0.0001881204
-0.00011095536
-0.00010135133
-0.00016981876
-0.00011079663
-6.8927824e-05
-0.00034507562
-0.00023439962
-6.2598904e-05
-0.00024364589
-0.00047238995
2.0815339e-05
-0.00010710077
2.9061727e-05
0.00011458135
8.3513673e-05
-1.7851691e-05
-7.279191e-05
-2.6326356e-05
5.9383283e-05
-0.00020193563
-0.00035910991
0.00011309518
-0.00027191017
-0.00022628284
0.00012182326
-6.5902422e-05
0.00019462402
6.1295047e-05
0.00010972003
-0.00010413065
0.00017194824
-1.8085571e-05
-0.00041644743
0.00012507715
-0.00012505911
-0.0002795719
7.1429012e-05
-0.00023817578
3.8479841e-05
-3.3738673e-05
-0.00030642308
6.8416766e-05
-9.9557634e-05
-0.00031486099
0.00015877256
6.2946011e-06
-0.00013677383
0.00033952714
0.0001009882
7.3098626e-05
0.000394859
4.6734975e-05
0.00025972178
0.00016976617
7.67581e-06
4.6181018e-05
0.00019673707
-8.4520687e-05
-0.00019492604
0.00017493044
-3.8756613e-05
-0.00020006082
-0.00017032981
-6.2319003e-05
-0.0002008114
-0.00047449361
5.744729e-07
-0.00018065029
-0.00050012548
-6.905992e-06
-0.00021060563
-0.00024640461
5.2851927e-06
-0.0003374095
6.4193975e-05
4.2418249e-05
-0.00018232561
-3.879482e-05
0.00012890022
-0.00028336335
0.00010336545
3.5593847e-05
-6.487793e-05
0.00011012617
2.9004034e-05
0.00024077321
0.00017802326
-6.888139e-05
0.00010820528
4.0741664e-05
-1.9129092e-05
-7.3705498e-05
7.2767438e-05
-1.6532923e-06
-5.0017546e-05
-0.00020683607
-5.1251487e-05
-5.0534541e-05
-0.00048086829
8.9953421e-06
-0.00012533178
-3.2303529e-05
0.00020891544
-0.00012540176
0.00032132756
-0.00013873847
8.8027459e-05
-0.0001258098
-0.00014253096
4.2755809e-06
-1.3765975e-05
6.5859042e-05
-7.4709467e-05
-4.3187155e-05
-0.00036773526
-0.00012342163
-0.00053112599
-0.00011618117
-0.00042375631
-6.8889832e-05
-0.00034418673
-1.115281e-05
-0.00029740853
0.00011199436
-0.00011473433
0.00015685295
0.00014713763
0.00013298705
0.00025510593
6.1797882e-05
0.0003256787
0.00012616431
0.00040907858
9.1530565e-05
0.00026808648
-2.9337711e-05
-0.00013160928
-7.4797853e-05
-0.00049254175
-0.00013919302
-0.00062308251
-0.00011586386
-0.00046240725
-9.6481292e-05
-0.00040093328
-0.0001002688
-0.00023032825
-6.7239592e-05
-3.4749884e-05
-8.5452208e-05
0.00020591555
-6.2642174e-05
0.00032802394
-8.1366737e-05
0.00047320679
-7.2415405e-05
0.00035636143
-8.9990706e-05
7.248734e-06
-0.00013175559
-0.00011808304
-0.00015662017
0.0001295556
6.9564623e-05
-0.0001839603
7.8975636e-06
8.4177235e-05
1.9721894e-05
-0.00025276062
5.4748997e-05
0.00011900544
-0.00013217247
-2.2989158e-05
0.00024343548
-0.00017489053
4.6311013e-05
0.00023236614
7.9751289e-05
-3.6374904e-05
0.00016922397
0.00014148789
-6.387458e-05
0.00010639402
0.0001398484
-2.5325541e-05
8.8888634e-05
6.7471142e-05
4.0199014e-05
3.1051058e-05
0.00012745082
-1.017736e-05
-2.8979115e-05
0.00016385656
-0.0001112933
-5.4879997e-05
0.00013177032
-8.7822548e-05
-8.9304169e-05
0.00012597358
-7.8419102e-05
-0.00012436585
7.9737263e-05
-5.5009639e-05
1.1463387e-05
-0.00017562532
3.845583e-05
0.00017064416
-0.00015243259
2.6446671e-05
0.00013085957
6.7458048e-05
5.7999747e-05
4.0404475e-06
0.00010874152
0.0001446636
-4.3212948e-05
5.9829506e-05
0.0001698445
7.2312328e-06
-0.00016940611
0.00019277592
-4.4967258e-05
6.8711562e-05
-1.8112128e-06
5.1807396e-05
-0.00012925445
-9.6554127e-07
-1.8578615e-05
0.00010765674
-4.278796e-05
-0.00014238208
0.00014842568
-6.8059062e-05
-0.00025025921
0.00016813312
-0.00011141723
-0.00028838103
9.2761615e-05
-7.9041395e-05
-1.0356117e-05
-0.00027382541
-1.3238758e-05
0.0001242374
-9.8168371e-05
-1.9828616e-05
7.8197425e-05
9.809685e-05
-3.1652153e-05
0.00014689675
-7.9387752e-05
-0.00046293319
0.00061544487
0.0001060973
-0.00040338523
-3.2980036e-05
0.00012396193
-8.8879982e-05
-0.00057790206
5.0149014e-05
4.0611092e-05
-0.00037021605
-9.7105949e-06
0.00024997565
-0.00047284411
-2.7777098e-06
0.00035458002
-6.6511296e-08
-5.8169939e-05
0.00032799677
0.00019109252
-5.5212298e-05
0.00018054674
0.00029569632
4.412362e-05
0.00020252686
-3.5799473e-05
0.00022548864
0.00011282497
0.00015774565
0.00015832834
-0.00012090109
0.00045335189
-7.498215e-05
-0.00015682991
0.00015338208
-0.00012744535
-0.00031420811
0.00037314338
-0.00027338656
-0.00028768148
4.9982627e-05
-0.00018120092
-7.0892631e-05
-0.00048147582
-1.2625e-05
0.00020204076
-0.00038902104
-4.7130343e-05
0.00019391043
0.00011703763
5.0762344e-05
-0.00010303105
0.00040939948
0.00018332145
-0.00014588978
2.6340123e-05
0.00028290165
3.0689921e-05
-0.00049169313
0.00019410903
5.9439312e-05
-1.301115e-05
1.3960056e-05
0.00028934061
-0.00041835778
-9.5193671e-06
0.00033216943
0.00012140931
5.9422776e-05
-0.00013833339
0.00067302274
3.426767e-06
-0.00050199193
0.0006231486
-0.00013375532
-0.00033988654
1.4670385e-05
-0.00010612103
6.5752766e-05
-0.00063384025
-6.0099954e-05
0.0003055016
-0.00031446188
1.8544304e-05
0.00031718949
0.00015347637
3.3191936e-05
0.00056397976
3.6150953e-05
0.00013579208
0.00053107191
1.7802647e-05
0.00024452108
-8.1108122e-05
-0.00011969233
-9.949862e-05
-0.00015476312
-6.1800863e-06
-0.00014808968
-0.00030699487
2.0156187e-05
-0.00015665315
-0.00046838856
1.7282381e-05
6.231598e-05
-0.00031526627
0.00020030242
0.0001516914
-1.3235751e-05
0.00019688582
5.1443021e-05
0.00017182564
0.00020051452
-0.00010998893
-0.00010621982
-7.1513756e-06
-4.3924514e-05
-9.0478265e-05
-1.5648495e-05
6.8897446e-05
0.00017855752
8.2126143e-05
2.2401858e-05
6.3901269e-05
0.00016362213
9.9963604e-05
0.00027556552
-8.9627221e-06
0.00015532598
-1.8888624e-05
-8.7212706e-05
-0.00010341979
-0.00015312587
-0.00017211079
-0.00013828264
-0.0003778162
-8.2990717e-05
0.00010624893
-0.00026934058
7.8679404e-05
0.00037646217
8.2409241e-05
0.00014293544
0.00035869612
-4.5552864e-05
8.6205539e-05
6.5484664e-05
-0.00019380857
-3.2506298e-05
2.2751044e-05
-9.2793269e-05
9.1430935e-05
-0.00024867275
-9.7142135e-05
6.4498248e-05
-0.00012464157
3.0007117e-05
8.723988e-05
-2.8585991e-05
0.00061255114
2.1077476e-05
0.00012037793
0.00056158782
-0.00015633912
0.00029955598
-6.4691011e-05
-0.00020116799
-0.00014281324
-0.00011432509
-0.00014607376
-0.00032129768
-0.00018847171
-1.0104627e-05
-8.442583e-05
-0.00020522604
0.0001426459
0.00046431284
4.430282e-05
0.00028451546
0.00026121333
-3.2508558e-05
0.00012633655
0.00022404477
-8.759069e-05
-5.5192745e-05
7.5408022e-05
6.4453339e-05
6.6034362e-06
-0.00026973376
2.2765977e-05
4.8885109e-05
-0.00045654951
7.1743315e-06
0.0001435211
-0.00033841358
0.00010045956
0.0001574901
-4.0685803e-05
0.00013855821
0.00012472751
0.00012116892
0.00015484832
-0.00015509944
0.00022456593
-8.4697473e-05
-8.4035612e-05
-0.00018726719
-7.3832536e-05
0.00016055748
-0.00020119296
0.00014145199
0.00010710705
0.00013889492
7.9444985e-05
0.00023350642
0.00018761548
8.2856411e-06
5.5836076e-06
0.00032465848
-0.00010794847
-0.0001042673
-2.5880504e-06
-0.0001252076
-7.0933428e-05
-0.00041497672
-3.4929957e-05
-7.5371309e-05
-0.00040817414
8.0952442e-05
0.00019171291
-0.00023785082
5.3750305e-05
0.00020014877
-3.6790109e-05
-2.4104606e-05
6.5376998e-05
-2.3705538e-05
-3.0046081e-05
-0.00019589593
0.0003215529
-0.00011065501
-0.00029206514
0.00014898273
-2.1055448e-05
-0.0003258849
0.00016556382
-6.6143119e-05
-1.5406237e-05
0.00030895849
2.2118004e-05
0.00032435969
0.00028135391
-0.00012841342
0.00021421717
0.00017797901
-0.0001516566
-3.4877618e-06
0.00020675836
-0.00010503181
-0.000126622
-7.9007668e-05
-3.7581279e-05
-0.00015367273
-0.00031607131
0.00014689136
0.00021183637
6.6500211e-05
0.00024032221
-0.00010451064
0.0004519318
-0.00012630329
0.00052441315
-0.00012288312
0.00037824113
-0.00011928615
4.6104048e-05
-5.855338e-05
-0.00024125071
-9.4245969e-05
-0.00028386263
-0.00012149551
-0.00017722559
-0.00010164927
5.6684662e-05
-7.8234147e-05
-5.2248343e-05
-8.9486991e-05
-0.00018171538
4.0268434e-05
-2.0618711e-05
0.0001346512
0.00014294154
0.00015704228
0.00037715903
0.00015223887
0.00040244344
9.8291847e-05
0.00017682452
-9.7827233e-05
-0.0001145899
-0.00014609742
-0.00032081474
-0.00010642384
-0.000427112
-6.9685867e-05
-0.00053348067
-3.3200738e-05
-0.00035657714
4.8168061e-05
-0.00032139898
1.3535749e-05
-0.00024678253
2.3707772e-05
-1.5289619e-05
-7.9866439e-06
0.0002350694
-3.1647285e-05
0.00035890987
-2.7228195e-05
0.00047132722
2.1925602e-05
0.00029605927
6.2695824e-06
-9.9733402e-05
-5.2034213e-05
-5.9800687e-06
-0.00014794608
0.00012798715
8.782853e-05
-0.00017162281
2.9206625e-05
7.8363678e-05
0.00010501016
-0.00029988781
7.3810731e-05
3.7774768e-05
0.00013533401
-8.7709902e-05
-2.9165148e-05
0.00012052283
-7.5094127e-06
7.8308009e-05
-8.1260196e-05
-6.064875e-05
0.000196387
-0.00015896288
-2.3521709e-05
0.00019897314
7.7631704e-06
-3.5697523e-05
0.00011228461
0.00015982942
-3.3168221e-05
9.2702026e-07
0.00014625079
-4.6557686e-05
-4.71831e-05
5.418749e-05
-0.00011859253
8.6225202e-05
-0.00018919201
-3.3220253e-05
0.00019721706
-8.7864655e-05
-0.00010155069
9.7609556e-05
0.0001250426
-7.9357153e-05
1.6469227e-08
8.8814235e-05
4.8492905e-05
0.0001481803
-0.0001788638
5.7146725e-05
0.00023065523
-0.00010781371
8.5302311e-05
0.00012694031
0.00011503575
0.00013692029
1.3789953e-05
0.00012199255
0.00016384973
-0.00010521172
0.0001452826
0.00017177218
-1.6453658e-05
-0.0001777426
8.9289024e-05
0.00010405776
-0.00016092773
3.9556893e-05
3.8960867e-05
8.0584918e-05
-5.7878123e-05
-4.7774461e-05
0.00012455237
-0.00010585234
-0.00016111425
0.00016145077
-0.00015914376
-0.00022638073
0.00012804507
-0.00014105411
-2.0864664e-05
-0.00015760329
-6.2432475e-05
0.0001659535
-0.00015514157
-5.3442938e-05
0.0001160031
9.8510077e-05
-8.1831451e-05
0.00014587045
-0.00011119661
-0.00043701287
0.00063131095
3.9786371e-05
-0.00039413448
5.5217606e-05
5.5072552e-05
6.1411993e-05
-0.00071024285
4.9575798e-06
0.00010413681
0.00012950689
-4.6608286e-05
-1.9435823e-05
0.00031832781
-7.7010056e-05
0.00016633413
-0.00031373968
-1.1460408e-05
0.00038159216
-0.00048086761
5.1434409e-05
0.00046779685
-0.00012189953
8.758163e-05
0.00015716776
0.00059042489
0.00010552227
-0.00026806398
0.00076292509
-3.3114223e-05
-0.00032243633
0.00016439233
-0.00013081464
-9.3608169e-05
-0.00054918376
3.7182297e-06
4.5946532e-05
-0.0003347662
-0.00016603971
-7.6104175e-05
0.00021251528
-0.00014662289
-0.00016268097
0.00019496808
-3.220205e-05
0.00012076508
-0.00047544187
-3.3998321e-05
0.00032392758
-0.00033747856
7.7264696e-05
9.5888584e-05
0.00040218252
0.00012421368
-0.00016453241
0.00040073549
0.00026457971
-4.969884e-05
3.611244e-06
0.00022094681
0.00019044056
-0.00052474087
0.00012081892
0.00044552822
-0.00044149986
1.5965088e-05
0.00041650912
0.0002558119
-8.6785106e-05
8.1194396e-06
0.00067678841
-0.00014041961
-0.00038252011
0.00063677942
-0.00021844442
-0.00028559485
0.00011031237
-0.00018531359
5.1961698e-05
-0.00046301712
-9.2242667e-05
0.00034605677
-0.00042919746
-1.494877e-06
0.00040345379
0.00011880229
-4.449729e-05
0.00064003652
-5.4561319e-05
0.00013979944
0.0005660591
-5.6744945e-05
0.00018302946
-1.9982725e-05
-8.772201e-05
-0.00030203199
-0.00012264329
-0.00010871819
-0.00015100522
-5.6131411e-05
5.4767715e-05
0.00026586437
-0.00014684277
6.5583382e-05
0.00032280005
-0.00029839147
0.00012801853
2.5397631e-05
-0.00014647435
0.00015989499
2.7303875e-05
-0.00012080433
0.00019751308
5.5136492e-05
0.00046000544
9.5435464e-05
5.9607517e-05
0.00072618567
1.6619899e-05
0.00014385229
3.8504363e-05
0.00012376934
-0.00013194609
-0.0002394933
0.00012973005
-0.00030370138
-0.00010112957
-7.0844061e-05
-0.00011970053
-1.3975949e-05
-4.4722328e-05
0.00019010388
-0.00022340595
-6.3541164e-05
5.1163767e-05
-0.00025723658
-0.00016225588
-5.1351344e-05
-0.0001035837
-5.2700342e-05
0.00011307589
0.00031483311
6.5857621e-05
0.00025806323
0.00019462571
0.00014732798
0.0004274514
-0.00026196048
6.3677258e-05
0.00014206098
-0.00020305543
5.5135905e-05
-0.00011427288
-0.00013110295
1.0435182e-05
1.2186785e-05
0.00015724311
5.9348987e-05
4.8481136e-05
0.00068173318
-2.0161655e-05
0.00015316929
0.00057292467
-0.00019717254
0.00028049719
1.5807172e-05
-0.0002339907
9.15877e-07
-0.00015702179
-0.00017248776
-0.00015001112
-0.0003543043
6.5929216e-05
-5.8939752e-05
-3.8811244e-05
0.00020918808
0.00061029119
1.5108396e-05
0.00029543014
0.00028218175
-4.4061338e-05
0.00013440083
0.00019303022
-0.00013957432
-8.9340396e-05
0.00016591585
-3.6457777e-07
-4.9677893e-05
-3.4917876e-05
-3.8110057e-05
0.0001490927
-0.0003681659
2.9726876e-05
0.00019440647
-0.00028386982
4.0624152e-05
6.365282e-06
8.7615606e-05
9.2509455e-05
-0.00016669311
0.00019878924
8.3131562e-06
5.7710497e-06
0.00020050698
2.3368293e-06
0.00021878085
0.00039335143
4.5991909e-05
0.00019042132
9.1524719e-05
0.00011679117
0.00013274354
-0.00018874423
8.6373703e-05
6.1741631e-05
1.9205659e-05
-4.1047672e-05
8.7890794e-05
-9.4003651e-05
-5.4069927e-05
0.00012102415
-0.00040868502
2.6938123e-05
-4.5662208e-05
-0.00017671932
5.1239145e-05
-0.00027972542
7.9882131e-05
0.00013154982
-6.2858657e-05
0.00012250115
2.9215501e-05
0.0001783102
-0.00012480416
5.4156407e-05
0.00019990525
-0.0003049044
-8.6972259e-06
5.0192127e-05
-4.7763304e-05
-0.00011623402
-0.00017714545
0.00018029643
-0.00010511727
-0.00019099647
0.00016005286
-5.5101877e-05
7.0579769e-05
0.00043056514
1.1709785e-05
0.00035658851
0.00030020796
-0.00014170547
0.00019358636
0.00023465898
-0.00020750625
3.7079056e-05
-7.4838157e-06
-9.8062475e-05
-6.6488742e-05
-0.00034347216
5.5154385e-05
-0.00024011013
0.00010393123
0.00017777028
0.00037197657
6.4704714e-05
0.00024201969
-6.4348574e-05
0.00037988164
-7.1135022e-05
0.00048340918
-6.0494796e-05
0.00040213399
-7.2928832e-05
1.0734551e-05
-3.5319842e-05
-0.00031239177
-5.4989459e-05
-0.00030315635
-4.3115317e-05
-0.0001787051
-2.7311269e-05
-4.5089029e-05
-1.1343242e-05
0.00023309591
2.5679495e-05
0.00034423357
2.0655499e-05
0.00022520397
6.4936573e-05
0.00026504455
0.00013640736
0.00021244192
0.00011083786
-6.2492742e-05
-3.5458512e-05
-0.00017007398
-0.00016696531
-9.7838121e-05
-0.00013845114
-9.2270047e-06
-7.2533806e-05
-0.00015314828
-5.0568753e-05
-0.00043365889
-5.7594531e-05
-0.00043208508
-1.1690617e-06
-0.00030053997
6.2287056e-05
-0.00023560144
0.00011882209
7.1331323e-05
0.00011564572
0.0002967244
4.3167591e-05
0.00042704634
7.7108843e-05
0.00028212225
0.00015936588
-0.00018749148
0.00013241116
-0.00025838507
0.00012279062
0.00010761143
-7.4030403e-05
0.00012479756
3.5746521e-05
-0.00016614394
0.00017449011
-4.4808129e-06
-0.00017057284
8.9898715e-05
-1.212025e-05
-7.1822484e-05
-0.00011223992
-7.5743258e-05
3.443462e-05
-9.7567468e-05
-1.7224041e-05
0.00013187199
-0.0001742808
1.6072776e-05
0.00030494206
-0.00027057114
7.1451009e-05
0.00032043369
-6.7827449e-05
1.5781986e-05
0.00017304216
0.00013180063
-1.8441816e-05
-7.2955415e-06
0.00013253898
-1.037187e-06
-7.3959195e-05
4.0250193e-05
-9.4273485e-05
6.615175e-05
-0.00022346994
4.7904882e-05
0.00021867392
-0.00025582138
1.349434e-06
0.00030829742
-0.00016735072
0.00025288725
0.00010815991
0.00017759717
0.00013703261
0.00014423505
0.00012262952
6.6823661e-05
0.0001572734
6.1421185e-05
-3.6612755e-05
0.00014741336
0.00012304013
-0.00017341096
0.00019739603
0.0001162517
-0.00010765288
-0.0001082624
0.00013549579
0.0001015297
-0.00027833663
0.00010895406
0.00016608327
-0.0001180848
-5.2513786e-06
0.00010258153
6.2896283e-05
-0.00010639428
-4.2602389e-05
0.00013410285
-0.00014873978
-0.00014083362
0.00012739688
-0.00017049244
-2.4311523e-05
-8.0300242e-05
-9.8489799e-05
0.0001840257
-0.00022552152
-3.8323749e-05
0.00014595956
3.9751245e-05
-8.4043458e-05
0.00015999819
-0.00012643518
-0.0003637526
0.00064242827
-0.00011409173
-0.00056367553
0.00057505419
-0.00014556858
-0.00041211185
5.7499403e-05
-0.00011420679
-0.00013934538
-0.00035245883
-7.9155836e-05
8.0459696e-07
-0.00027880337
-3.5924131e-05
0.00016281866
-0.0004023932
5.4637929e-05
0.00041518225
-0.000606034
0.00013453367
0.00054447087
-0.00027467234
0.00016513791
0.00018458217
0.00055374594
4.346566e-05
-0.00029311309
0.00065751619
-8.0396174e-05
-0.00031465956
6.8167911e-05
-0.00013718589
-1.8077382e-05
-0.00053894017
2.2606285e-05
5.1094121e-05
-0.00057859883
8.756624e-05
0.00019121082
-0.00045409031
0.00020356864
6.3600039e-05
0.00029836374
8.2391963e-06
0.00041510973
8.3148232e-05
0.00015246897
0.00055035373
-6.2259013e-06
-0.0001855442
0.00055023245
0.0001997738
-0.00010798726
0.00012351281
0.00021727309
0.00010010333
-0.00039394042
0.00019840634
0.00033147955
-0.00060088783
0.00010714006
0.00049019486
-0.0003072564
-5.6328826e-05
0.0002118206
0.00041490447
-0.00021405356
-0.00020500715
0.00062608854
-0.00029360236
-0.0002086349
0.00019427618
-0.00024856515
3.8763053e-05
-0.00032552907
-9.4411783e-05
0.00035128385
-0.00056793224
2.8395051e-05
0.00042566548
-8.4907599e-05
5.7799271e-06
0.00054588586
-1.4783502e-05
2.3549601e-06
0.00065239351
-6.9065142e-05
0.00010646859
0.00047735724
-9.4138692e-05
0.00020059799
-5.5784635e-05
-8.9563554e-05
4.5562705e-05
-0.00012078726
-2.1868566e-05
0.00017132605
-0.00042664645
8.7663127e-05
0.00017744724
-0.00034274031
6.2244452e-05
-0.00011316552
-0.00013486581
-2.0660435e-05
-5.675762e-05
-0.00015800792
2.4440774e-05
0.00010353036
0.00047379146
1.5101964e-05
0.00021772693
0.00057548952
-1.5550002e-05
0.00034464914
5.1288433e-06
5.9886199e-05
8.6889643e-05
-9.8680301e-05
-5.277032e-05
-6.6743398e-05
-0.00035990535
-0.0001359045
-7.7501572e-05
-0.00048805446
4.654124e-05
-0.00012398393
-1.2801847e-05
-9.4673596e-05
5.5304821e-05
-3.7658775e-05
0.00020023679
0.00049248258
-2.1203188e-05
0.0002955565
0.00047698911
0.0001252516
0.00037813577
5.2247014e-06
9.9386101e-05
0.00029699292
-0.00026877481
1.1113129e-05
1.2180886e-05
-0.00030352187
-2.1187586e-06
7.8088159e-07
-0.00028191885
4.5411432e-05
6.2908713e-05
0.00032023112
1.2383855e-05
0.00011224014
0.00051341195
-0.00013382739
0.00023991254
1.9271187e-05
-0.0001866581
0.00012068547
-0.00032409483
-5.4694932e-05
-8.7226624e-05
-0.00038553014
9.1439222e-05
-6.4534884e-05
-0.00010857752
0.00021016627
0.00047170232
2.4757057e-05
0.00023810068
0.00041077037
-4.0538876e-05
0.00041328946
0.00022916069
-6.6566548e-05
0.00022247599
0.00024102266
-0.00010635839
4.8341381e-05
0.00011870051
-0.00010346322
4.5204723e-05
-0.00041323778
1.9454863e-05
5.4808226e-05
-0.00032698284
1.5263188e-05
-5.8083532e-05
0.00011909878
-4.8563366e-05
-0.00016147957
8.6142241e-05
-0.00013244096
9.7240251e-05
0.0002422761
-2.486762e-05
0.00039478784
0.00027259375
5.1340097e-05
0.00030942903
0.0002426196
-3.5340766e-05
0.00019218191
0.00010450337
4.3715515e-07
0.00020916553
-0.00035200257
-6.5934067e-05
0.00023587034
-0.00056882919
0.00021027092
-7.1446382e-05
-0.00017275685
0.00033959332
-0.00037728196
0.00029841617
1.0885542e-05
0.00011035377
2.3176806e-05
0.00031223151
9.0142011e-05
0.00013965754
0.00029422346
-4.7016073e-05
6.1551594e-05
0.00021071168
-0.00030229033
7.9327333e-07
0.0001055883
-0.0003094132
5.8974261e-06
-5.7777081e-06
-0.00020514117
-2.051357e-05
0.00010685891
0.00016935655
4.9947709e-05
0.0003070224
0.00024784117
-7.6298183e-05
0.00021003363
0.00010397034
-0.00019521664
7.6224898e-05
-0.00030640576
1.8057191e-05
-5.3074408e-05
-0.00033018752
0.00012911108
-0.00022600428
0.00012306051
0.00011906214
0.00024656421
6.383855e-05
0.0003024135
4.4008301e-05
0.00041217807
4.8261093e-05
0.00053875264
5.3953291e-05
0.0005160538
6.8470527e-05
2.7365991e-05
4.0130193e-05
-0.00032209544
-3.2510863e-05
-0.00020637125
-3.9740716e-05
-0.00010041741
-4.7122862e-05
8.9186359e-05
4.1329089e-05
0.00028531223
0.00010214737
0.00046029055
8.8296785e-05
0.00052588489
0.0001038456
0.00025063424
5.9655431e-05
-0.00020735708
-0.00031426198
-0.00014163396
1.833106e-05
0.00017169024
-0.00011553921
0.00023374105
-2.2477557e-05
0.00022535949
-9.6229046e-05
6.2005503e-05
-0.00014010542
-0.00011438947
-7.0731191e-05
-0.0001862893
-1.4419267e-05
4.8659967e-05
5.0052996e-05
0.00029840893
4.1259789e-05
0.00038165451
9.7833598e-05
4.3207644e-05
0.00019140699
-0.00033733376
0.00018276505
-0.00024419085
0.00015270822
0.00010998479
-0.00011338932
0.00014138894
7.1061577e-06
-0.00017076799
0.00010610475
-5.3826962e-05
-0.00013577905
-1.8684751e-05
-2.9384579e-05
-3.1533617e-05
-0.0002161866
3.5340904e-05
0.00011531438
-0.00023834678
7.3607424e-05
0.00022426134
-0.0002319632
0.00013816934
0.00022682205
-9.5584076e-05
0.00016294697
0.00010439973
7.2363632e-05
6.3917665e-05
-9.7559279e-05
0.00014432397
3.7017868e-05
-0.00019076912
7.6450301e-05
1.583168e-05
3.2152433e-05
-0.00034278785
2.174758e-05
0.00014368791
-0.0001735405
0.00010885232
6.4808814e-05
8.0274072e-05
-2.6583308e-05
0.00015676462
-6.4897305e-05
-5.0328475e-05
0.00014852393
4.6520694e-07
-0.0001752293
0.00021077194
3.4436757e-05
-0.00026761024
0.00015524303
7.7815233e-05
-0.0001612468
-0.00012635243
0.00013077639
4.3652092e-05
-0.00031740854
0.00010549372
0.00010040794
-0.00015865203
-6.9577207e-06
-2.1164436e-05
2.1828024e-05
-5.1316101e-05
-0.0001131042
1.7700805e-05
-9.7647519e-05
4.3180463e-06
-0.00026578496
4.7524114e-05
0.00019154942
-0.00028519692
5.5082684e-05
0.00020427143
-0.00014661837
4.544615e-05
7.5914433e-05
-2.4399434e-06
-0.00032438731
0.00059006357
-0.00023837905
-0.00046431877
0.0003878942
-0.00028742658
-0.0003346307
-6.9076186e-05
-0.00019350343
-4.5450161e-05
-0.00052100559
-6.3517378e-05
0.00019684493
-0.00052967409
1.3108095e-05
0.00043537018
-0.00053289318
0.00011704266
0.00058251155
-0.00027045654
0.00016226476
0.00023336183
0.00050556659
8.108468e-05
-0.00026704322
0.00065546769
3.2726982e-05
-0.00029750733
1.4761536e-05
1.1756702e-05
-3.4844101e-05
-0.00072613247
-1.6504492e-05
0.00013284773
-0.00044794058
0.00012931453
7.7330808e-05
0.00020789197
6.8633555e-06
0.00033286774
-0.00018919237
-0.00018602383
0.0005712734
-3.0088474e-05
-0.00026111765
0.00035337213
0.00014976673
-0.00017720049
4.866377e-05
0.00022106843
9.5531655e-06
-0.00041007745
0.00020411141
0.00014621467
-0.00064424728
0.0001338484
0.00021898223
-0.00036338908
-8.2084084e-05
-6.5110116e-05
0.00024587193
-0.00023355393
-0.00014760747
5.0339307e-05
-0.00019870629
0.00011291008
-0.00062372399
3.0097019e-06
0.00030759335
-0.00057427703
0.00012279189
0.00044359899
-0.0004113302
0.00013448613
0.00038927786
0.00011545207
6.3017967e-05
0.00054725175
-8.9271287e-05
0.00018541329
0.00024968284
-7.832265e-05
0.00022033833
-0.00010933213
-8.4232652e-05
8.8817631e-05
-0.00030019824
-0.00011115522
0.00016772083
-0.00047327994
-4.763422e-05
7.1003407e-05
-0.00029935627
-7.4575025e-05
1.5098286e-05
-0.00012233871
-0.00011287314
0.00010440465
0.00044047085
2.3015693e-07
0.00023418537
0.00054711035
-6.3214178e-06
0.00038169939
-5.2860188e-05
-9.5442297e-05
-9.55202e-05
-0.00011258241
-7.6444269e-05
-0.00031543859
-0.00026842703
-1.2365478e-05
-0.00041991187
4.5899594e-05
0.00011345315
0.00014738073
5.0830676e-05
0.00022903395
0.00051097088
6.9973329e-05
0.00038501132
0.00025969781
3.708305e-05
0.0004807311
-3.1451263e-05
-4.4916238e-06
0.00024600037
-0.00010439101
-7.307448e-05
-7.5969051e-05
-0.00021503266
-6.1833787e-05
-0.00026053331
-0.00013049639
-3.5944585e-05
2.8662136e-05
-7.8116464e-05
-9.9034454e-05
0.00031189173
-0.00033715304
-8.2395346e-05
0.00019388068
-0.0005408653
-1.9542569e-05
3.2488571e-05
-0.00045592381
0.00013447811
-6.1357415e-05
-0.00014756396
4.0246028e-05
0.0002837642
6.891331e-05
0.00024864479
0.00029711263
-3.9044543e-05
0.00033846292
0.00013074939
-3.7451228e-05
0.00016235502
0.00011624147
-0.00015582408
7.5889431e-05
-0.00021327251
-0.00010392336
0.00011884667
-0.00046908157
-2.7700742e-05
5.4150332e-05
-0.00018136252
-3.8034213e-05
-0.0001212953
0.00014812214
-0.00014357858
7.3108952e-06
0.00023027827
-5.0854569e-05
0.00030380263
0.00020921963
1.6531369e-05
0.00025137503
9.9027468e-05
-4.8119953e-05
0.00010979873
8.3218545e-05
-8.9565425e-05
4.6176399e-05
-0.00023221823
2.785068e-05
-0.00046532574
2.56562e-05
7.8483207e-05
-0.00011624047
0.00020831481
0.00030791699
0.00025203296
0.00016916168
0.00043835062
9.8686249e-05
9.2129523e-05
0.00031180869
8.9389557e-05
6.4943699e-06
0.00022073052
1.3719853e-05
-2.1135284e-05
0.00017316077
-0.0001528441
-3.5132406e-05
0.00012030232
-9.8357405e-05
7.066716e-05
0.00024769688
-0.00022750404
-5.4305182e-05
0.00018221574
-0.00034156688
-0.00012532166
7.724616e-05
-0.00051995702
0.00010211851
-7.0083124e-06
-0.00044252624
0.000199968
-0.00016880278
-3.014077e-05
0.00016343343
0.00013265975
4.6140227e-05
0.00028053837
6.0582568e-05
0.00042235935
3.7189505e-05
0.00055829582
3.4258284e-05
0.00037030339
4.3190452e-05
-0.00011233986
5.3691879e-05
-0.00033817866
1.1965423e-05
-0.00020770584
-2.2091386e-05
-3.0243285e-05
5.6928584e-06
0.00015506455
6.5240888e-05
0.00032979005
2.6449335e-05
0.00049732551
3.9798762e-06
0.0003888585
-1.9905621e-05
-1.6811809e-05
-6.4515542e-05
-0.00016726413
0.00010872628
5.6313579e-05
0.00015187267
-4.0689181e-05
0.00020896201
-0.00010780522
0.00030435979
-0.00015240913
0.00032120325
-0.00018410684
0.0004130823
-0.00014018347
0.00037730592
-0.00015046788
0.00021732975
-8.3757113e-05
-0.00013073405
1.9513777e-05
-0.00039676846
6.2732278e-06
-0.0002726828
-1.5181939e-06
-3.003825e-05
-0.00017983543
0.00011859677
6.7761531e-05
-0.00015005849
-7.2450975e-05
-1.2471397e-05
-2.7821634e-05
-0.00020802321
5.4878032e-05
0.00011172401
-0.00025989737
0.00015455342
0.00021195726
-0.00021649874
0.0001886374
0.00016341603
-1.3571444e-05
0.00020054639
5.0125258e-05
0.00013805913
0.00013805419
-6.2478854e-06
0.00013274145
-1.4991218e-05
-0.00010305389
0.00015021369
-1.7779052e-05
-0.0001413061
0.00010047107
-4.5831028e-05
9.6617938e-05