/*--------------------------------*- C++ -*----------------------------------*\
| =========                 |                                                 |
| \\      /  F ield         | OpenFOAM: The Open Source CFD Toolbox           |
|  \\    /   O peration     | Version:  v2012                                 |
|   \\  /    A nd           | Website:  www.openfoam.com                      |
|    \\/     M anipulation  |                                                 |
\*---------------------------------------------------------------------------*/
FoamFile
{
    version     2.0;
    format      ascii;
    class       volScalarField;
    location    "800/bottomWater";
    object      T;
}
// * * * * * * * * * * * * * * * * * * * * * * * * * * * * * * * * * * * * * //

dimensions      [0 0 0 1 0 0 0];


internalField   nonuniform List<scalar> 
1460
(
973.57592
971.8506
969.55196
973.5299
970.89612
962.31374
958.843
956.93172
956.57516
957.03344
958.84038
956.30255
934.46046
931.11149
928.60124
927.18667
925.941
922.57651
913.75263
911.49832
914.79894
917.06882
916.86524
915.1653
912.64382
910.37656
908.2236
908.14892
908.7645
910.59167
972.61214
971.82861
969.25605
971.48946
968.88868
959.6117
957.47927
955.71143
956.73365
955.85279
956.84837
952.47655
934.36689
930.57064
928.74667
926.73402
922.59235
917.46563
909.90599
908.36891
909.77152
911.24581
911.97199
911.61061
909.56238
908.62144
908.28315
907.37242
907.10682
908.43612
973.10158
972.56247
969.45421
967.89661
968.23461
959.95615
957.35824
955.40476
956.68669
955.47874
954.88188
949.48493
934.52439
931.90259
931.14473
926.80097
921.85042
919.09972
908.86969
908.84786
909.73034
910.87236
910.831
911.14968
909.62729
908.95516
908.54056
907.30899
907.04446
907.40135
973.71411
974.03054
971.5432
967.3066
966.87421
960.6571
956.63608
952.03548
952.2091
951.2533
949.71172
947.16127
934.80834
932.13314
931.49942
926.92875
922.80201
918.28158
907.94343
908.10462
909.82274
910.36632
910.47194
910.66898
909.70323
909.48942
908.93069
907.488
906.82624
906.33228
974.00727
974.17798
974.19304
968.46335
964.44944
960.71154
955.07174
951.51209
948.96326
946.69921
945.76545
943.90568
935.12593
931.69056
930.30902
928.41689
927.17497
920.70404
907.15965
907.19955
907.61384
907.75253
908.24529
908.67015
908.72611
908.03532
907.73287
907.32264
906.8124
905.77039
973.82173
972.59193
971.8596
973.44392
970.11591
970.1761
969.75374
967.46036
964.03576
963.84206
964.06053
953.19274
946.25153
939.89938
933.71504
927.5255
928.80475
926.59883
918.4185
915.35751
920.62638
912.32109
915.90264
914.36546
912.57509
910.6476
908.21646
908.5202
909.52805
908.96781
973.01336
972.59006
972.497
971.41219
968.7384
968.4372
968.29031
966.37425
961.54334
960.5963
958.25101
948.49164
942.10601
935.85466
932.39887
926.06374
925.92162
921.39645
914.05342
916.46196
913.45736
911.17942
911.8373
911.81276
909.82111
908.98749
908.64949
907.74067
908.01994
908.3872
973.23702
973.99764
972.77871
971.00435
968.67189
962.94375
965.27322
965.71871
960.53499
958.56846
958.82168
951.53985
942.76808
938.89788
932.51039
926.03125
922.47374
921.54991
921.6908
918.0231
913.34898
911.07843
911.21644
911.56229
909.76069
909.05116
908.68315
907.68276
907.74087
908.35434
973.54561
973.97513
972.93668
972.07495
970.94711
963.93867
961.88804
962.02895
960.56415
956.35672
951.78052
950.08703
943.3767
941.01359
930.71406
927.39086
919.81027
917.32082
919.63321
914.04152
911.24624
911.08903
911.41774
911.36708
909.74641
909.5666
909.20646
907.61316
907.39131
908.33296
973.74781
973.87259
973.76155
973.66388
971.93366
964.73744
963.54523
962.61952
961.49339
956.86577
946.02766
945.94932
939.68537
937.93756
934.43569
929.18162
919.45964
910.86525
908.33939
908.55654
909.55776
909.46721
909.80943
910.19119
908.86696
908.5626
908.3597
907.84155
906.97317
906.92652
975.44065
974.18602
972.8896
975.76528
973.15231
969.23548
967.89634
969.3306
969.52186
969.79213
961.50966
951.26477
952.89834
951.80515
941.27216
925.11314
926.18462
927.86431
923.72013
919.04979
917.35634
915.33159
917.0981
915.64575
912.62277
910.51904
908.79896
907.78914
908.13474
906.99198
973.93144
973.34029
973.20463
974.48511
972.20692
967.03457
966.22971
966.34026
965.65824
960.90666
953.71914
950.23541
946.55131
938.7695
928.77723
924.05042
922.63796
923.10032
917.61683
916.44285
914.15262
913.05296
913.22832
913.12984
909.65019
908.43888
908.19477
907.32403
907.51611
907.36217
973.98456
973.59849
973.07308
972.96196
971.00796
967.08112
965.97151
965.35181
965.59102
960.93443
956.80025
951.29894
941.37994
935.58117
929.39879
923.65781
921.7609
922.66173
919.1852
915.42574
914.11828
912.53637
912.92118
912.84869
909.73773
908.53897
908.34571
907.17458
907.585
907.42477
974.09456
973.54555
973.69058
972.86844
970.36927
966.42044
964.50313
964.12566
965.40968
960.55643
957.07124
955.09944
951.91671
939.962
930.53992
921.66551
921.84066
921.74494
917.8117
911.90984
911.63307
911.44384
912.22077
912.59794
909.96839
909.40544
908.72669
907.02377
907.44703
907.50724
973.76355
973.43452
973.32329
973.08105
971.41917
965.44688
965.02367
964.82583
964.71896
960.11809
958.16586
954.75519
947.9161
941.96106
929.7747
915.7263
916.38431
916.06173
910.01641
907.9611
909.36221
910.31444
910.8287
911.54332
909.37551
908.77438
908.0533
906.81177
906.42484
906.88944
976.23902
974.56217
972.98311
971.15548
970.92323
969.20221
968.11231
969.40953
970.58408
969.43592
961.45901
960.74456
955.5153
944.38066
943.08648
938.61341
931.93199
931.67857
926.18302
920.97644
917.82299
913.887
915.51791
915.18077
912.00967
909.0096
908.52656
906.85915
907.2081
905.60433
972.06658
971.21805
970.73667
970.70558
969.97798
968.05678
966.8632
966.97662
967.70732
963.72615
959.77445
959.508
955.17354
933.63541
933.402
932.12207
927.83727
926.99815
920.74138
917.6322
915.14056
912.66594
911.23595
911.60733
909.5218
907.1369
907.25677
906.81091
906.93834
906.53944
971.88725
970.9439
970.4205
971.18721
970.39693
968.05065
966.55057
966.61969
967.6371
964.164
961.59272
959.24054
955.35091
934.76382
929.56564
919.96805
917.57345
924.37604
920.93321
918.557
915.31743
912.34362
908.74381
911.98814
909.52639
907.55061
907.55191
906.75187
907.22266
906.54805
971.86887
971.18524
970.72338
970.65723
970.50155
967.13099
965.85365
966.67325
967.60676
964.44308
962.78055
961.51336
959.94686
939.49941
930.58351
923.80522
921.49565
923.46977
920.05489
915.43809
910.81539
909.16511
908.13775
912.12446
909.80506
908.57545
907.80941
906.31496
906.97054
906.63982
971.95812
971.71702
971.4503
971.4535
970.93139
966.21597
966.10411
966.49678
967.334
965.10072
964.0747
962.94283
959.83194
935.14629
914.49252
918.85129
917.06856
906.91691
907.1012
905.71464
906.36752
906.5801
908.21038
910.31683
908.86147
908.10938
907.48514
905.74626
905.92304
906.05464
973.47804
970.82082
970.11155
968.83916
967.66043
966.92198
967.49574
966.9978
962.55622
960.05955
957.907
956.70834
943.32272
913.28451
925.97153
922.04008
918.19362
914.56439
911.61846
910.77213
909.69644
906.43241
906.12002
904.77635
904.49626
902.71421
967.94458
966.78054
966.80618
967.32901
966.58977
965.67989
965.61111
966.06452
962.41978
958.74609
957.76865
955.28866
945.55336
902.84033
919.84896
918.13253
915.69508
914.35697
912.03958
910.16398
908.70221
905.6818
906.11777
905.82284
906.24041
905.71287
967.78129
966.94594
967.03933
967.16246
966.70562
965.20454
964.71028
966.06081
962.8674
959.65251
957.88518
955.23473
950.25602
898.08671
916.46627
917.27632
916.37846
915.24318
912.23495
909.33261
908.52869
906.37734
906.13216
905.69132
906.55432
905.75169
967.79969
967.52491
966.95764
967.60785
966.73302
964.46838
964.15184
965.41615
962.96375
962.25205
959.72632
961.94945
955.59864
893.61319
914.42042
915.2486
914.59758
913.7875
911.29837
910.55737
908.18502
906.64091
906.08735
905.25797
906.18949
905.88936
968.30778
968.43356
968.4624
968.81295
967.18089
963.54599
963.86013
964.62691
963.89023
963.88058
963.31706
962.64011
958.37969
894.10576
909.45496
909.96544
910.05608
909.01736
908.47388
907.92523
907.33219
906.43192
905.88284
904.74414
904.82949
904.97529
968.96736
966.74987
965.92325
965.59857
965.57259
967.60817
968.42853
961.66745
954.6282
948.79958
946.16568
953.36098
936.49507
908.52865
918.49326
919.70115
917.52728
914.60874
912.00326
909.82398
908.0232
904.35831
905.74179
903.74674
903.13933
900.75409
965.88029
964.65643
964.4129
963.37337
962.40674
963.83276
965.1185
962.06329
952.07099
947.42461
944.80557
950.94857
941.85292
903.4705
909.91248
916.87438
914.84396
912.81743
911.22986
910.63273
908.15268
904.79679
904.32279
905.02566
905.39867
904.69108
965.75377
965.2584
964.22591
962.77615
961.34016
963.9235
964.98449
960.50781
952.69739
949.552
944.70242
943.81515
939.39624
893.42419
910.63751
916.2637
914.64121
913.12598
912.51773
911.17583
908.22579
904.62553
904.08631
905.01666
905.45286
904.81969
965.42512
965.59179
964.16507
962.84179
961.19836
961.15694
963.43159
960.07314
956.72734
953.41284
948.63372
945.73222
940.305
898.70065
911.96961
915.41644
914.3091
913.38974
912.86199
911.0195
908.21393
904.44621
903.85561
904.64133
905.43019
904.92565
964.33977
963.91908
963.56985
962.97114
961.95121
961.83617
962.35763
961.29555
960.27544
950.16918
946.41953
945.8088
942.79463
896.15972
909.31181
912.87768
911.7879
910.92659
910.41567
909.25498
907.94889
903.90371
903.18387
903.46846
903.82029
903.81916
970.87392
966.26334
967.63314
969.1268
969.93555
969.32803
965.48605
959.77037
955.16837
939.25105
928.91409
925.90114
922.259
918.32331
917.07538
908.56799
909.07833
911.95804
909.53258
915.51979
918.25044
916.50887
914.2933
912.70261
910.76761
908.65936
907.18901
903.27028
901.71754
897.97193
965.63012
963.94787
963.17217
965.11551
966.2588
966.7943
963.25636
958.32533
957.29381
939.0431
928.80325
927.88788
925.01748
923.06173
919.22004
910.36587
907.70881
907.64557
907.56561
909.8173
912.57895
912.92411
911.29682
909.76411
907.65329
905.47685
905.40895
904.90115
905.02776
903.79217
965.16725
963.82906
962.45766
960.8876
958.60814
966.84502
964.19246
957.23078
950.81443
938.29268
930.83866
934.96101
935.77776
926.80725
920.77665
911.81677
907.58506
898.13709
907.70649
911.22626
912.33437
912.67557
911.15254
910.17416
908.03731
904.89505
904.76836
904.76839
904.54409
903.89499
963.45158
962.37831
961.06076
959.40074
955.79279
955.82202
959.49578
955.72144
949.87721
940.32987
931.37977
941.65081
937.72799
930.88519
922.53599
912.23489
912.85213
906.65643
911.89589
912.34222
912.18824
912.53249
911.33607
910.90227
909.33691
904.47549
904.25875
904.51189
904.3574
903.9415
961.98829
961.8938
961.42543
959.68898
954.3858
953.6502
953.48804
952.71667
948.91779
943.91853
935.62771
938.45449
938.53163
935.50049
921.60624
909.06827
906.58934
905.33298
907.1918
909.44746
910.72207
911.40513
910.12675
909.0757
907.34556
903.49394
902.9725
903.44148
903.46278
903.33769
970.72702
971.87632
971.38563
970.21632
967.4221
963.2099
959.052
956.50724
955.45208
945.38247
929.26803
929.02558
927.38443
921.66811
913.99465
912.44044
912.47337
906.01746
910.56354
914.66007
917.41063
916.14617
914.24314
912.41804
910.18622
908.24061
906.76745
902.89476
898.14663
892.00677
963.36471
966.12771
967.17019
967.23342
965.14239
962.35142
960.31337
956.73043
953.13244
949.90385
930.77819
931.40592
929.39367
925.04547
915.71372
913.41279
914.74593
905.76245
908.35953
910.66343
912.41618
912.18818
912.04727
910.11859
907.57286
906.36654
905.94635
904.99518
904.9352
902.91267
963.64677
965.60003
966.43919
966.65979
964.63164
963.23711
961.89199
956.55985
949.62444
947.48199
930.71181
933.48873
929.34786
922.83983
916.86521
920.55191
916.73707
905.84993
908.09885
910.75623
911.84874
911.65267
911.48432
909.75469
907.37129
905.90747
905.64588
904.97435
904.39677
902.99546
962.1123
962.99071
963.43837
961.84132
957.37087
956.77119
955.80494
953.343
949.7342
947.81773
930.49242
936.70922
932.48318
928.01875
924.1254
923.83652
921.07611
908.75864
908.00319
908.94222
910.2546
910.52194
910.10345
909.44126
907.49734
904.54339
904.73686
904.02127
903.46248
903.06659
961.69337
961.4273
961.37519
955.97398
953.20077
953.5252
953.73513
952.56281
950.48254
948.86935
931.29856
933.50582
933.43281
932.04281
927.40584
921.96611
918.96494
911.37975
907.24894
908.298
909.06825
909.39379
909.13863
908.33231
906.75618
903.1166
902.43288
902.79141
902.63875
902.61699
964.01143
965.32578
967.5237
970.94101
966.81883
963.67863
960.89062
955.54859
956.45603
942.83509
932.09482
931.66191
931.13044
933.46563
926.67644
925.18615
920.3725
919.52195
918.00539
915.72883
914.70794
912.60664
914.21415
915.19171
910.33664
907.9371
906.13713
902.71981
900.71626
898.02532
960.78171
960.34243
960.77549
964.28232
963.91589
962.47836
961.6189
955.42535
955.56761
949.42537
931.91282
931.9391
931.07152
931.48437
927.274
917.29956
916.33697
915.72548
914.47083
912.49052
910.35967
910.49227
910.62137
911.57061
908.84431
906.47481
905.50499
903.97298
903.89945
902.58428
962.13475
961.60243
961.82085
964.52722
963.7359
963.25929
961.84104
954.16597
947.53615
949.6978
932.0987
932.44326
930.22366
929.20268
925.55645
916.76275
914.8466
911.98411
912.64762
911.53024
909.23385
910.41793
910.70448
910.84212
908.40282
906.38729
904.76375
903.9188
903.20912
902.68841
961.68623
962.22929
962.43
964.29765
962.49044
959.4745
957.38108
952.07819
948.24476
949.92284
937.11911
935.80413
931.7139
930.30381
925.60961
919.3975
919.40654
912.98102
913.22806
910.92366
907.91893
909.56416
909.74764
909.88428
908.2235
906.6175
904.46675
903.47555
902.92168
902.78258
960.75125
960.10434
955.4472
954.31498
954.05197
953.76267
951.31938
950.11144
949.21231
949.87101
939.1085
935.94176
934.44848
930.54875
923.79436
921.17224
919.48179
916.81101
915.41807
910.95273
907.65621
907.92818
907.92024
907.65842
907.36372
906.0393
903.30288
902.15149
902.33987
902.32503
961.41158
960.61797
960.22348
966.51759
972.74409
965.12699
957.46341
951.73375
945.92186
939.17187
936.40994
935.44994
934.98061
932.33594
933.98191
929.80086
918.48378
916.55788
916.47773
918.30841
917.16722
915.03782
915.38821
916.69532
911.16104
908.36679
906.07654
902.86376
902.21171
900.51879
957.96312
956.95954
955.01655
956.95754
962.9027
964.5988
959.07571
953.87075
942.5964
936.74077
935.90407
935.90392
934.22166
930.6996
931.76152
926.01663
916.26913
915.49989
915.54812
915.93473
913.9645
911.24704
911.39059
912.43157
909.53505
907.26258
906.92988
903.68998
903.33319
902.77796
957.94781
956.96067
954.81796
957.54482
959.57993
965.37783
961.73041
957.80106
944.06988
937.33985
936.48208
936.1861
933.90029
929.41068
927.72893
925.7291
916.75032
914.86396
915.07404
915.55111
912.57978
910.1539
911.18829
912.38134
909.62144
908.48129
906.978
903.62005
902.85616
902.99823
958.57772
957.63207
953.67838
956.66889
957.53924
956.93619
955.96653
950.63005
945.96561
940.42185
939.23706
937.3965
934.2617
929.75259
926.70792
926.50856
918.64623
917.74096
916.83738
916.15878
911.60393
909.33331
911.61939
912.04907
909.38128
908.29562
906.61687
903.14216
902.52033
903.31559
959.83973
958.43471
952.17936
950.71604
950.94676
949.14822
948.44436
948.10862
946.59819
946.44569
937.46136
935.84258
932.79847
926.20245
926.28538
926.34546
920.982
919.12536
918.40567
917.83594
910.82385
908.06477
908.54958
909.05997
907.79474
907.12949
905.95049
902.73795
901.92168
902.18794
)
;

boundaryField
{
    minX
    {
        type            zeroGradient;
    }
    maxX
    {
        type            zeroGradient;
    }
    minY
    {
        type            fixedValue;
        value           uniform 1073;
    }
    minZ
    {
        type            zeroGradient;
    }
    maxZ
    {
        type            zeroGradient;
    }
    bottomWater_to_rightSolid
    {
        type            compressible::turbulentTemperatureCoupledBaffleMixed;
        refValue        nonuniform List<scalar> 
130
(
747.46134
755.07249
763.08859
771.08648
778.73875
785.81464
792.15785
797.66776
802.28726
805.99295
808.77236
810.6228
811.54533
741.6152
750.60303
759.80578
768.7511
777.11499
784.70345
791.40305
797.15146
801.93422
805.74719
808.59441
810.48555
811.43097
729.98923
742.04144
753.74541
764.57772
774.29392
782.81842
790.15181
796.31845
801.37574
805.3651
808.32291
810.28317
811.26299
712.60322
730.42922
746.17863
759.6889
771.14112
780.78929
788.84946
795.482
800.83419
805.00994
808.08267
810.11248
811.1233
692.12839
719.48174
740.0299
756.09825
768.98287
779.46057
788.01266
794.95176
800.49192
804.78523
807.93173
810.0024
811.03127
692.1774
719.53992
740.10179
756.17004
769.05047
779.51626
788.04867
794.96437
800.47651
804.75575
807.89943
809.96742
810.99389
712.70939
730.56708
746.34831
759.86711
771.30804
780.91638
788.92128
795.50196
800.79961
804.94249
808.00194
810.01982
811.02303
730.15502
742.22946
753.96578
764.79888
774.49168
782.97179
790.24568
796.35137
801.33988
805.27932
808.20814
810.14823
811.11584
741.88781
750.92896
760.14052
769.05499
777.37698
784.90979
791.54272
797.22208
801.92938
805.67031
808.46615
810.3298
811.26228
747.74839
755.48012
763.5369
771.4935
779.07991
786.08756
792.3541
797.77731
802.31534
805.9433
808.65445
810.46573
811.3755
)
;
        refGradient     uniform 0;
        valueFraction   uniform 0.99248593;
        value           nonuniform List<scalar> 
130
(
748.76333
756.21531
764.17143
772.11234
779.70816
786.73457
793.03332
798.50227
803.08186
806.75744
809.51287
811.34558
812.25336
742.88707
751.7883
760.92347
769.8091
778.10949
785.6435
792.29562
797.9909
802.73543
806.51823
809.34016
811.21056
812.14852
731.38748
743.30378
754.90418
765.66563
775.31598
783.78028
791.06392
797.16796
802.18273
806.13669
809.06295
811.00559
811.98153
714.06329
731.7566
747.37733
760.79105
772.15877
781.74666
789.76215
796.33393
801.64025
805.77993
808.81651
810.8324
811.83662
693.64609
720.90906
741.30677
757.25506
770.03506
780.42994
788.91365
795.79617
801.28795
805.54488
808.65918
810.71494
811.73718
693.71015
720.96586
741.39999
757.33933
770.11651
780.49982
788.95939
795.81332
801.25367
805.49536
808.61754
810.67265
811.69139
714.15675
731.89424
747.57381
761.00063
772.36073
781.88726
789.82411
796.34234
801.57126
805.6791
808.71908
810.72196
811.71669
731.51669
743.46939
755.12542
765.88291
775.50533
783.91982
791.13299
797.18096
802.10465
806.00935
808.91885
810.84321
811.80339
743.20221
752.16497
761.27377
770.09644
778.35793
785.83409
792.4152
798.04967
802.71166
806.40394
809.17012
811.02118
811.94654
749.03616
756.70439
764.69638
772.54056
780.04914
787.00778
793.23108
798.60397
803.10291
806.69476
809.36141
811.15295
812.05788
)
;
        Tnbr            T;
        thicknessLayers List<scalar> 0();
        kappaLayers     List<scalar> 0();
        kappaMethod     fluidThermo;
        kappa           none;
        alphaAni        none;
        alpha           none;
        field           T;
    }
    bottomWater_to_leftSolid
    {
        type            compressible::turbulentTemperatureCoupledBaffleMixed;
        refValue        nonuniform List<scalar> 
130
(
931.40508
931.36199
931.25917
931.07672
930.84356
930.57335
930.27015
929.95552
929.63995
929.33403
929.05917
928.83412
928.67572
931.35228
931.31375
931.22465
931.07673
930.86786
930.6057
930.33597
930.05277
929.75355
929.43637
929.12483
928.89315
928.73871
931.23176
931.19469
931.11269
930.9779
930.78555
930.54774
930.30566
930.05164
929.78065
929.48955
929.21969
928.99297
928.84012
931.02461
930.98913
930.91055
930.78389
930.60553
930.38383
930.1568
929.92027
929.67179
929.41149
929.17114
928.97337
928.84496
930.73912
930.70369
930.62427
930.4958
930.3134
930.09395
929.86657
929.62682
929.37071
929.11107
928.87243
928.68006
928.55306
930.41792
930.3759
930.28664
930.14553
929.95482
929.73465
929.49402
929.22738
928.93396
928.61089
928.33184
928.12997
928.00807
930.11583
930.06781
929.96477
929.80023
929.57521
929.32803
929.06193
928.77198
928.4508
928.11316
927.79762
927.59416
927.48418
929.85817
929.80033
929.67953
929.48716
929.25118
928.99775
928.72372
928.42484
928.1009
927.75827
927.39726
927.17282
927.05723
929.65416
929.58423
929.43338
929.23228
929.00094
928.74346
928.45802
928.15672
927.84206
927.51798
927.17841
926.94025
926.81574
929.53861
929.45882
929.29025
929.08123
928.84706
928.58319
928.30156
928.00506
927.69344
927.37938
927.06361
926.84143
926.72005
)
;
        refGradient     uniform 0;
        valueFraction   uniform 0.99248593;
        value           nonuniform List<scalar> 
130
(
931.72523
931.68374
931.58182
931.35767
931.09601
930.79987
930.45657
930.11752
929.78515
929.4645
929.18469
928.94736
928.72421
931.67087
931.63357
931.5443
931.39677
931.17643
930.86216
930.58554
930.2975
929.99205
929.6425
929.25185
929.0213
928.82095
931.55137
931.51211
931.42988
931.29429
931.09077
930.80999
930.56656
930.31297
930.04321
929.71967
929.43723
929.18657
928.9834
931.33221
931.29519
931.2152
931.08952
930.90851
930.65309
930.42694
930.19513
929.95479
929.6797
929.43345
929.22867
929.07782
931.02143
930.98721
930.90861
930.78374
930.59038
930.3453
930.12198
929.8898
929.63012
929.37236
929.13128
928.93525
928.77715
930.67285
930.62795
930.53674
930.39222
930.19521
929.97585
929.74097
929.4684
929.1695
928.77295
928.46783
928.26291
928.11929
930.35534
930.30696
930.20116
930.02495
929.76172
929.51078
929.24544
928.95193
928.60468
928.23203
927.85651
927.67577
927.56722
930.09738
930.03792
929.91765
929.68632
929.43111
929.18201
928.91163
928.60624
928.26912
927.91696
927.42656
927.22038
927.10517
929.8878
929.81358
929.62887
929.42055
929.18905
928.9314
928.62976
928.32166
928.00266
927.68596
927.26791
927.00777
926.87301
929.76627
929.67663
929.46227
929.24374
929.01308
928.73767
928.45288
928.15608
927.83544
927.52258
927.14163
926.90899
926.76581
)
;
        Tnbr            T;
        thicknessLayers List<scalar> 0();
        kappaLayers     List<scalar> 0();
        kappaMethod     fluidThermo;
        kappa           none;
        alphaAni        none;
        alpha           none;
        field           T;
    }
    bottomWater_to_heater
    {
        type            compressible::turbulentTemperatureCoupledBaffleMixed;
        refValue        nonuniform List<scalar> 
92
(
729.10746
731.1241
735.051
740.63228
719.86629
722.21425
726.8343
733.46378
700.34536
703.35191
709.47729
718.60714
345.38724
342.59134
342.55615
345.19863
421.58863
418.10231
418.16184
421.55703
486.70278
483.6743
484.14486
487.65042
542.04042
540.05244
541.68721
545.91135
668.55515
587.67371
672.35027
587.5869
680.68608
591.93342
694.18306
599.21277
345.38724
345.19863
421.58863
421.55703
486.70278
487.65042
542.04042
545.91135
587.67371
599.21277
345.27862
345.27862
342.5047
342.46678
345.10536
345.10536
421.47707
421.47707
418.00628
418.05838
421.45502
421.45502
486.5702
486.5702
483.59147
484.07087
487.56271
487.56271
541.90559
541.90559
539.99023
541.63778
545.88455
545.88455
587.5977
587.5977
587.58078
591.9151
599.19958
599.19958
668.74718
672.53882
680.79488
694.26189
700.4869
703.52954
709.67909
718.79291
719.97633
722.33138
726.98692
733.67382
729.23627
731.26879
735.22356
740.83513
)
;
        refGradient     uniform 0;
        valueFraction   nonuniform List<scalar> 
92
(
0.99248593
0.99248593
0.99248593
0.99248593
0.99248593
0.99248593
0.99248593
0.99248593
0.99248593
0.99248593
0.99248593
0.99248593
0.99248593
0.99248593
0.99248593
0.99248593
0.99248593
0.99248593
0.99248593
0.99248593
0.99248593
0.99248593
0.99248593
0.99248593
0.99248593
0.99248593
0.99248593
0.99248593
0.99248593
0.99248593
0.99248593
0.99248593
0.99248593
0.99248593
0.99248593
0.99248593
0.99248593
0.99248593
0.99248593
0.99248593
0.99248593
0.99248593
0.99248593
0.99248593
0.99248593
0.99248593
0.99248593
0.99248593
0.99248593
0.99248593
0.99248593
0.99248593
0.99248593
0.99248593
0.99248593
0.99248593
0.99248593
0.99248593
0.99248593
0.99248593
0.99248593
0.99248593
0.99248593
0.99248593
0.99248593
0.99248593
0.99248593
0.99248593
0.99248593
0.99248593
0.99248593
0.99248593
0.99248593
0.99248593
0.99248593
0.99248593
0.99248593
0.99248593
0.99248593
0.99248593
0.99248593
0.99248593
0.99248593
0.99248593
0.99248593
0.99248593
0.99248593
0.99248593
0.99248593
0.99248593
0.99248593
0.99248593
)
;
        value           nonuniform List<scalar> 
92
(
730.62966
732.62077
736.50398
742.03401
721.50482
723.80884
728.35471
734.8614
702.16081
705.05307
711.02703
720.09324
349.88807
347.10345
347.0349
349.60725
425.43601
421.97425
422.02371
425.36114
490.0693
487.02482
487.41962
490.88081
545.02673
542.98685
544.55841
548.73348
670.55805
590.28436
674.16968
590.04322
682.47561
594.38983
695.85778
601.60111
349.88012
349.46722
425.52569
425.17339
490.1859
490.73442
545.1479
548.52396
590.4592
601.42864
349.72101
349.58455
346.82211
346.7205
349.33894
349.34309
425.38718
425.24602
421.7725
421.75762
425.07691
425.10877
489.97273
489.87813
486.87662
487.28499
490.61229
490.71881
544.89926
544.82842
542.86487
544.42249
548.53557
548.64197
590.26678
590.21191
590.09082
594.29822
601.43098
601.50934
670.75163
674.41047
682.51015
695.85733
702.22686
705.21182
711.27429
720.29704
721.5586
723.84523
728.44608
735.07002
730.71636
732.73422
736.65975
742.18877
)
;
        Tnbr            T;
        thicknessLayers List<scalar> 0();
        kappaLayers     List<scalar> 0();
        kappaMethod     fluidThermo;
        kappa           none;
        alphaAni        none;
        alpha           none;
        field           T;
    }
}


// ************************************************************************* //
