/*--------------------------------*- C++ -*----------------------------------*\
| =========                 |                                                 |
| \\      /  F ield         | OpenFOAM: The Open Source CFD Toolbox           |
|  \\    /   O peration     | Version:  v2012                                 |
|   \\  /    A nd           | Website:  www.openfoam.com                      |
|    \\/     M anipulation  |                                                 |
\*---------------------------------------------------------------------------*/
FoamFile
{
    version     2.0;
    format      ascii;
    class       volVectorField;
    location    "800/bottomWater";
    object      U;
}
// * * * * * * * * * * * * * * * * * * * * * * * * * * * * * * * * * * * * * //

dimensions      [0 1 -1 0 0 0 0];


internalField   nonuniform List<vector> 
1460
(
(-0.0013716534 -0.015340171 0.0010088923)
(-0.0020775201 -0.012211722 0.0014348687)
(0.00097377529 -0.010928891 8.0262676e-05)
(0.0016827637 -0.013355598 -0.0013578431)
(-0.00030020114 -0.018577604 -0.00062579751)
(-0.0010800751 -0.016065165 0.0013395535)
(-0.0041120571 -0.014769408 0.0015926802)
(-0.0029736988 -0.011547567 0.0014557007)
(0.00045358768 -0.013297351 0.00059359379)
(0.0033132295 -0.011502864 0.00066638214)
(0.0027233866 -0.013484632 0.0011965732)
(0.00046278835 -0.016773514 0.0021642609)
(-0.0015958844 -0.017670648 0.00099957445)
(-0.003366825 -0.016461077 0.00044013485)
(-0.003674021 -0.016134742 0.00063488618)
(-0.0014971864 -0.013108889 0.00075905299)
(0.001473863 -0.013197077 0.0018286122)
(-0.00018081421 -0.014686571 0.0022561219)
(-0.00075064139 -0.011672239 0.002649338)
(0.002131019 -0.010743674 0.00015332319)
(0.0017126579 -0.015963894 0.00092032195)
(0.00020303173 -0.018494782 -0.00092486218)
(-0.00073533615 -0.017682114 0.00044452156)
(-0.0028605903 -0.015957288 -0.00034535712)
(-0.0043263124 -0.014706914 -0.00022335442)
(-0.0056624948 -0.014693465 3.917758e-05)
(-0.0037185095 -0.013312425 9.0161931e-05)
(-0.0010122141 -0.012489046 0.00051541165)
(0.0016553012 -0.011917272 0.0010673494)
(0.0005495108 -0.017013061 0.00090098877)
(-0.005227318 0.015880923 0.0020890732)
(-0.0023071542 0.0048613884 0.0018661697)
(-0.0024942504 0.0022660812 0.00058127617)
(0.0045280573 0.014902251 -0.003317299)
(0.0020738847 0.019041125 -0.0035222768)
(-0.0049319772 0.017684561 0.00048020154)
(-0.005461339 0.014807033 0.0010657211)
(-0.0011381911 0.001486158 0.00067901816)
(0.00074659146 -0.001895241 -0.0014437996)
(0.002913633 0.0047495842 -0.0018958912)
(0.0051969226 0.014804556 -0.00024808104)
(0.0017225481 0.018362208 -0.0011416653)
(-0.0043109204 0.018891764 -0.0023874784)
(-0.0077536875 0.017431731 -0.0026667354)
(-0.0070024277 0.011834942 -0.0015417388)
(-0.002763595 0.0022109419 -0.00068565906)
(-0.00015412043 0.007089809 0.0010393812)
(-0.00082417085 0.011856943 0.0022347635)
(-0.0010198621 5.8602044e-05 0.001329004)
(0.0011207491 0.0025037132 -6.9257705e-06)
(0.0055700933 0.016604148 -0.00059304786)
(0.0029933559 0.019616271 -0.0025094948)
(0.0011578682 0.019369128 0.0014166352)
(-0.00076289594 0.017988744 0.00065407468)
(-0.0076136317 0.016877568 -7.920975e-05)
(-0.0082591152 0.014222026 9.2406712e-05)
(-0.0030532825 0.0031808051 3.065e-05)
(-0.0015163376 0.0029966444 0.00043908792)
(0.0024590105 0.0068132835 0.0013013491)
(0.0028172706 0.0177251 0.0026135245)
(-0.0002288977 -0.0038676084 0.0011830514)
(0.0010029359 -0.014820951 5.2229697e-05)
(-0.0052228694 -0.013458816 0.0014934188)
(-0.0048301014 -0.011095028 0.00078661208)
(0.00091648131 0.0028170134 -0.0013420725)
(-0.0029687518 -0.00024660257 0.00013323899)
(0.0040094434 -0.0145461 0.000724301)
(0.004017139 -0.013735041 -0.0017057946)
(-0.00053203627 -0.015358677 -0.0046390014)
(-0.0047954387 -0.013328892 -0.0045764884)
(-0.0028301761 -0.0052564696 -0.0022823661)
(-0.0014192923 0.0058442809 -0.00099521906)
(-0.0023247384 0.0058211926 -0.0012373684)
(-0.0014154928 0.0008310601 -0.0024270777)
(0.0035700231 -0.015214224 -0.00059244642)
(-0.0013133011 -0.014859664 -0.0025988944)
(-0.0045541405 -0.012957078 -0.0026311532)
(-0.00064814772 -0.014404887 -0.00026508939)
(0.00032885281 -0.01364013 -0.0011318693)
(-0.0027555095 -0.0138059 -0.00070724365)
(-0.004191471 -0.014323352 -0.0023658401)
(-0.00073610446 -0.003491105 0.000567753)
(-0.0032896468 -0.012858509 0.0017482761)
(-0.00031108418 0.00011610768 0.00090546956)
(-0.0027736794 0.0023507919 -0.00036086586)
(0.0039291454 -0.014970048 -0.00078403544)
(0.00075147259 -0.015650307 -0.00064409833)
(-0.0050163285 -0.013622772 -0.0013304244)
(-0.0032616407 -0.01401948 -0.00095754716)
(-0.002547547 -0.010357757 -0.00029150472)
(0.0023909808 0.0075214482 -0.00051320323)
(5.3609659e-05 0.0087380955 0.001822939)
(-0.0015037368 4.8883368e-05 0.0013035028)
(-0.0040623254 0.0042236826 0.0027418078)
(-0.0022315852 0.0083824487 0.0011934581)
(0.00082267915 0.0057379564 0.003032059)
(0.0014677601 -0.00052750266 0.0007270019)
(-0.001799572 0.0023236563 -0.00029362699)
(-0.0016389565 0.010948958 0.00071793562)
(-0.0038288339 0.0091669944 -0.0013389163)
(-0.004433315 0.0082964212 -0.001198463)
(-0.0027540365 0.0095348947 0.001009846)
(-0.00087021979 0.010267106 -0.00014553262)
(0.0025467884 0.0075805187 0.00061946848)
(0.0035294394 0.010874999 -8.4657477e-05)
(-0.0022150321 0.010467397 -0.0012174275)
(-0.0029130408 0.0039500221 -0.0011340737)
(-0.0016562733 -0.0025041661 -0.00044960784)
(-0.003222859 -0.0031916512 -0.00064092391)
(-0.0015001794 0.0039179641 5.0521338e-05)
(-0.0045037304 0.013134979 0.0021770755)
(-0.0026799209 0.0089774601 0.002509389)
(-0.002774712 0.013175398 0.0015322502)
(-0.0033643243 0.0081770537 0.00036897093)
(0.0015800702 0.0075848779 -0.00045102261)
(0.0037108315 0.010307925 0.00098091297)
(-0.00053938064 0.011151066 0.0010978856)
(-0.0016138292 0.0048745025 -0.00069887161)
(0.0006609279 -0.0026162292 -0.0010136128)
(-0.002157941 0.0058017991 -0.0023781368)
(0.0016014163 -0.0042723002 -0.002433173)
(0.0037101277 -0.0091173675 -0.0027333827)
(0.0039333041 -0.0096188691 -0.002447921)
(-0.0015279997 -0.0099224021 0.0016818755)
(-0.001788708 -0.0016290195 0.0024013006)
(0.001361458 -0.0083403179 -9.159851e-05)
(-0.0033292749 -0.01062009 -0.0018150992)
(-0.0063389208 -0.0096468655 -0.0013462099)
(-0.0061901482 -0.00929174 -2.6820358e-06)
(-0.0046890201 -0.0064467853 0.0013619268)
(-0.0042132841 -0.0024226837 0.0013769005)
(-0.0029474113 0.0021249059 0.0017867214)
(0.00027670436 0.0032815239 0.0013308599)
(0.0030143314 -0.0013787727 0.0008401283)
(0.0038210929 -0.0036817878 0.0015327325)
(0.0042690731 -0.0040707231 0.0015618874)
(0.0053696345 -0.0080516953 0.0010695777)
(0.0018206086 -0.010287163 -0.00028704706)
(-0.0052229581 -0.010684716 -0.0027692122)
(-0.0077070106 -0.010381288 -0.0025438101)
(-0.0069459519 -0.010477973 -0.0025076632)
(-0.0053559609 -0.0097420894 -0.0025630074)
(-0.0039901885 -0.00913635 -0.0016855588)
(-0.0022029699 -0.0040787094 -0.0019498998)
(0.0014557522 -0.0012288676 -0.0010401658)
(0.0034971773 -0.0085099888 -0.0016675075)
(0.0050542764 -0.0082987401 -0.0015257642)
(0.0060666157 -0.010071447 -0.0018378253)
(0.0032270339 -0.010523356 -0.0023090478)
(-0.0029723978 -0.0087115275 -0.0028886441)
(-0.0011955515 -0.017178837 0.00077475783)
(-0.0029748699 -0.016199975 0.0011256722)
(-0.0011638567 -0.012561643 0.00036933038)
(0.0014707157 -0.011979344 -0.00053002228)
(0.0019585793 -0.011802745 0.00060813639)
(0.003563225 -0.014523698 -9.6617308e-05)
(0.0025958293 -0.015996139 -0.0010977942)
(0.0015610362 -0.016372263 0.00031198937)
(0.0010378445 -0.016935135 0.0024422734)
(0.001186389 -0.01627861 0.0013569189)
(-0.00034951445 -0.016313315 -0.0015193661)
(-0.00045113143 -0.01538314 -0.0016020339)
(-0.00082512166 -0.016076637 -0.00055328709)
(-0.0014590313 -0.016491703 -0.00077532533)
(-0.0015562978 -0.011143278 -0.00069050473)
(0.0018554691 -0.011716456 0.00030409059)
(0.0021160223 -0.015843489 0.0011015934)
(0.0014971924 -0.017863404 0.0025737042)
(-0.001468266 -0.014976872 0.0036283727)
(0.00066877933 -0.011070085 0.0028422637)
(-0.00061313697 -0.019483607 -0.00064806099)
(-0.00021027868 -0.012242368 -0.00021256791)
(0.0012324215 -0.015639489 -0.00077253945)
(-0.0015685199 -0.017375585 -0.0011695949)
(-0.0022393344 -0.015857004 -0.0016469429)
(-0.0043594377 -0.014650402 -0.0010371863)
(-0.0021926459 -0.012570926 -0.00022357671)
(0.0018063611 -0.012426131 9.2550457e-05)
(0.0015757505 -0.015807752 -0.00019768264)
(0.00026615095 -0.016910485 -0.00123254)
(-0.0056190444 0.018436615 0.0024850281)
(-0.0064825875 0.014711703 0.0029934352)
(-0.0026238428 0.0015039402 0.0011460664)
(2.4325225e-05 0.0055020304 -0.00056813354)
(0.0011305577 0.0036172698 0.00062099535)
(0.0046455899 0.014905442 -0.0016519419)
(0.0046762862 0.017573368 -0.0024382674)
(0.0031964962 0.017880331 0.00091284199)
(0.0016141694 0.017096984 0.0061802849)
(0.0033337314 0.017517719 0.0052695214)
(-0.00084686916 0.018265841 -0.00061306531)
(-0.0017251103 0.016723596 -0.0043648493)
(-0.0027224185 0.017273779 -0.0049442864)
(-0.0046725356 0.01686513 -0.0038049549)
(-0.0020472006 0.0029859117 -0.0019412014)
(0.00029316402 0.004450371 0.00014774949)
(0.004279119 0.016040636 0.0018958861)
(0.00072096529 0.018792795 0.0044048435)
(-0.0033711326 0.015080021 0.0057588471)
(0.0001315901 0.0031773159 0.0019549582)
(0.00045002012 0.019739771 -0.00077014139)
(0.0013099846 0.0058860232 0.00028013306)
(0.005361573 0.01655276 0.0027151685)
(0.0026937725 0.019030165 0.0013601697)
(-0.0060017926 0.017959145 -0.0015662278)
(-0.0070480604 0.015276116 -0.0010470734)
(-0.00048583745 0.0007601362 -0.00064841774)
(0.0018147867 0.0072811478 0.00086188746)
(0.0052064543 0.016462999 0.002034088)
(0.0032207258 0.018508478 0.0021130624)
(-0.0030397357 0.0045798599 0.001357554)
(0.0060096629 -0.014572183 -0.0021038274)
(9.3885386e-05 -0.014868351 0.0010873821)
(-0.0022351754 -0.013271433 0.00034763258)
(-0.0019234466 -0.014063914 0.001639561)
(-0.0014101911 -0.013739025 0.0041190958)
(0.0025875558 -0.0092837266 0.0025747502)
(0.0017193484 -0.0057663713 0.0011059264)
(-0.0007171918 -0.016966269 -0.0034779941)
(-0.0016652122 -0.010374342 -0.0020354351)
(0.00045354517 -0.00058609112 -0.00028148071)
(0.0011403158 -0.0097577626 0.0021863441)
(-0.00052328752 -0.0024333637 2.5118386e-05)
(0.0031936238 -0.0140342 -0.0011859988)
(0.00020672451 -0.013687862 -0.0035501253)
(-0.0024726204 -0.012674643 -0.0010044826)
(-0.00058840614 -0.010510827 0.00069629948)
(0.0029293512 -0.0028535181 0.0033365009)
(0.006588138 -0.013217771 0.00098184506)
(0.0013978906 -0.014292558 -0.00052764675)
(0.00090030526 -0.018958892 0.001566701)
(-0.00072000717 -0.015024764 0.0032638739)
(-0.0046522911 -0.010880612 0.0025919217)
(0.0017636747 0.0059470516 0.00104792)
(-0.00260303 0.0052502147 -0.0021720274)
(0.0053684695 -0.013724844 -0.0030315376)
(0.0017377945 -0.015719139 -0.0020013974)
(-0.0049621956 -0.013618792 -0.00097842182)
(-0.0031051578 -0.0095350099 0.0018439051)
(0.0012212308 0.0028703597 0.0014444363)
(0.0010635636 0.0084563283 -5.7207464e-05)
(0.0051421496 0.010921693 0.00013830778)
(-0.0014845317 0.0087297793 0.0024494638)
(-0.0001068158 0.0018955189 0.0014324596)
(0.00035898006 -0.0024564149 0.00076105951)
(0.00098625114 0.0020107993 0.0028988108)
(0.0020367085 0.0082753015 0.0034700326)
(0.0025513391 0.0091388613 0.0030023299)
(-5.160156e-05 0.012287609 -0.0022814727)
(-0.0032603867 0.0063269142 -0.0026654754)
(0.0014556055 0.0041382794 0.0015441518)
(0.0018414033 0.010511516 0.0022018579)
(0.0014393206 0.0084411602 0.0016719415)
(0.0035474854 0.012758654 -0.00049737606)
(-0.0033095668 0.007523069 -0.0033610342)
(0.00057379537 -0.0011064902 -0.00019040422)
(-0.0022281693 0.00025624759 -0.00089767336)
(0.00060757778 0.0041855651 0.00048605519)
(0.0035796505 0.010982809 0.00023716311)
(0.0019641857 0.0069007052 7.7786516e-05)
(-0.00068450806 0.014744287 -0.00073649549)
(-0.0034893814 0.010947106 0.0019183123)
(-0.004829624 0.011009972 -0.00041227521)
(-0.0022412675 0.0092968449 0.00075069364)
(0.0017926116 0.0086795516 -0.0020253447)
(0.0053279997 0.010697473 -0.0018047272)
(0.00075503887 0.011050838 -0.0011790629)
(-0.0008986721 0.0062719947 -0.0014052533)
(-0.0022976124 0.0015190475 0.0012868857)
(-0.0011831189 0.0082778792 0.001280537)
(0.0014547896 0.00063169613 -0.002024684)
(0.0047840411 -0.0027720716 -0.0022135065)
(0.0062074861 -0.0057365155 -0.0022869128)
(0.0063842043 -0.0087093853 -0.0016019062)
(0.0036063118 -0.0098394534 -0.00020726046)
(-0.0025481132 -0.010866792 -0.0016937646)
(-0.0037454762 -0.0089474401 -0.0029964007)
(-0.0032453358 -0.0045917226 -0.0028293967)
(-0.00073695559 -0.004029378 -0.0023559896)
(0.0018723524 -0.010758677 -0.0019057281)
(-0.0030770645 -0.0090558878 0.0024881065)
(-0.001155456 -0.0051675699 0.0038865013)
(0.00052353407 -0.0016223079 0.0033192043)
(0.0034082797 -0.0011578165 0.0016913411)
(0.0055020198 -0.0073313289 0.0029259972)
(0.0043756586 -0.0097349198 0.001549178)
(0.00027035788 -0.010982751 -0.0022129827)
(-0.0032847059 -0.010298567 -0.0026554437)
(-0.0043516925 -0.0115847 -0.0021690104)
(-0.0070550478 -0.0072317099 -0.0015225983)
(-0.0052982103 -0.0032420208 -0.00067533449)
(-0.0041951697 -0.0054559179 -0.00079686562)
(-0.0037741311 -0.0047405835 -0.00060798815)
(-0.0022831718 0.0013518326 -0.0010180635)
(0.0018630624 0.0010614221 -0.0011165691)
(0.0041812445 -0.0040513041 -0.0011301223)
(0.0049725127 -0.003649089 -0.00097335156)
(0.0062251805 -0.0079209223 -0.0012943061)
(0.0013758509 -0.0096245872 -0.0026448624)
(-0.0035886491 -0.00081999796 -0.001342736)
(-0.00089647159 -0.017194726 0.0017378238)
(-0.0031137147 -0.015693574 0.0019041537)
(-0.00062308371 -0.011315063 0.0017802163)
(0.0027340055 -0.015305074 -0.00051676392)
(-0.0015236698 -0.017746959 0.00092972412)
(0.00060949292 -0.010894603 -0.0013991072)
(0.0016102827 -0.011338825 -0.0012601712)
(0.0030153974 -0.015671549 -0.0011951094)
(0.0019895094 -0.016379855 -0.00076983871)
(0.00097298325 -0.018237828 -0.0016644288)
(-0.00096326656 -0.017403249 -0.0024974356)
(-0.00012950107 -0.010345131 -0.0014939842)
(0.0021753262 -0.013198895 -0.002392962)
(0.0027786312 -0.016262421 -0.0013977091)
(-0.00044663548 -0.016907144 0.0021770795)
(0.00046923228 -0.01127189 0.00084789265)
(0.0030118588 -0.013110402 0.0012577316)
(0.0025601679 -0.015509997 0.0026688022)
(0.00086873911 -0.016872498 0.0030959143)
(-0.00063620032 -0.01157744 0.0039170595)
(-0.0017270737 -0.010377537 0.00062373818)
(0.0013593781 -0.012350977 0.00016241105)
(0.0010649147 -0.01466299 -0.00073534354)
(-1.8568875e-05 -0.017343324 -0.0015259895)
(-0.0012261857 -0.016572734 -0.0026283375)
(-0.0029886857 -0.014763871 -0.0019344906)
(-0.0023957577 -0.011479776 -0.00035877791)
(0.0018439253 -0.011885345 -0.00077104144)
(0.0021564952 -0.016046053 -0.00095326127)
(0.00084200377 -0.016864675 -0.001655424)
(-0.0050944187 0.018422115 0.0016768712)
(-0.0062718395 0.014827514 0.0020224375)
(-0.002760186 -0.0015205133 0.00050972228)
(0.0040063637 0.016782503 2.4075061e-05)
(-0.0016588004 0.018853709 -0.00083093275)
(0.001318091 0.00646378 -0.00068932394)
(0.0031429333 0.0038121411 0.00053164886)
(0.0059238332 0.014226723 0.0010052688)
(0.0052134655 0.018287607 0.0026490402)
(-0.0010436092 0.019829204 0.00067940375)
(-0.0058515031 0.017282502 -0.0019307058)
(-0.0016236913 0.0016319207 -0.00018521965)
(-0.00083113827 0.0085092092 -0.0046277438)
(0.001786149 0.017519954 -0.0034409645)
(-0.0039473984 0.017443537 0.0012960575)
(0.00045861966 0.0029995374 -0.0016798372)
(0.0027330738 0.0076455226 0.00041487372)
(0.0044737269 0.016565732 0.0024977881)
(-0.0016806161 0.01807254 0.0053446641)
(-0.0028692521 0.013285104 0.004788722)
(0.0019127727 0.0021798534 0.001372991)
(0.0032431086 0.0047880426 -0.00073209244)
(0.0067907796 0.015034463 -0.00077405324)
(0.0042976285 0.018512728 -0.0011927738)
(-0.0041226257 0.018518661 -0.0033029486)
(-0.0057192962 0.016066953 -0.0027520344)
(-0.00078718444 0.0040054531 -0.0015499501)
(0.0020102177 0.0044641309 -2.9599047e-05)
(0.0059259437 0.016736906 -0.00059420431)
(0.0045950548 0.018444369 -0.00059371568)
(-0.0025472772 0.0051675184 -0.00077764298)
(0.0056927614 -0.011869774 -0.0024673712)
(-0.0016644523 -0.015369496 -0.0013916509)
(-0.0050259361 -0.010790306 0.00060908407)
(0.0015277541 -0.0059678929 -0.00074085153)
(0.0045016955 -0.012757261 0.0028666705)
(0.003123958 -0.014572298 0.0042602412)
(-0.0023009167 -0.015899788 0.0057080801)
(0.002824095 0.0037877846 0.0030628365)
(-0.0011434626 0.0081138832 0.0012499995)
(0.0023751179 -0.0099724966 0.002927196)
(0.00096363044 -0.014147876 0.003428136)
(-0.0041672052 -0.015433192 -0.00046849603)
(-0.0030800157 -0.0085091325 -0.0022139473)
(0.00047097585 -0.008992364 -0.002349793)
(0.0036980174 -0.013566012 -0.0024965041)
(-0.0025531836 -0.014647387 0.0016850169)
(0.0015514096 -0.00082910434 0.0018596611)
(0.0012226145 -0.0024430726 0.0025030492)
(0.0049437759 -0.012070991 -0.00042027568)
(0.0051949353 -0.014123917 0.0011968753)
(-0.001467239 -0.014552998 -0.00062245617)
(-0.0014652908 -0.0043919637 0.00070357187)
(0.0019141122 0.0066457424 -8.5134445e-05)
(-0.00089195264 0.0051899922 -0.0035501918)
(0.0044713318 -0.010839066 -0.004371597)
(0.0019489279 -0.014312323 -0.003656436)
(-0.001810609 -0.01371543 0.00069738241)
(-0.0025701482 -0.011155111 0.0032681026)
(0.0014851931 0.0055052194 0.00038627546)
(0.0014423835 0.0087901244 -0.0011224006)
(0.0049542388 0.010603509 -0.0033669717)
(-0.00094025023 0.010409787 0.00038198494)
(-0.0017951155 0.008075274 -0.000437241)
(0.00097822835 1.9528942e-05 -0.00035575296)
(0.002175198 0.0017446499 0.0010800406)
(0.002845288 0.0087634982 0.002160188)
(-0.0027494406 0.010853278 0.0025549785)
(-0.00090959412 0.0074565601 -0.00035883746)
(0.0011145034 0.010345946 0.00023251606)
(0.0035624544 0.010288581 0.0032577154)
(0.0018756629 0.0051878449 0.0013174688)
(0.0010495748 0.0111912 -0.0012959403)
(0.00068369442 0.0075534484 -0.0029068883)
(0.0014430433 0.00033318345 -0.00080150156)
(0.001768153 0.0039324556 -0.00090667959)
(-0.0031950283 0.010256806 0.0035986632)
(-0.0031985125 0.0079868688 0.0013075496)
(0.0019093279 0.0065759185 -0.00086406764)
(0.0019957463 0.0021919365 -0.0010780357)
(0.0029156099 0.0063467496 -0.0032441154)
(-0.0014520791 0.0092507578 -0.0027773326)
(-0.0034962609 0.0074135446 -0.0018274367)
(-0.00065649987 0.010396114 6.1615264e-05)
(0.0025582314 0.0090056591 -0.0028257596)
(0.0053882604 0.010692688 -0.0036554948)
(-7.5393913e-06 0.0081214129 -0.0028441296)
(0.0011632998 0.00080299074 0.00017350944)
(-0.003304031 0.0091407625 0.0039723389)
(-0.0018291952 0.0095779009 0.0011437797)
(0.0017750175 0.00099013257 -0.0019511913)
(0.0044102174 -0.0034563899 -0.0024110102)
(0.0051640616 -0.0044184519 -0.0020857885)
(0.006402917 -0.0085813524 -0.0025288567)
(0.0040858412 -0.0098168291 -0.0017583577)
(-0.0038670511 -0.0090519927 -0.0016722717)
(-0.0038895376 -0.005395132 -0.0013601412)
(-0.0031595905 -0.0036372653 -0.00071098274)
(-0.0017884123 -0.00043090473 -0.00081089713)
(0.00092289867 0.0029724683 -0.0010189197)
(0.0045059557 -0.0066583373 -0.00077686819)
(0.0036507207 -0.009856556 0.00089997216)
(0.0024192034 -0.010262468 0.0028596436)
(0.0038711671 -0.0096367899 0.0036154875)
(0.0012268363 -0.011092895 0.00058894839)
(-0.0025995429 -0.0082186011 -0.0050810103)
(-0.0017056828 -0.0070796818 -0.0034244423)
(-0.00080835728 -0.0034497394 -0.0011287742)
(0.00055617384 -0.0096146724 -0.00065747666)
(-0.0046007207 -0.010063063 0.00010486256)
(-0.0060976894 -0.0072224349 0.0021613877)
(-0.0041928631 -0.0027180933 0.0012013694)
(-0.0038451155 -0.0014690087 0.0013778805)
(-0.0015174915 0.0042226404 0.00076976236)
(0.0030510068 0.0013398037 -0.00013963839)
(0.004649061 -0.0022010934 4.4438519e-05)
(0.0059488846 -0.0081067769 0.0017456171)
(0.00057123482 -0.0097401977 0.0014846576)
(-0.0047390536 -0.00504143 0.0009329597)
(-0.0020378254 0.0031213295 0.0011715577)
(-1.0492351e-06 -0.017368405 0.0015775876)
(-0.0019505573 -0.015983463 0.0011072521)
(-0.0022945603 -0.016098243 0.00073469973)
(-0.0017458092 -0.013402792 -0.0024173527)
(-0.00016658496 -0.01308783 -0.0011494939)
(0.00091245084 -0.0124854 -0.0007159969)
(0.0027116351 -0.012744084 0.00047841129)
(0.00452488 -0.014540553 -7.9264215e-05)
(0.0034615106 -0.015944137 -0.00052052984)
(0.0010819118 -0.01776356 1.4479002e-05)
(-0.0013034813 -0.015562134 -0.0020975048)
(-0.0004085377 -0.012096534 0.00031332113)
(0.0019623785 -0.011178476 -0.0012739856)
(0.0035015569 -0.011024591 -0.001538868)
(0.0039291957 -0.014069795 -0.00048928867)
(0.0025478412 -0.016522609 0.0010529136)
(0.0020686051 -0.017585422 0.0017239012)
(0.0013494444 -0.01640411 0.0023960284)
(0.00049783616 -0.016491192 0.0028225215)
(-0.0015685446 -0.011784627 0.0027888088)
(-0.0026361582 -0.01013786 0.0025197545)
(0.00016870202 -0.01191218 0.0014195201)
(0.002223601 -0.013564014 -0.0014081474)
(0.0019902017 -0.01592827 -0.0023195331)
(0.00049792262 -0.018127113 -0.0033075404)
(-0.0015610409 -0.016394871 -0.003363625)
(-0.0021679884 -0.011174801 -0.0021114581)
(0.0016940803 -0.011199673 -0.0013605708)
(0.0025700271 -0.014587279 -0.002333589)
(0.0012842125 -0.015548943 -0.0027387729)
(-0.0033595466 0.018512002 -0.00017221275)
(-0.0063730931 0.018185234 -0.00016817723)
(-0.0071453931 0.01665688 -0.00038090619)
(-0.0025252345 0.0077186558 -0.0014679981)
(-0.0013976429 0.0079730363 -0.0016476632)
(0.0014406116 0.0044054453 0.00038378194)
(0.0031136204 0.0011312489 0.0017203727)
(0.0064121888 0.010647367 0.002544472)
(0.0069116936 0.017259068 0.0014688487)
(-0.0019273965 0.019074635 -0.0018216922)
(-0.0059612179 0.015019055 -0.0034422503)
(-0.00096759092 0.0021658263 0.00038504521)
(0.00033750196 4.7733178e-05 -0.0013203657)
(0.0011039282 0.0032126301 -0.0016144504)
(0.0031943355 0.015029357 -0.0022708137)
(0.0024107378 0.018096519 0.00025760885)
(0.0048174088 0.018838102 0.0020992981)
(0.0050148018 0.018325725 0.0023111159)
(-0.0010111434 0.018193635 0.0044616793)
(-0.0035515753 0.014641217 0.0040148443)
(0.00067422701 0.0046253094 0.002963084)
(0.0022890316 6.2052155e-06 0.0014541977)
(0.0053589426 0.0076208374 -0.002174229)
(0.0061207724 0.015979622 -0.004588552)
(-0.00042267419 0.019484438 -0.0052330099)
(-0.0044465812 0.017666998 -0.0043914738)
(-0.00094870076 0.0067673525 -0.0022362749)
(0.0021726747 0.001126675 -5.5883219e-05)
(0.0057830685 0.01407507 -0.0012642566)
(0.0051634369 0.017437187 -0.0016045491)
(0.00050049627 0.0056584931 -0.00099920667)
(-0.00056567912 0.0034726139 -0.00067484855)
(0.00364868 -0.01351139 -0.0022345224)
(0.00082299758 -0.01509644 0.00108324)
(0.00064824844 -0.013399562 0.0028521243)
(0.0032235554 -0.013134287 0.0021551701)
(0.00098529321 -0.015430353 0.002134431)
(-0.0040828248 -0.016063675 0.0013047303)
(0.0029530603 0.0036420481 0.00080280219)
(-0.0001173263 0.0053649351 -0.00048893464)
(0.0050602578 -0.011443621 0.002075493)
(0.0030127118 -0.014563436 0.0013869307)
(-0.00050980542 -0.013407533 -0.0021843979)
(-0.0013366227 -0.013195731 0.00049449549)
(-0.00029999453 -0.011634687 -0.00027227545)
(0.0012504241 -0.016732687 -0.0030932175)
(-0.0016315378 -0.014656519 -0.0032724379)
(0.0032209817 0.0024882342 0.00080992279)
(0.0020076258 0.0025674359 0.0028103477)
(0.0047760739 -0.008962248 0.0025111126)
(0.0049649413 -0.013067889 0.0012297721)
(0.0027882208 -0.014054856 0.0011381119)
(-0.002566246 -0.013802655 0.001597169)
(0.0025955163 0.00023302536 -0.00083369157)
(-0.00072126816 0.0039226833 -0.0036104474)
(0.0031411841 -0.0092751643 -0.00469139)
(0.0025935642 -0.013372198 -0.0024491391)
(0.00079794559 -0.014128039 0.0015024383)
(-0.0033969553 -0.01494774 0.0046363593)
(0.0021693807 0.0032699854 4.431097e-05)
(0.001838995 0.010369769 -0.00049319189)
(0.0039073716 0.0080380872 -0.0014273929)
(0.0057499138 0.010806426 -0.00046207156)
(2.5732676e-05 0.010084419 -0.0012087195)
(0.001466641 -0.0018973632 0.0012171711)
(-0.0005061558 0.00074012972 0.00044488773)
(0.0017320592 0.010065199 0.0013932532)
(-0.0033962863 0.0098125171 -0.0022760207)
(-0.00013647265 0.0078921997 0.00038248861)
(0.0028027286 0.0089126396 0.0015089153)
(0.0060947655 0.010979846 0.0009948217)
(0.0021079054 0.010420285 0.0014297985)
(0.0031583635 0.00044104981 -0.00040419839)
(0.0018046625 -0.0040841674 0.00058461506)
(0.0038419806 0.0063628902 0.001575201)
(0.0013454845 0.012498215 0.0025123811)
(-0.0061327577 0.012632161 0.0013322321)
(-0.0023267529 0.0094332119 -6.4545667e-05)
(0.0025242516 0.0090323087 0.0026507215)
(0.0047228141 0.0086159021 0.00079700907)
(0.0028814796 0.0031476374 -0.0007473316)
(0.0027976751 0.0030534143 -0.00073204205)
(-0.00058640094 0.0033051108 -0.0003403226)
(0.00053248533 0.0071105158 0.00035076919)
(0.0024227568 0.0085839914 -0.0027230905)
(0.0043597959 0.0092306564 -0.0045719313)
(0.0014914166 0.0015009595 -0.00097994519)
(0.00075212101 0.00032257137 0.0017582093)
(-0.0025610333 0.010299404 0.0024945323)
(-0.0021656467 0.0081062422 0.0011765413)
(0.0026763393 0.0036919325 -0.00031571288)
(0.0045391111 0.00010820521 -0.00033334311)
(0.0061396534 -0.0020632962 -0.0001277867)
(0.0069584915 -0.005547107 -6.7070927e-05)
(0.0056121921 -0.009018803 0.00032860858)
(-0.0048650895 -0.0092429715 -0.00032904995)
(-0.0028640941 -0.0056032375 -0.00016007718)
(-0.0024394942 -0.006437873 -0.00046274579)
(-6.5554479e-05 0.00055514592 0.00045356527)
(0.0023196414 0.00052042572 0.001803566)
(0.0050122129 -0.0022368709 0.0015373267)
(0.0063380074 -0.0063970562 0.0018272027)
(0.0063076899 -0.0096763686 0.0019459216)
(0.00015405593 -0.011229622 0.00074656217)
(-0.0055170426 -0.0077269727 -0.0017343296)
(-0.0017644128 -0.00042492753 -0.00072783426)
(-0.001795347 -0.0018733232 -0.001371026)
(0.0020850007 -0.005328448 -0.0015487126)
(0.002576997 -0.0056563789 -0.0010998634)
(0.0034262287 -0.0095088576 -0.0020728455)
(0.0018975611 -0.011067132 -0.00218785)
(-0.0002543552 -0.01122629 0.00087264465)
(-0.0027168351 -0.0083418457 0.0028785177)
(-0.0016380401 -0.0010388623 0.0032695136)
(0.0027843095 6.1401014e-05 0.0018395342)
(0.0044939814 -0.0051792192 0.0027421692)
(0.0047779121 -0.0093883649 0.0039806207)
(-0.0037688927 -0.0089961933 0.0035917634)
(-0.0042028941 -0.0055392787 0.0033971501)
(-0.0021519687 0.00052830911 0.0026591331)
(-0.00070216938 -0.016712998 -0.00029286728)
(-0.0021651682 -0.016550918 -0.0012906032)
(-0.0020531915 -0.016174667 -0.0011170263)
(-0.0012976564 -0.011443512 -0.00065017473)
(0.0004544697 -0.011867068 0.00044492665)
(0.0025116384 -0.011826383 0.0013610955)
(0.0031218436 -0.013480061 0.0020620176)
(0.0025540595 -0.016470207 0.00064026146)
(0.00021611165 -0.01747148 -0.00010622957)
(-0.002965452 -0.014427779 -7.8250255e-05)
(-0.0012765175 -0.012393372 -0.001230607)
(0.00190556 -0.011989938 0.0014097517)
(0.0017637676 -0.016835918 0.0013071742)
(-0.00030574172 -0.015856633 -2.1820794e-06)
(-0.00023875777 -0.016707973 0.0019585814)
(-0.0011671457 -0.012911313 0.0016533655)
(-0.0034312234 -0.012348974 0.0023821954)
(-0.0029700538 -0.012070442 0.0025343457)
(-0.00084454096 -0.012568494 0.001265495)
(0.001833236 -0.014350468 -0.0015314008)
(0.00066457139 -0.019268031 -0.0020622281)
(-0.0012625381 -0.017524956 -0.0031182516)
(-0.0015252345 -0.011384355 -0.0012883389)
(0.0016749684 -0.012779201 6.4005633e-05)
(0.0029217677 -0.012802222 -0.00052497339)
(0.0021087525 -0.016233165 -0.0016973942)
(-0.0033326779 0.018208013 -0.0043088027)
(-0.005271562 0.017369167 -0.0055006986)
(-0.0059905935 0.01392237 -0.0041088861)
(-0.0018023786 0.0017805466 -0.0016608355)
(0.00054082561 0.0014017546 0.00044337477)
(0.0045169335 0.0015950749 0.0017647371)
(0.0062116803 0.0084657394 0.0028638253)
(0.0074043464 0.016669911 0.0031063679)
(-0.0009870677 0.019039501 0.00029677679)
(-0.0063076429 0.014736338 -0.001038898)
(-0.00021345851 -0.0018918096 -0.0010179112)
(-0.00084598579 0.0039103167 0.00042436395)
(0.003737506 0.016958973 0.0042162738)
(0.0013595971 0.0177458 -0.0025816659)
(-0.0012346765 0.018401193 0.0029537447)
(-0.0032861316 0.01602213 0.0038313551)
(-0.0036026347 0.014275834 0.0042653521)
(-0.00047890591 0.0058604363 0.0024035589)
(0.00082258882 -0.0007324773 0.0004536888)
(0.0025614973 0.0068475676 -0.0025899576)
(0.0022644188 0.018182122 -0.0058944208)
(-0.0036450355 0.016316904 -0.0051834208)
(0.0002460528 -0.00015607438 -0.00090553923)
(0.0029048614 0.0005348101 0.0013258371)
(0.0042428403 0.0057136608 0.0015870911)
(0.0062428404 0.016483897 0.0011527734)
(-0.00014961542 0.0041077531 -0.0019036715)
(0.0013881299 -0.0020938872 -0.0027526501)
(0.0035406478 -0.014491907 -0.0014331358)
(0.0017843894 -0.013641634 -0.0017511607)
(0.00069388509 -0.013528278 0.00057401942)
(0.0035412953 -0.01382036 0.00031282585)
(-0.0021599524 -0.013821575 -0.0030789968)
(0.0027360279 0.0026368397 -0.00019479583)
(-0.00020079403 0.005239216 -0.00028765309)
(0.0057771013 -0.013151341 -0.00026484823)
(0.0030570629 -0.015610968 -7.8673078e-05)
(-0.0051809467 -0.013781338 -0.003135228)
(-0.0020493004 -0.013009192 -0.0023801435)
(0.0013998581 -0.0043279795 -0.0015491449)
(0.0017360005 0.0031723876 0.0020231612)
(0.0034950429 -0.0020637694 0.00098062887)
(0.0063026715 -0.011722282 -0.00096118222)
(0.0052074046 -0.014904241 -0.0013044006)
(0.0014496344 -0.014622689 -4.9814894e-05)
(-0.0035844372 -0.014594802 0.0013522083)
(-0.002579483 -0.0079622026 -0.0017077753)
(0.0035236935 -0.013595555 -0.0017394344)
(0.0032756883 -0.014492085 0.00015372907)
(0.0023619741 -0.013805408 0.0021746852)
(-0.0019182065 -0.014652276 0.0027951283)
(0.00086441994 -0.0011382006 0.00094528345)
(0.0012754842 0.0091231836 -0.0011869498)
(0.0046930354 0.0075114576 -0.0013350632)
(0.0031575729 0.0098357066 -0.0034362337)
(0.0013290642 0.0026507086 -0.0023785011)
(0.00074997807 -0.0030346424 -0.0003585249)
(0.002320065 0.0029143951 0.00023928022)
(-0.0013035478 0.0088394204 -0.0035007443)
(-0.0013259115 0.0079032213 -0.002530931)
(0.0016299697 0.0083802638 -0.0012501363)
(0.0049615531 0.010588737 4.6578483e-05)
(0.0020035323 0.011045367 -0.0021134152)