/*--------------------------------*- C++ -*----------------------------------*\
| =========                 |                                                 |
| \\      /  F ield         | OpenFOAM: The Open Source CFD Toolbox           |
|  \\    /   O peration     | Version:  v2012                                 |
|   \\  /    A nd           | Website:  www.openfoam.com                      |
|    \\/     M anipulation  |                                                 |
\*---------------------------------------------------------------------------*/
FoamFile
{
    version     2.0;
    format      ascii;
    class       surfaceScalarField;
    location    "240/topAir";
    object      phi;
}
// * * * * * * * * * * * * * * * * * * * * * * * * * * * * * * * * * * * * * //

dimensions      [1 0 -1 0 0 0 0];
oriented        oriented;


internalField   nonuniform List<scalar> 
3140
(
9.4635318e-06
-2.6855474e-07
7.4045811e-08
9.6249051e-06
-2.4702717e-07
8.5764359e-08
9.7858788e-06
-2.3803875e-07
7.7215055e-08
9.9193656e-06
-1.9486092e-07
6.155122e-08
1.0017962e-05
-1.3893813e-07
4.0550226e-08
1.0088797e-05
-8.4945374e-08
1.4347683e-08
1.0152865e-05
-3.767144e-08
-2.6138492e-08
1.0239416e-05
-4.0817489e-10
-8.5851583e-08
1.0353411e-05
5.5786822e-08
-1.6951272e-07
1.0514119e-05
1.2909932e-07
-2.895553e-07
1.0725031e-05
2.4872292e-07
-4.5939171e-07
1.0963443e-05
4.5498377e-07
-6.9316518e-07
1.1178701e-05
7.8441678e-07
-9.9946725e-07
1.1357391e-05
1.2040892e-06
-1.3826177e-06
1.1473133e-05
1.6973434e-06
-1.8129855e-06
1.1534721e-05
2.1888614e-06
-2.2504261e-06
1.1559778e-05
2.6243733e-06
-2.6494798e-06
1.1554066e-05
2.9804029e-06
-2.9747922e-06
1.151702e-05
3.2521372e-06
-3.2152166e-06
1.1460618e-05
3.4355998e-06
-3.3793257e-06
1.1410703e-05
3.5312076e-06
-3.4814072e-06
1.1392558e-05
3.5504889e-06
-3.5324466e-06
1.1419619e-05
3.5113728e-06
-3.5385353e-06
1.148861e-05
3.4325836e-06
-3.5016853e-06
1.1577707e-05
3.3316688e-06
-3.4208962e-06
1.1640622e-05
3.2277061e-06
-3.2907811e-06
1.1585528e-05
3.1514655e-06
-3.0965594e-06
1.1227501e-05
3.166337e-06
-2.8084928e-06
1.0190537e-05
3.4129814e-06
-2.3760931e-06
4.244415e-06
-1.7275186e-06
9.1248398e-06
-2.0505564e-07
8.0630418e-08
9.0843052e-06
-3.1127185e-07
1.0478409e-07
9.0672344e-06
-3.3265281e-07
1.1169386e-07
9.0886884e-06
-3.311383e-07
1.1483752e-07
9.1482108e-06
-3.1238768e-07
1.1394734e-07
9.2400267e-06
-2.8415562e-07
1.0742086e-07
9.3649684e-06
-2.5646667e-07
9.3886857e-08
9.5345423e-06
-2.4051887e-07
7.0578588e-08
9.7736756e-06
-2.1650876e-07
3.3295149e-08
1.0101852e-05
-1.7126595e-07
-2.7615799e-08
1.0551617e-05
-6.7839409e-08
-1.3295285e-07
1.1124622e-05
1.727214e-07
-2.9046152e-07
1.175888e-05
6.701325e-07
-5.1966407e-07
1.2339888e-05
1.4462192e-06
-8.2284868e-07
1.2796733e-05
2.4132004e-06
-1.1724589e-06
1.3106164e-05
3.3879896e-06
-1.5083687e-06
1.3266871e-05
4.234141e-06
-1.7703028e-06
1.3294424e-05
4.8880022e-06
-1.934965e-06
1.3212239e-05
5.3655505e-06
-2.0310209e-06
1.3071985e-05
5.6790511e-06
-2.102969e-06
1.2930469e-05
5.8416405e-06
-2.1686772e-06
1.282349e-05
5.8763967e-06
-2.2186946e-06
1.2763056e-05
5.8111624e-06
-2.2391349e-06
1.2741036e-05
5.6719032e-06
-2.2170983e-06
1.2732188e-05
5.4793172e-06
-2.1386319e-06
1.269085e-05
5.2527163e-06
-1.9835569e-06
1.2526684e-05
5.0335525e-06
-1.7178799e-06
1.2067134e-05
4.9155892e-06
-1.2896962e-06
1.1040571e-05
5.0902422e-06
-6.5065611e-07
5.7852996e-06
2.6445768e-07
9.1826437e-06
-2.0126485e-07
8.2525042e-08
9.0283528e-06
-2.6548315e-07
1.0850172e-07
8.8559046e-06
-2.7825575e-07
1.1805077e-07
8.6779489e-06
-2.7853948e-07
1.2535698e-07
8.5057205e-06
-2.7171902e-07
1.3155998e-07
8.3447756e-06
-2.5954816e-07
1.3633851e-07
8.1946097e-06
-2.4672743e-07
1.4042803e-07
8.0471555e-06
-2.383966e-07
1.4533442e-07
7.9129812e-06
-2.3699525e-07
1.5466487e-07
7.818381e-06
-2.4634546e-07
1.6968632e-07
7.8401609e-06
-2.7565946e-07
1.8604902e-07
8.1171752e-06
-2.9044949e-07
1.8621022e-07
8.7375433e-06
-1.0026592e-07
1.5015698e-07
9.6861556e-06
4.2898363e-07
6.8800359e-08
1.0652689e-05
1.4823975e-06
-3.5537981e-08
1.144174e-05
2.6690337e-06
-6.9894926e-08
1.2033864e-05
3.6117524e-06
3.0434228e-08
1.2401025e-05
4.2447918e-06
2.7621263e-07
1.2550909e-05
4.6445422e-06
5.7131378e-07
1.2566422e-05
4.8803798e-06
7.8339316e-07
1.253556e-05
4.9851775e-06
8.8760673e-07
1.2506622e-05
4.9735638e-06
9.3209657e-07
1.2491022e-05
4.8642995e-06
9.6282952e-07
1.2473517e-05
4.6819499e-06
1.0078709e-06
1.2422535e-05
4.4505817e-06
1.080179e-06
1.2310948e-05
4.1959147e-06
1.1689023e-06
1.2091091e-05
3.9511881e-06
1.3027788e-06
1.1695292e-05
3.7955717e-06
1.5164112e-06
1.0984194e-05
3.9166214e-06
1.8853402e-06
4.7115206e-06
2.538027e-06
8.9870782e-06
8.0608272e-08
8.6161889e-06
1.0540565e-07
8.2241281e-06
1.1380462e-07
7.8261565e-06
1.1943162e-07
7.4307086e-06
1.237285e-07
7.0444308e-06
1.2672912e-07
6.668088e-06
1.2961518e-07
6.2951524e-06
1.3453855e-07
5.9131463e-06
1.4501078e-07
5.4998883e-06
1.6691227e-07
5.0136415e-06
2.1058782e-07
4.4276624e-06
2.955304e-07
3.876243e-06
4.5115641e-07
3.5969387e-06
7.0829068e-07
3.953296e-06
1.1260286e-06
4.8857711e-06
1.7365033e-06
6.013035e-06
2.4844009e-06
7.0352194e-06
3.222552e-06
7.8513099e-06
3.8284723e-06
8.4940471e-06
4.2377488e-06
9.0212642e-06
4.458143e-06
9.4711429e-06
4.5239268e-06
9.8495404e-06
4.486189e-06
1.0137571e-05
4.3942436e-06
1.0312901e-05
4.2756151e-06
1.0363323e-05
4.1458995e-06
1.0307041e-05
4.0079297e-06
1.0213383e-05
3.889745e-06
1.0325174e-05
3.805414e-06
3.6785227e-06
9.5775785e-06
-2.6783252e-07
3.3322488e-08
9.8576382e-06
-2.4752687e-07
5.3330514e-08
1.0126588e-05
-2.4961444e-07
5.8014592e-08
1.0356268e-05
-2.2290184e-07
5.4931869e-08
1.053841e-05
-1.8823334e-07
4.6816171e-08
1.0680878e-05
-1.6107932e-07
3.3142698e-08
1.0791226e-05
-1.472007e-07
1.0894304e-08
1.0873038e-05
-1.5051526e-07
-1.6980746e-08
1.0932192e-05
-1.7544469e-07
-5.3073782e-08
1.097611e-05
-2.2888778e-07
-1.0446821e-07
1.1008571e-05
-3.1554318e-07
-1.7623508e-07
1.1033491e-05
-4.4290437e-07
-2.7516772e-07
1.1054869e-05
-6.1318534e-07
-4.0772427e-07
1.1123543e-05
-8.6686591e-07
-5.8460785e-07
1.1256794e-05
-1.1434411e-06
-8.031265e-07
1.1468416e-05
-1.4091569e-06
-1.0533963e-06
1.1738655e-05
-1.607432e-06
-1.3129318e-06
1.2001105e-05
-1.6794657e-06
-1.5584765e-06
1.2194109e-05
-1.6322831e-06
-1.7766118e-06
1.2302379e-05
-1.5255594e-06
-1.9626383e-06
1.2356601e-05
-1.4209107e-06
-2.1152445e-06
1.2399207e-05
-1.3455249e-06
-2.2300159e-06
1.2460925e-05
-1.299804e-06
-2.3009592e-06
1.2553525e-05
-1.2714737e-06
-2.323405e-06
1.2675712e-05
-1.2477778e-06
-2.2960401e-06
1.282057e-05
-1.2162491e-06
-2.220336e-06
1.296538e-05
-1.1481365e-06
-2.0944717e-06
1.3037087e-05
-9.6802699e-07
-1.9137133e-06
1.2893443e-05
-5.3454003e-07
-1.6996006e-06
8.3139922e-07
-1.4258668e-06
9.2516458e-06
-2.0643157e-07
3.6552929e-08
9.3594965e-06
-3.1504279e-07
6.4453305e-08
9.485748e-06
-3.4134136e-07
7.7177107e-08
9.6451336e-06
-3.4928204e-07
8.1844131e-08
9.8352354e-06
-3.4598234e-07
8.1611485e-08
1.0045136e-05
-3.3942823e-07
7.5890521e-08
1.0267964e-05
-3.3919272e-07
6.3076463e-08
1.0500871e-05
-3.5369623e-07
4.0880257e-08
1.0743655e-05
-3.9134609e-07
6.4424447e-09
1.099858e-05
-4.6287722e-07
-4.8525216e-08
1.1263188e-05
-5.8353752e-07
-1.2954889e-07
1.1548251e-05
-7.7087554e-07
-2.4755155e-07
1.1868836e-05
-1.0383713e-06
-4.1508732e-07
1.2221419e-05
-1.4005851e-06
-6.4177717e-07
1.2650174e-05
-1.8165444e-06
-9.2824153e-07
1.3140642e-05
-2.165595e-06
-1.2425939e-06
1.3628462e-05
-2.3446281e-06
-1.5211019e-06
1.4001433e-05
-2.253713e-06
-1.7337601e-06
1.419658e-05
-1.9565094e-06
-1.90188e-06
1.4228617e-05
-1.6073505e-06
-2.053031e-06
1.4169286e-05
-1.3376565e-06
-2.1923114e-06
1.4074763e-05
-1.1562269e-06
-2.3130897e-06
1.3973595e-05
-1.0381808e-06
-2.39911e-06
1.3881545e-05
-9.6937238e-07
-2.426551e-06
1.3820584e-05
-9.4811991e-07
-2.3765738e-06
1.384658e-05
-9.8467682e-07
-2.2401806e-06
1.4073072e-05
-1.0661393e-06
-2.0251515e-06
1.4745662e-05
-1.1838892e-06
-1.7449043e-06
1.6428968e-05
-1.3687397e-06
-1.4979686e-06
-1.3367452e-06
-1.5322268e-06
9.3114611e-06
-2.0365096e-07
3.7242775e-08
9.3077306e-06
-2.6906869e-07
6.6257712e-08
9.2870145e-06
-2.8354186e-07
8.0966958e-08
9.2623721e-06
-2.8769348e-07
8.8410763e-08
9.2430859e-06
-2.8712797e-07
9.1991944e-08
9.2318938e-06
-2.8360164e-07
9.1704696e-08
9.2281891e-06
-2.8194284e-07
8.6883897e-08
9.230783e-06
-2.8772658e-07
7.677251e-08
9.2400723e-06
-3.0665675e-07
6.0688249e-08
9.2573618e-06
-3.4812324e-07
3.7645372e-08
9.2824162e-06
-4.2913072e-07
6.5904463e-09
9.3370989e-06
-5.7363872e-07
-6.5705474e-08
9.4416622e-06
-8.1665868e-07
-1.7611406e-07
9.6298304e-06
-1.1795823e-06
-3.4036589e-07
9.9355776e-06
-1.5971383e-06
-5.6069635e-07
1.0359979e-05
-1.8803939e-06
-7.7946419e-07
1.0815038e-05
-1.8996838e-06
-8.6926403e-07
1.1197235e-05
-1.6078108e-06
-7.5128239e-07
1.1430261e-05
-1.1112956e-06
-5.0603946e-07
1.1501476e-05
-5.6855841e-07
-3.2554986e-07
1.146338e-05
-1.2131117e-07
-2.8943803e-07
1.143347e-05
1.0980105e-07
-3.0288729e-07
1.1436479e-05
2.0708784e-07
-2.8436769e-07
1.1465871e-05
1.9169811e-07
-1.8157977e-07
1.1509774e-05
1.0310809e-07
-1.3947995e-08
1.1513787e-05
-4.7835208e-08
2.2919539e-07
1.1523609e-05
-2.3975042e-07
4.6766525e-07
1.1666689e-05
-5.071952e-07
6.9772085e-07
1.2178228e-05
-7.1408189e-07
7.2023182e-07
-8.4306226e-07
3.4912594e-07
9.1097016e-06
3.6206933e-08
8.8820363e-06
6.4001784e-08
8.6345148e-06
7.7783856e-08
8.3818099e-06
8.4442555e-08
8.1310889e-06
8.7321092e-08
7.8876694e-06
8.6546519e-08
7.6535951e-06
8.1746255e-08
7.4277008e-06
7.270591e-08
7.2065871e-06
5.9467491e-08
6.9826185e-06
4.2757435e-08
6.7393859e-06
2.4689712e-08
6.4518199e-06
9.4576068e-09
6.0953041e-06
-8.9868048e-09
5.6467608e-06
-2.2753542e-08
5.1744246e-06
1.2126326e-09
4.9120752e-06
1.1845063e-07
5.0560302e-06
4.4078674e-07
5.4514421e-06
1.2193813e-06
5.7714522e-06
2.397325e-06
6.0844067e-06
3.3565179e-06
6.4810239e-06
3.9405879e-06
6.9047674e-06
4.2104909e-06
7.3123268e-06
4.286251e-06
7.6457742e-06
4.2530475e-06
7.8822942e-06
4.1427805e-06
8.0344549e-06
3.9464072e-06
8.1815504e-06
3.621592e-06
8.3606523e-06
3.2039656e-06
8.832755e-06
2.619747e-06
1.6479308e-06
9.5541288e-06
-2.6931224e-07
1.7529116e-08
9.8253248e-06
-2.4754803e-07
2.9788023e-08
1.0094135e-05
-2.4606389e-07
3.5410343e-08
1.0327248e-05
-2.1453271e-07
3.6518479e-08
1.0514025e-05
-1.7466329e-07
3.4892548e-08
1.0658222e-05
-1.421008e-07
3.1255852e-08
1.0764438e-05
-1.2096575e-07
2.5867688e-08
1.0839393e-05
-1.108926e-07
1.9189113e-08
1.0888329e-05
-1.1239532e-07
1.062332e-08
1.0913984e-05
-1.2828429e-07
-1.5961294e-09
1.0915001e-05
-1.6410134e-07
-1.2906966e-08
1.0890706e-05
-2.24281e-07
-2.6357809e-08
1.083778e-05
-3.1473528e-07
-3.9859198e-08
1.0810718e-05
-5.0309858e-07
-5.4325799e-08
1.0833461e-05
-7.5833293e-07
-6.7545279e-08
1.0949976e-05
-1.1038274e-06
-6.6201557e-08
1.1158231e-05
-1.482821e-06
-3.8511795e-08
1.138193e-05
-1.7984247e-06
1.619442e-08
1.1568557e-05
-2.0265513e-06
6.3373645e-08
1.1703841e-05
-2.1877217e-06
8.9925317e-08
1.1799749e-05
-2.3118408e-06
1.0080915e-07
1.1882721e-05
-2.4212199e-06
1.0827653e-07
1.1967019e-05
-2.517876e-06
1.3245434e-07
1.2051241e-05
-2.5870951e-06
1.7902229e-07
1.2129324e-05
-2.6177059e-06
2.4287171e-07
1.2213714e-05
-2.6162825e-06
3.1058514e-07
1.2340753e-05
-2.5877953e-06
3.6503911e-07
1.2532132e-05
-2.4671957e-06
3.6061082e-07
1.264401e-05
-1.946163e-06
1.3307259e-07
-5.2327207e-07
-5.2441174e-07
9.2234469e-06
-2.0606906e-07
1.8832097e-08
9.3197004e-06
-3.1385147e-07
3.450766e-08
9.4453391e-06
-3.3796267e-07
4.3445409e-08
9.6081182e-06
-3.4229147e-07
4.6836489e-08
9.8028138e-06
-3.3384042e-07
4.6110856e-08
1.0015659e-05
-3.2033266e-07
4.1299873e-08
1.0236379e-05
-3.101602e-07
3.1579073e-08
1.0459469e-05
-3.0871382e-07
1.5645131e-08
1.0682708e-05
-3.2072182e-07
-8.4313515e-09
1.0902187e-05
-3.5344648e-07
-4.2800135e-08
1.1117659e-05
-4.1696019e-07
-9.2117584e-08
1.1330913e-05
-5.2440295e-07
-1.606444e-07
1.1555014e-05
-7.0154493e-07
-2.5235597e-07
1.1776255e-05
-9.9741059e-07
-3.687224e-07
1.204599e-05
-1.4592974e-06
-4.9708618e-07
1.237119e-05
-2.0660353e-06
-6.0565411e-07
1.2650958e-05
-2.5982512e-06
-6.8537014e-07
1.2759373e-05
-2.8488237e-06
-7.915954e-07
1.2698604e-05
-2.8979019e-06
-9.6951298e-07
1.2500564e-05
-2.8354205e-06
-1.2070098e-06
1.2216027e-05
-2.7608119e-06
-1.4584999e-06
1.1898312e-05
-2.7324835e-06
-1.6837732e-06
1.157654e-05
-2.7426442e-06
-1.8521559e-06
1.1255816e-05
-2.7534033e-06
-1.9389567e-06
1.0939824e-05
-2.7438703e-06
-1.933618e-06
1.0663176e-05
-2.7532814e-06
-1.8253971e-06
1.057271e-05
-2.87235e-06
-1.648617e-06
1.1056501e-05
-3.1057145e-06
-1.5881935e-06
1.2703737e-05
-3.1948337e-06
-1.8941886e-06
-2.5265986e-06
-2.6839534e-06
9.2842908e-06
-2.0323915e-07
1.9081596e-08
9.2698024e-06
-2.6821954e-07
3.5113641e-08
9.2494698e-06
-2.8152223e-07
4.4858749e-08
9.2302727e-06
-2.8401475e-07
4.9331181e-08
9.2198521e-06
-2.8122591e-07
4.9798194e-08
9.2196142e-06
-2.7456928e-07
4.6179972e-08
9.2270193e-06
-2.6822133e-07
3.7541119e-08
9.238835e-06
-2.6624519e-07
2.2490094e-08
9.2521956e-06
-2.7217825e-07
-1.2135268e-09
9.2637333e-06
-2.9112151e-07
-3.6214124e-08
9.2745184e-06
-3.3280593e-07
-8.8345482e-08
9.2688859e-06
-4.1797165e-07
-1.6650103e-07
9.2417353e-06
-5.7253346e-07
-2.7797412e-07
9.186033e-06
-8.5234672e-07
-4.2973239e-07
9.1356097e-06
-1.3538181e-06
-6.1575509e-07
9.1316151e-06
-2.0680757e-06
-7.7323212e-07
9.0441979e-06
-2.5552337e-06
-8.2434271e-07
8.7332245e-06
-2.4714018e-06
-8.1729709e-07
8.3612609e-06
-2.1390285e-06
-8.9259486e-07
7.8885637e-06
-1.6217751e-06
-1.0662152e-06
7.3422365e-06
-1.2171179e-06
-1.286611e-06
6.7887244e-06
-1.0030806e-06
-1.4786565e-06
6.2909613e-06
-9.6292932e-07
-1.5662235e-06
5.904937e-06
-1.0434511e-06
-1.5053313e-06
5.6628253e-06
-1.2233519e-06
-1.2919061e-06
5.5369931e-06
-1.4990424e-06
-8.9821312e-07
5.6330222e-06
-1.9058566e-06
-5.9305537e-07
6.3098055e-06
-2.3982571e-06
-6.8392966e-07
7.8438568e-06
-2.7250574e-06
-1.2801661e-06
-2.1776701e-06
-2.7692569e-06
9.0832865e-06
1.8632551e-08
8.8449514e-06
3.4116829e-08
8.5978384e-06
4.3374231e-08
8.3508287e-06
4.7437025e-08
8.1093442e-06
4.7579276e-08
7.8775352e-06
4.3785724e-08
7.6558537e-06
3.520613e-08
7.4417917e-06
2.0522379e-08
7.2315308e-06
-2.4501135e-09
7.0190532e-06
-3.5886601e-08
6.7963798e-06
-8.5442822e-08
6.5474284e-06
-1.5956248e-07
6.2394699e-06
-2.7356116e-07
5.8199905e-06
-4.5561615e-07
5.2342641e-06
-7.6681262e-07
4.5070849e-06
-1.2215924e-06
3.9150482e-06
-1.5206788e-06
3.7130614e-06
-1.0494245e-06
3.6976781e-06
2.7430318e-07
3.7204344e-06
1.7128029e-06
3.926768e-06
2.5180488e-06
4.2466631e-06
2.888439e-06
4.5965326e-06
2.9743321e-06
4.8761902e-06
2.9307736e-06
4.9994421e-06
2.7969795e-06
4.8954212e-06
2.5521529e-06
4.8029396e-06
1.8089669e-06
4.982093e-06
6.2725477e-07
5.6382859e-06
-7.5909683e-07
-2.859396e-06
9.5487457e-06
-2.6943831e-07
7.2444986e-09
9.8127294e-06
-2.4697112e-07
1.2879923e-08
1.0076068e-05
-2.4380923e-07
1.6021552e-08
1.0305142e-05
-2.0951341e-07
1.7122354e-08
1.048865e-05
-1.6521954e-07
1.6792297e-08
1.0630386e-05
-1.2565562e-07
1.5382365e-08
1.0737124e-05
-9.3641371e-08
1.2992955e-08
1.0814907e-05
-6.7994639e-08
9.6352581e-09
1.0867913e-05
-4.7549446e-08
5.4116585e-09
1.0897533e-05
-3.1915901e-08
9.5035803e-10
1.0910644e-05
-2.0563103e-08
-5.2039575e-09
1.0911439e-05
-1.542607e-08
-1.1484378e-08
1.0909736e-05
-2.1701743e-08
-1.6236051e-08
1.0969746e-05
-9.3999774e-08
-2.0181917e-08
1.1140645e-05
-2.2520842e-07
-1.3169069e-08
1.143057e-05
-3.7766679e-07
2.1732512e-08
1.1738163e-05
-4.3292512e-07
8.7451135e-08
1.1964066e-05
-3.8136217e-07
1.7271194e-07
1.2110989e-05
-3.4747322e-07
2.6524701e-07
1.2228882e-05
-3.9067246e-07
3.6420871e-07
1.2352282e-05
-4.9132467e-07
4.7037233e-07
1.2494671e-05
-6.2171249e-07
5.8941027e-07
1.2652671e-05
-7.5591253e-07
7.3209178e-07
1.2797461e-05
-8.701526e-07
9.0582929e-07
1.290128e-05
-9.6165263e-07
1.1016338e-06
1.2961265e-05
-1.0292799e-06
1.2798938e-06
1.2899879e-05
-9.4889972e-07
1.3739048e-06
1.2415938e-05
-4.5655302e-07
1.2985056e-06
1.0841792e-05
7.5005718e-07
9.5719896e-07
3.2069994e-06
2.8900057e-07
9.216445e-06
-2.0581552e-07
7.7336238e-09
9.3022134e-06
-3.131434e-07
1.4915821e-08
9.4184259e-06
-3.3616389e-07
1.959574e-08
9.5725301e-06
-3.3843586e-07
2.1667368e-08
9.758326e-06
-3.2637125e-07
2.1484412e-08
9.9617071e-06
-3.0680665e-07
1.909284e-08
1.0172393e-05
-2.8686202e-07
1.4142764e-08
1.0384166e-05
-2.7017839e-07
6.0891469e-09
1.0593266e-05
-2.5891939e-07
-6.1216614e-09
1.0798582e-05
-2.5615207e-07
-2.3836266e-08
1.1002046e-05
-2.6768649e-07
-4.8413342e-08
1.1213006e-05
-3.0548429e-07
-8.1509161e-08
1.145771e-05
-3.9646864e-07
-1.2228312e-07
1.1762792e-05
-6.0537646e-07
-1.624805e-07
1.2218778e-05
-9.960381e-07
-1.823748e-07
1.2780841e-05
-1.3944992e-06
-1.5084817e-07
1.3200463e-05
-1.4240859e-06
-1.135046e-07
1.3355805e-05
-1.197566e-06
-1.3027516e-07
1.3346265e-05
-1.1042094e-06
-2.0271379e-07
1.3228267e-05
-1.1646505e-06
-3.1443359e-07
1.3033638e-05
-1.2862985e-06
-4.6817409e-07
1.2793777e-05
-1.4350633e-06
-6.2964458e-07
1.2509181e-05
-1.5822339e-06
-7.4004812e-07
1.2143124e-05
-1.6868913e-06
-7.5462895e-07
1.1686297e-05
-1.7583567e-06
-6.7813936e-07
1.1289153e-05
-1.9005346e-06
-5.544856e-07
1.1204334e-05
-1.9784028e-06
-5.3056141e-07
1.131443e-05
-1.329056e-06
-8.1965639e-07
1.1177251e-05
3.264022e-07
-1.3325495e-06
2.896985e-06
-1.9813075e-06
9.277642e-06
-2.0318909e-07
7.7726756e-09
9.2527467e-06
-2.6815399e-07
1.5019064e-08
9.2226053e-06
-2.8107825e-07
1.9914069e-08
9.1939164e-06
-2.8268625e-07
2.2270421e-08
9.1733864e-06
-2.783454e-07
2.2302598e-08
9.161958e-06
-2.6909339e-07
1.9895946e-08
9.1566278e-06
-2.5851408e-07
1.45246e-08
9.1532413e-06
-2.4980123e-07
5.5013677e-09
9.1475997e-06
-2.4542536e-07
-9.0634002e-09
9.1351165e-06
-2.4862962e-07
-3.1249979e-08
9.1096822e-06
-2.6664323e-07
-6.3950911e-08
9.0648996e-06
-3.1517386e-07
-1.1202599e-07
9.0009606e-06
-4.3015039e-07
-1.803554e-07
8.9340116e-06
-7.0138656e-07
-2.6678671e-07
8.9707053e-06
-1.3129542e-06
-3.3550601e-07
9.0577641e-06
-1.9540222e-06
-3.0006977e-07
8.8332101e-06
-1.8039754e-06
-2.1910752e-07
8.0119705e-06
-9.3187534e-07
-2.61799e-07
7.1649124e-06
-7.5206562e-07
-3.9797576e-07
6.3897746e-06
-8.4696421e-07
-6.0916775e-07
5.6113671e-06
-8.976718e-07
-8.9744976e-07
4.8264361e-06
-9.7130145e-07
-1.1583428e-06
4.1060408e-06
-1.1566382e-06
-1.2725103e-06
3.4481653e-06
-1.3668585e-06
-1.168654e-06
2.7844535e-06
-1.6464172e-06
-7.4102974e-07
2.2969296e-06
-2.1068596e-06
-2.0416106e-07
2.517275e-06
-2.6234718e-06
-1.6567156e-07
3.6375776e-06
-2.1077983e-06
-1.0188759e-06
4.8439623e-06
-9.8232346e-10
-2.1500509e-06
2.1546525e-06
-3.1025191e-06
9.0768372e-06
7.5574614e-09
8.8283077e-06
1.4491941e-08
8.5715429e-06
1.9060352e-08
8.3152158e-06
2.1077365e-08
8.0637102e-06
2.0739031e-08
7.8204802e-06
1.7921931e-08
7.5850731e-06
1.2098761e-08
7.3530079e-06
2.7861129e-09
7.1185468e-06
-1.3414609e-08
6.8719766e-06
-3.7946115e-08
6.5956201e-06
-7.5729461e-08
6.2566812e-06
-1.3579713e-07
5.7888814e-06
-2.359101e-07
5.0478628e-06
-4.1596429e-07
3.7474124e-06
-7.7898815e-07
1.8800993e-06
-1.3046707e-06
-1.4395247e-07
-1.2965473e-06
-1.1662713e-06
-9.5951707e-07
-1.1693893e-06
-4.7647741e-07
-7.1175764e-07
4.0914142e-07
-9.3847348e-08
1.0036979e-06
5.3078473e-07
1.2934048e-06
9.8109848e-07
1.3683746e-06
1.1750247e-06
1.3709596e-06
9.5945877e-07
1.3671105e-06
9.5940045e-08
1.3099372e-06
-1.3061238e-06
5.9508211e-07
-2.0416478e-06
-7.3487765e-07
-3.3642251e-07
-2.4539412e-06
-3.7279781e-06
9.5459489e-06
-2.6974495e-07
6.3263675e-11
9.806221e-06
-2.4735657e-07
6.8421813e-11
1.006649e-05
-2.4413004e-07
2.2067168e-11
1.0293358e-05
-2.0951719e-07
-6.5385415e-11
1.0475179e-05
-1.6465913e-07
-1.8297615e-10
1.0615405e-05
-1.2432092e-07
-3.1832466e-10
1.0720462e-05
-9.1366654e-08
-4.7811071e-10
1.0795636e-05
-6.4642428e-08
-6.6597022e-10
1.0844879e-05
-4.2724173e-08
-8.6754048e-10
1.087228e-05
-2.5141473e-08
-1.0630634e-09
1.0881722e-05
-1.3126048e-08
-1.2771594e-09
1.0880935e-05
-9.0126802e-09
-1.4504363e-09
1.0887278e-05
-2.0764091e-08
-1.6414719e-09
1.0993969e-05
-1.2492179e-07
-1.9524395e-09
1.1272121e-05
-2.8915698e-07
-2.3733012e-09
1.1636333e-05
-3.3959341e-07
-2.9436412e-09
1.1935987e-05
-2.0923086e-07
-2.6254844e-09
1.2134577e-05
-2.3560364e-08
-1.6241356e-09
1.2276503e-05
1.2362798e-07
4.2759987e-10
1.241264e-05
2.2509242e-07
3.7355267e-09
1.2591441e-05
2.8357165e-07
8.7848692e-09
1.2838052e-05
3.2686226e-07
1.6761289e-08
1.3136932e-05
4.0683352e-07
2.7228131e-08
1.3423238e-05
5.820644e-07
3.8310524e-08
1.3599792e-05
8.7569325e-07
5.02433e-08
1.3548919e-05
1.2689204e-06
6.2723124e-08
1.3063416e-05
1.7885959e-06
7.1704192e-08
1.1818129e-05
2.4754526e-06
6.9277299e-08
9.2789467e-06
3.445907e-06
5.1438893e-08
5.2410471e-06
3.0888035e-08
9.21259e-06
-2.058371e-07
2.0507035e-10
9.2929287e-06
-3.1318566e-07
4.105132e-10
9.403841e-06
-3.360514e-07
6.1287172e-10
9.5530985e-06
-3.3792646e-07
8.3169692e-10
9.7340323e-06
-3.2517273e-07
1.0818259e-09
9.9319678e-06
-3.0451105e-07
1.37047e-09
1.0136051e-05
-2.8298093e-07
1.7025776e-09
1.0339557e-05
-2.6411361e-07
2.0891541e-09
1.0538012e-05
-2.4985078e-07
2.5901848e-09
1.0729304e-05
-2.4338052e-07
3.1555056e-09
1.0915828e-05
-2.5193099e-07
3.9125047e-09
1.1112107e-05
-2.9177302e-07
5.0046886e-09
1.1363423e-05
-4.009448e-07
6.5679443e-09
1.1735163e-05
-6.6798752e-07
8.7280012e-09
1.2376732e-05
-1.1242288e-06
1.0920967e-08
1.301714e-05
-1.1421998e-06
1.1441461e-08
1.3445543e-05
-7.6536807e-07
1.4529494e-08
1.3728495e-05
-4.5582823e-07
1.9477032e-08
1.3930467e-05
-3.0456452e-07
2.4891892e-08
1.4058776e-05
-2.4514152e-07
3.0296654e-08
1.41672e-05
-3.2596609e-07
3.7756875e-08
1.4307125e-05
-4.8056823e-07
4.5193127e-08
1.4514589e-05
-5.7693653e-07
4.641784e-08
1.4797584e-05
-4.8175546e-07
3.9185395e-08
1.5064294e-05
-8.3521502e-08
2.9635693e-08
1.5082124e-05
6.8202568e-07
3.0402613e-08
1.4527692e-05
1.7968696e-06
3.0188043e-08
1.3070237e-05
3.1070755e-06
1.7582608e-08
1.0401663e-05
4.80468e-06
-1.624949e-08
6.9504109e-06
-7.1444544e-08
9.2738526e-06
-2.031683e-07
2.1078185e-10
9.2434091e-06
-2.681482e-07
4.2458315e-10
9.2075794e-06
-2.809559e-07
6.4790014e-10
9.1732986e-06
-2.8228483e-07
9.0963138e-10
9.1466972e-06
-2.7750341e-07
1.2349084e-09
9.1280491e-06
-2.6760362e-07
1.6374426e-09
9.1135833e-06
-2.5611961e-07
2.1302939e-09
9.0984112e-06
-2.4617985e-07
2.7418199e-09
9.0758427e-06
-2.3996411e-07
3.6211172e-09
9.0376993e-06
-2.4117069e-07
4.6873188e-09
8.9739997e-06
-2.5838684e-07
6.2084615e-09
8.8740657e-06
-3.1236117e-07
8.4990007e-09
8.7379495e-06
-4.5720336e-07
1.2015123e-08
8.6318374e-06
-8.4585436e-07
1.7174464e-08
8.9421679e-06
-1.7925412e-06
2.2614584e-08
9.1085122e-06
-1.628124e-06
2.0495087e-08
8.7331257e-06
-6.3412516e-07
2.5135667e-08
8.2338384e-06
-2.5237136e-07
3.3395527e-08
7.5223421e-06
-4.0890966e-08
4.8895359e-08
6.6703174e-06
-7.2031162e-08
6.8451227e-08
5.6191175e-06
-2.5394539e-07
7.9964174e-08
4.4425207e-06
-5.4258875e-07
7.8174111e-08
3.3992341e-06
-8.5980747e-07
5.1224062e-08
2.8751392e-06
-1.1283754e-06
-4.9162041e-10
3.4373701e-06
-1.353591e-06
-3.5679091e-08
5.1799713e-06
-1.2276751e-06
-3.7465824e-08
6.879635e-06
-2.8027588e-08
-3.7473628e-08
7.4571843e-06
1.5980682e-06
-8.2154609e-08
6.5507745e-06
3.7445978e-06
-1.7892125e-07
6.1561858e-06
-2.630234e-07
9.0731352e-06
2.052008e-10
8.8190672e-06
4.1124996e-10
8.5565468e-06
6.2449423e-10
8.2944632e-06
8.7559901e-10
8.0365078e-06
1.1906453e-09
7.7852398e-06
1.5858707e-09
7.5391353e-06
2.0832855e-09
7.2929927e-06
2.748512e-09
7.0359451e-06
3.6687086e-09
6.7519413e-06
4.8870079e-09
6.4110592e-06
6.7660168e-09
5.9530255e-06
9.8761583e-09
5.2445954e-06
1.5320361e-08
3.9574986e-06
2.5329498e-08
1.3417782e-06
4.5084884e-08
-1.6631385e-06
8.1861564e-08
-3.681392e-06
8.9335548e-08
-4.981496e-06
8.8720843e-08
-5.5967323e-06
9.7942e-08
-5.356259e-06
9.6408027e-08
-4.6668571e-06
6.0404713e-08
-3.9101856e-06
-5.7599143e-09
-3.3339357e-06
-6.7683167e-08
-2.9481276e-06
-1.4342651e-07
-2.7314576e-06
-2.0387871e-07
-2.4357293e-06
-2.1533112e-07
-1.653482e-06
-2.1762334e-07
-4.7961512e-07
-3.1408529e-07
1.2332865e-06
-4.1508824e-07
-4.7200557e-07
9.5459254e-06
-2.6974689e-07
-7.0926165e-09
9.8061747e-06
-2.4740243e-07
-1.2674525e-08
1.0066433e-05
-2.442363e-07
-1.5860596e-08
1.0293292e-05
-2.0969828e-07
-1.706415e-08
1.0475089e-05
-1.6493111e-07
-1.6865135e-08
1.0615287e-05
-1.2471257e-07
-1.5602048e-08
1.0720328e-05
-9.1926068e-08
-1.3377489e-08
1.0795529e-05
-6.543133e-08
-1.0208709e-08
1.0844813e-05
-4.3725145e-08
-6.1890247e-09
1.0872104e-05
-2.6332393e-08
-1.7705543e-09
1.0881562e-05
-1.4326868e-08
3.8627544e-09
1.0880632e-05
-1.0241361e-08
1.0005995e-08
1.0886424e-05
-2.160481e-08
1.4552176e-08
1.0991963e-05
-1.2543403e-07
1.8471352e-08
1.1266686e-05
-2.8870524e-07
1.2292751e-08
1.1629734e-05
-3.45202e-07
-2.0348852e-08
1.1931604e-05
-2.2375775e-07
-8.0756693e-08
1.2132448e-05
-4.2992246e-08
-1.598736e-07
1.2281467e-05
9.5741341e-08
-2.4469298e-07
1.2427995e-05
1.919695e-07
-3.351468e-07
1.2619705e-05
2.5014036e-07
-4.3349002e-07
1.2881425e-05
3.0188027e-07
-5.4729057e-07
1.3197555e-05
3.9989189e-07
-6.8923166e-07
1.3503495e-05
6.0047798e-07
-8.6849007e-07
1.3696411e-05
9.2805636e-07
-1.071021e-06
1.364505e-05
1.3668891e-06
-1.2529471e-06
1.3132343e-05
1.931671e-06
-1.347241e-06
1.1836872e-05
2.6373657e-06
-1.2725758e-06
9.2352941e-06
3.5776433e-06
-9.248821e-07
5.2830838e-06
-2.6619003e-07
9.2126261e-06
-2.0583718e-07
-7.3614469e-09
9.2930015e-06
-3.1319998e-07
-1.4163068e-08
9.4039511e-06
-3.360952e-07
-1.8469736e-08
9.5532473e-06
-3.3801121e-07
-2.0139263e-08
9.7342303e-06
-3.2531946e-07
-1.9495295e-08
9.9322281e-06
-3.0474266e-07
-1.6574516e-08
1.0136401e-05
-2.8332969e-07
-1.1038565e-08
1.0340187e-05
-2.6461594e-07
-2.4773957e-09
1.053884e-05
-2.5045222e-07
1.0705902e-08
1.0730621e-05
-2.440659e-07
2.9158537e-08
1.0918143e-05
-2.5251935e-07
5.4647462e-08
1.1116054e-05
-2.9178094e-07
8.8723854e-08
1.1369645e-05
-3.9921139e-07
1.30733e-07
1.1742043e-05
-6.6214527e-07
1.7329994e-07
1.2376991e-05
-1.1107129e-06
1.983108e-07
1.301941e-05
-1.1515906e-06
1.75427e-07
1.3453122e-05
-7.9045495e-07
1.4733555e-07
1.3738488e-05
-4.8633426e-07
1.7715684e-07
1.3941118e-05
-3.4313061e-07
2.5989409e-07
1.4078873e-05
-2.9783894e-07
3.7989143e-07
1.4203792e-05
-3.7831011e-07
5.3710086e-07
1.4370435e-05
-5.216252e-07
6.9562052e-07
1.4615229e-05
-6.0417769e-07
7.9665032e-07
1.4942605e-05
-4.9685504e-07
7.9732054e-07
1.5266049e-05
-8.7173384e-08
7.0701859e-07
1.5273584e-05
7.9858652e-07
5.7511441e-07
1.4640184e-05
2.0013021e-06
5.7672435e-07
1.3056042e-05
3.3588845e-06
8.6233558e-07
1.0227158e-05
5.0217684e-06
1.3507762e-06
7.0588847e-06
1.9976714e-06
9.273885e-06
-2.0316869e-07
-7.3832273e-09
9.243493e-06
-2.6815334e-07
-1.4230461e-08
9.2077298e-06
-2.8097089e-07
-1.8713626e-08
9.1735351e-06
-2.8231488e-07
-2.0591943e-08
9.1470429e-06
-2.7755536e-07
-2.0036738e-08
9.1285416e-06
-2.6768468e-07
-1.6918535e-08
9.1143053e-06
-2.5623029e-07
-1.073145e-08
9.0998479e-06
-2.4627246e-07
-1.1422795e-09
9.0778987e-06
-2.4011831e-07
1.5239207e-08
9.0411588e-06
-2.4127431e-07
3.8639746e-08
8.9801871e-06
-2.5818073e-07
7.2847563e-08
8.8855333e-06
-3.1112312e-07
1.2250556e-07
8.7589243e-06
-4.5292071e-07
1.9235469e-07
8.6652525e-06
-8.3170189e-07
2.8044032e-07
8.9652539e-06
-1.7448709e-06
3.5663124e-07
9.1520147e-06
-1.6597837e-06
3.4093854e-07
8.7890103e-06
-6.7465703e-07
2.7222925e-07
8.3082382e-06
-3.0935094e-07
3.3789201e-07
7.6213788e-06
-8.6145795e-08
4.7988564e-07
6.8155802e-06
-1.1502197e-07
6.9280793e-07
5.8427391e-06
-3.0241527e-07
9.7861298e-07
4.7618895e-06
-5.9021299e-07
1.229717e-06
3.8280317e-06
-9.2739156e-07
1.3108683e-06
3.4005609e-06
-1.2081316e-06
1.1414402e-06
4.0942218e-06
-1.4375344e-06
6.2526396e-07
5.8949103e-06
-1.1682403e-06
1.3065651e-07
7.4435314e-06
2.0736106e-07
2.038638e-07
7.6739098e-06
1.9644398e-06
1.0735413e-06
6.3216e-06
4.0489781e-06
2.1334702e-06
6.2186966e-06
3.0646641e-06
9.0731625e-06
-7.1747795e-09
8.8191408e-06
-1.3720798e-08
8.5566849e-06
-1.7890905e-08
8.2946882e-06
-1.9443084e-08
8.036852e-06
-1.8528967e-08
7.7857677e-06
-1.5014875e-08
7.540045e-06
-8.4246051e-09
7.2946416e-06
1.8790276e-09
7.0385307e-06
1.9661109e-08
6.7566414e-06
4.5501818e-08
6.420391e-06
8.4835622e-08
5.9727735e-06
1.4637022e-07
5.2879976e-06
2.4717219e-07
4.0559538e-06
4.2561274e-07
1.5730986e-06
7.8209996e-07
-1.3469818e-06
1.3324347e-06
-3.3078014e-06
1.3740782e-06
-4.5956549e-06
1.0672195e-06
-5.2348283e-06
6.5142035e-07
-4.9646825e-06
-2.8796689e-07
-4.2207744e-06
-9.8553292e-07
-3.437984e-06
-1.3786025e-06
-2.8666563e-06
-1.5661173e-06
-2.5390619e-06
-1.6786739e-06
-2.4412828e-06
-1.7385261e-06
-2.2031545e-06
-1.6215798e-06
-1.5384217e-06
-6.7518016e-07
-5.844627e-07
6.9179824e-07
4.8316391e-07
2.5619597e-06
3.6944822e-06
9.5486985e-06
-2.6939388e-07
-1.7374342e-08
9.8126625e-06
-2.4699324e-07
-2.9541021e-08
1.0076016e-05
-2.4394168e-07
-3.5133022e-08
1.030512e-05
-2.0976537e-07
-3.6240933e-08
1.0488658e-05
-1.6560061e-07
-3.4620073e-08
1.0630431e-05
-1.2619638e-07
-3.0978236e-08
1.0737221e-05
-9.4392281e-08
-2.5561131e-08
1.0815075e-05
-6.9001804e-08
-1.8833096e-08
1.0868141e-05
-4.8922936e-08
-1.0092307e-08
1.0897983e-05
-3.3618204e-08
2.263889e-09
1.0911027e-05
-2.2623704e-08
1.372653e-08
1.0911682e-05
-1.7836577e-08
2.7514536e-08
1.0910013e-05
-2.4793463e-08
4.1410339e-08
1.0972103e-05
-9.9451625e-08
5.636384e-08
1.1148964e-05
-2.338959e-07
7.0031683e-08
1.1446921e-05
-3.8668622e-07
6.9010707e-08
1.1761585e-05
-4.3791442e-07
4.2711558e-08
1.1995057e-05
-3.829395e-07
-1.060448e-08
1.2149339e-05
-3.4370152e-07
-5.5776205e-08
1.2273071e-05
-3.7913776e-07
-8.0495255e-08
1.2399591e-05
-4.7025317e-07
-9.0764149e-08
1.2542541e-05
-5.9171038e-07
-9.9777479e-08
1.2700462e-05
-7.2263642e-07
-1.2578969e-07
1.2853786e-05
-8.424588e-07
-1.8071935e-07
1.2980552e-05
-9.4396658e-07
-2.5527201e-07
1.3068162e-05
-1.0023533e-06
-3.398911e-07
1.300514e-05