/*--------------------------------*- C++ -*----------------------------------*\
| =========                 |                                                 |
| \\      /  F ield         | OpenFOAM: The Open Source CFD Toolbox           |
|  \\    /   O peration     | Version:  v2012                                 |
|   \\  /    A nd           | Website:  www.openfoam.com                      |
|    \\/     M anipulation  |                                                 |
\*---------------------------------------------------------------------------*/
FoamFile
{
    version     2.0;
    format      ascii;
    class       volScalarField;
    location    "240/topAir";
    object      T;
}
// * * * * * * * * * * * * * * * * * * * * * * * * * * * * * * * * * * * * * //

dimensions      [0 0 0 1 0 0 0];


internalField   nonuniform List<scalar> 
1200
(
320.14764
338.8479
355.77818
371.38604
386.05534
400.03377
413.45248
426.31207
438.26125
449.28142
459.30284
468.1892
475.64455
477.91938
478.47142
477.16694
474.20693
470.1612
465.73874
461.5136
457.82172
454.80719
452.51284
450.95301
450.14982
450.15036
451.06395
453.14991
456.97655
463.28064
300.43487
301.25729
302.38591
303.77198
305.38046
307.18536
309.16233
311.2959
314.21516
318.13535
323.59184
331.1962
341.25742
352.84591
364.83635
375.83419
384.94288
391.95823
397.04392
400.42923
402.39961
403.35216
403.73279
403.97013
404.45229
405.55445
407.73555
411.73402
418.91083
430.65123
300.00967
300.03705
300.08789
300.16721
300.2793
300.42794
300.61616
300.84675
301.13688
301.50762
302.00712
303.26084
306.82414
313.88768
324.25363
336.59171
349.51871
361.5157
371.8954
380.37554
386.91949
391.70504
395.06706
397.41345
399.15743
400.69028
402.41201
404.84351
408.91993
416.07539
300.00023
300.00114
300.00331
300.00758
300.01496
300.02671
300.04431
300.06949
300.10483
300.15415
300.22554
300.36173
300.762
302.89094
309.79487
320.88384
333.1778
344.98208
355.74451
365.23197
373.28392
379.84484
385.00946
388.99622
392.08397
394.56438
396.73142
398.93711
401.76724
406.21378
320.14647
338.64612
355.18543
370.21367
384.0873
397.00321
409.03822
420.1739
430.2934
439.1768
446.53975
452.03861
455.28089
452.1527
447.04001
440.58777
433.75273
427.62985
422.85365
419.43805
417.05758
415.38933
414.2611
413.66245
413.67432
414.40693
416.04731
419.05633
424.50631
433.07376
300.43436
301.24138
302.32714
303.6339
305.11724
306.74036
308.46727
310.25648
312.06305
313.82266
315.46492
316.89696
318.01957
318.67524
318.882
318.87521
319.0375
319.77769
321.16745
323.02238
325.1527
327.50753
330.11156
333.02603
336.31713
340.03123
344.19008
348.76571
353.85205
362.9241
300.00964
300.03628
300.08449
300.15773
300.25843
300.38819
300.5476
300.73601
300.95155
301.19026
301.44578
301.72327
302.04613
302.41335
302.96478
304.27987
306.911
311.38416
317.15051
323.23456
328.90515
334.40596
339.86562
345.28945
350.69441
356.11208
361.92208
368.29747
375.30321
383.24806
300.00023
300.0011
300.00314
300.00699
300.01343
300.02332
300.03761
300.05729
300.08343
300.11724
300.16049
300.21943
300.32905
300.74395
302.51302
307.37227
316.04865
327.05707
338.44533
349.22932
358.76974
366.4708
372.56253
377.61509
381.97126
385.77861
388.94274
391.75623
394.58064
397.7572
320.14909
338.68889
355.28188
370.3769
384.33779
397.37213
409.58135
421.0084
431.64132
441.40266
450.12809
457.5796
463.32031
462.03647
458.09628
451.15517
441.87879
431.92982
422.76687
415.03119
408.85434
404.13699
400.78277
398.77678
398.11634
398.72684
400.52027
403.62203
409.0729
420.95806
300.4345
301.24445
302.33543
303.64883
305.14051
306.77529
308.52157
310.34769
312.21812
314.08694
315.89206
317.54955
318.93483
319.78613
319.91566
319.33135
318.61539
318.47685
319.13575
320.57639
322.67186
325.35381
328.67941
332.74885
337.58765
343.127
349.33749
356.13815
363.96667
374.533
300.00965
300.03641
300.08489
300.15848
300.25953
300.38949
300.54899
300.73769
300.954
301.19463
301.45329
301.71838
301.97142
302.18119
302.33525
302.79182
304.66191
308.11539
312.30199
316.95693
321.80152
326.96221
332.8908
339.83567
347.58385
355.58248
363.46756
370.94592
378.01863
386.87345
300.00023
300.00111
300.00315
300.00702
300.01346
300.0233
300.03743
300.05676
300.08221
300.11467
300.15496
300.20387
300.26312
300.3458
300.58807
302.33058
308.45071
317.50601
325.89549
336.65096
347.38947
356.51138
363.8071
369.72605
374.71548
379.05382
382.86168
386.22847
390.1137
397.15936
320.15315
338.70836
355.33442
370.4841
384.53416
397.71686
410.17324
421.99795
433.25567
443.98751
454.21577
463.91091
472.80243
474.70717
474.85515
473.32249
471.68333
471.27707
471.59711
471.72543
471.12984
469.65731
467.42325
464.77298
462.06236
459.6755
458.83843
462.16017
469.87382
479.26183
300.43462
301.24575
302.34022
303.66052
305.16429
306.81977
308.60121
310.4864
312.45434
314.48126
316.53481
318.56046
320.44657
321.86957
322.5499
322.7078
323.19388
324.19928
325.49241
327.01246
328.87567
331.26581
334.40466
338.46599
343.48213
349.45618
356.53764
364.34993
379.03598
408.81581
300.00965
300.03647
300.08514
300.1592
300.26116
300.39279
300.55519
300.74888
300.97369
301.22842
301.50986
301.81026
302.11095
302.37049
302.60929
303.99843
307.73129
311.51534
314.632
317.90809
322.07122
327.608
334.96522
343.93077
353.63942
363.45623
373.94641
382.08781
389.04003
405.71059
300.00023
300.00111
300.00317
300.00706
300.01357
300.02355
300.03792
300.0577
300.08392
300.1177
300.16019
300.21266
300.27753
300.38006
300.94824
307.21941
322.713
338.48479
338.49904
339.07006
346.28927
354.63855
360.99745
366.48671
371.53255
376.65499
385.0641
393.43404
401.25983
413.70173
320.15357
338.71304
355.34712
370.50896
384.57632
397.78357
410.27474
422.14817
433.47611
444.30881
454.66016
464.48652
473.42336
473.54774
471.78331
469.96501
470.46048
474.10726
478.49479
483.05423
487.54328
491.73002
495.39691
498.37241
500.57732
502.10997
503.41338
505.46013
509.59058
517.60301
300.43465
301.24621
302.34203
303.66492
305.17293
306.83489
308.62609
310.5257
312.51481
314.57238
316.66675
318.73652
320.64046
321.96014
322.4573
323.18154
324.49062
326.16671
329.21407
333.24459
337.64759
342.24908
347.5786
354.59615
363.98934
375.72903
389.98826
407.29899
429.04212
458.34448
300.00965
300.03649
300.08526
300.15953
300.26191
300.39426
300.55785
300.75343
300.98115
301.24032
301.52811
301.83605
302.1404
302.38982
302.79118
306.56054
310.15461
312.51273
314.16817
316.26047
319.75012
325.64854
334.50946
345.67913
356.99093
365.98623
373.17606
384.45647
402.53229
430.99508
300.00023
300.00111
300.00317
300.00708
300.01363
300.02368
300.03819
300.0582
300.08484
300.11933
300.16306
300.21774
300.28826
300.44194
301.93239
323.28091
345.94394
350.6224
352.82736
354.71987
357.80881
362.33908
367.22995
372.27301
377.33969
382.27442
386.98792
389.66868
402.85342
423.48182
320.15045
338.70686
355.33718
370.4945
384.55675
397.75752
410.23964
422.10042
433.41417
444.23198
454.56904
464.37914
473.3002
473.40156
471.61205
469.7258
470.09848
473.60851
478.07677
482.72796
487.33306
491.66917
495.51326
498.671
501.04524
502.73466
504.20731
506.44097
510.74163
518.96123
300.43458
301.24601
302.34161
303.6642
305.17177
306.83312
308.62345
310.52181
312.50921
314.56456
316.65611
318.72236
320.62217
321.93828
322.43914
323.13503
324.41933
326.07403
328.87527
332.67708
336.96715
341.67969
347.40327
355.10416
365.50945
378.42762
393.8688
412.0886
434.17267
463.0817
300.00965
300.03649
300.08524
300.1595
300.26185
300.39416
300.55769
300.75317
300.98075
301.23969
301.52715
301.83461
302.13831
302.38803
302.78884
306.33984
309.95813
312.40579
314.10329
316.17755
319.53434
325.05635
333.2974
343.58341
354.1649
363.59142
372.64199
385.99956
406.06515
436.22296
300.00023
300.00111
300.00317
300.00708
300.01363
300.02367
300.03818
300.05819
300.08481
300.11928
300.16297
300.21759
300.2883
300.44492
301.90798
321.42704
344.48582
349.09754
351.22684
353.05888
355.85131
360.26193
365.1855
370.43396
375.92004
381.49714
386.7217
391.12695
406.77802
430.18406
320.14621
338.69417
355.31139
370.45125
384.49079
397.66093
410.10108
421.90607
433.1418
443.84994
454.05057
463.71324
472.56106
474.39822
474.43372
472.81561
471.19141
470.87992
471.37078
471.76274
471.5202
470.44713
468.55202
466.06045
463.30582
460.83951
460.16839
463.79526
471.04108
480.41475
300.43447
301.24529
302.33928
303.65888
305.16174
306.81599
308.5958
310.47882
312.44388
314.46702
316.51557
318.53428
320.40968
321.81497
322.47288
322.63671
323.1519
324.18221
325.49404
327.01971
328.86659
331.20028
334.23161
338.14772
343.04213
348.99308
356.093
363.95601
380.14307
410.88838
300.00965
300.03646
300.08511
300.15913
300.26103
300.39256
300.55483
300.74832
300.97285
301.22716
301.508
301.80747
302.10661
302.36395
302.60789
304.02894
307.74229
311.47864
314.49309
317.5896
321.5087
326.64026
333.43594
341.81218
351.2766
361.84075
373.36299
381.88827
389.95921
408.53078
300.00023
300.00111
300.00316
300.00706
300.01356
300.02353
300.0379
300.05765
300.08384
300.11756
300.15997
300.21232
300.27722
300.38271
300.97822
307.2435
322.71971
338.17936
338.46509
338.25005
345.60015
353.86673
360.26484
365.94581
371.316
377.41528
387.16209
394.94835
403.14105
414.96057
320.14036
338.67096
355.25397
370.33807
384.28713
397.30791
409.50137
420.91182
431.52869
441.27477
449.98459
457.41976
463.14035
461.83523
457.84474
450.84422
441.57739
431.71874
422.69712
415.11363
409.07015
404.43446
401.07113
398.94278
398.0649
398.41806
399.96708
402.85681
408.13348
419.78245
300.43431
301.24388
302.33429
303.64691
305.13757
306.77104
308.51567
310.33973
312.20775
314.07366
315.87546
317.52903
318.90882
319.75088
319.86536
319.2762
318.58898
318.4925
319.17321
320.60387
322.65343
325.24351
328.42357
332.30919
336.98056
342.44617
348.70703
355.68514
363.93635
375.08871
300.00964
300.0364
300.08485
300.1584
300.25937
300.38923
300.54859
300.73707
300.95311
301.19338
301.45155
301.71599
301.96809
302.1764
302.33117
302.81686
304.7546
308.23631
312.3481
316.86607
321.52544
326.42226
332.00441
338.60185
346.18006
354.38024
362.70173
370.62141
378.27312
388.17768
300.00023
300.00111
300.00315
300.00702
300.01345
300.02329
300.0374
300.05671
300.08212
300.11451
300.15471
300.20349
300.2626
300.34602
300.60026
302.42243
308.71083
317.77961
325.75652
336.2036
346.83321
355.98319
363.35634
369.36443
374.45535
378.94514
382.90871
386.38119
390.42508
397.96502
320.1366
338.62595
355.15427
370.171
384.03318
396.93791
408.96208
420.08752
430.19957
439.07927
446.44219
451.94659
455.20042
452.09009
446.9693
440.45354
433.50957
427.27545
422.42771
419.0032
416.67535
415.10237
414.07615
413.54659
413.56867
414.24846
415.78628
418.65112
423.90691
432.37178
300.43415
301.24075
302.32588
303.6318
305.11409
306.73594
308.46136
310.24884
312.05354
313.81175
315.45313
316.88509
318.00847
318.6639
318.86231
318.834
318.97223
319.70126
321.09531
322.96345
325.10252
327.45017
330.02252
332.88022
336.10259
339.76176
343.90227
348.51038
353.70944
362.64495
300.00964
300.03627
300.08444
300.15763
300.25827
300.38791
300.54716
300.73535
300.9506
301.18897
301.44414
301.72152
302.04425
302.40985
302.95029
304.2404
306.84833
311.3193
317.09707
323.2088
328.89578
334.40481
339.8786
345.3219
350.75014
356.12018
361.91411
368.29449
375.30887
383.22651
300.00023
300.0011
300.00313
300.00698
300.01342
300.0233
300.03757
300.05722
300.08331
300.11703
300.16014
300.21882
300.32733
300.73407
302.4556
307.19646
315.70957
326.58411
337.89514
348.66604
358.24882
366.00962
372.14307
377.22667
381.62301
385.54759
388.78758
391.64613
394.49007
397.65203
320.13746
338.82712
355.74665
371.3442
386.00419
399.97443
413.38593
426.23938
438.18296
449.19956
459.21908
468.10523
475.56158
477.84075
478.39274
477.07414
474.07948
469.98332
465.50876
461.24577
457.53951
454.5363
452.27078
450.74142
449.95406
449.94617
450.82613
452.85398
456.59586
462.81321
300.43465
301.25664
302.38461
303.76983
305.3773
307.18102
309.15667
311.28891
314.21112
318.13794
323.60769
331.22151
341.2865
352.86523
364.82896
375.78695
384.85384
391.83718
396.90712
400.29487
402.27964
403.24957
403.64014
403.87097
404.328
405.39456
407.5399
411.49377
418.58027
430.20418
300.00967
300.03703
300.08784
300.16711
300.27913
300.42764
300.6157
300.84607
301.13602
301.50671
302.0067
303.27253
306.85068
313.90564
324.23625
336.51466
349.37352
361.31191
371.65553
380.12712
386.68696
391.50352
394.89991
397.27337
399.03067
400.56202
402.2704
404.67358
408.6862
415.72687
300.00023
300.00114
300.00331
300.00758
300.01495
300.02669
300.04426
300.06941
300.10468
300.15391
300.22515
300.36123
300.75937
302.87472
309.69001
320.66063
332.866
344.61172
355.34363
364.82961
372.90722
379.51302
384.73044
388.7676
391.89673
394.40724
396.59233
398.80215
401.61191
405.99246
)
;

boundaryField
{
    maxY
    {
        type            zeroGradient;
    }
    minX
    {
        type            fixedValue;
        value           uniform 300;
    }
    maxX
    {
        type            inletOutlet;
        inletValue      uniform 300;
        value           nonuniform List<scalar> 
40
(
463.27568
430.64325
416.0662
406.20445
433.08769
362.90864
383.2354
397.74998
420.97874
374.49956
386.80319
397.01625
479.25926
408.8245
405.58079
413.32803
517.59539
458.3267
431.00059
423.01737
518.99344
463.37467
436.5113
429.79182
480.45283
411.07574
408.5919
414.42776
419.76652
375.09539
388.1917
397.91261
432.35647
362.63774
383.24144
397.65101
462.7988
430.18122
415.70956
405.9844
)
;
    }
    minZ
    {
        type            zeroGradient;
    }
    maxZ
    {
        type            zeroGradient;
    }
    topAir_to_rightSolid
    {
        type            compressible::turbulentTemperatureCoupledBaffleMixed;
        refValue        nonuniform List<scalar> 
130
(
709.17878
716.09029
723.28027
730.42462
737.18686
743.35423
748.81642
753.51056
757.41308
760.52846
762.87126
764.43856
765.22729
704.18739
712.26534
720.46963
728.41935
735.77229
742.36862
748.13227
753.04244
757.0854
760.29032
762.68829
764.28863
765.09237
694.04217
704.81534
715.20749
724.77973
733.28581
740.67857
746.98422
752.25733
756.54255
759.90209
762.39287
764.04279
764.86698
678.72534
694.60641
708.54165
720.43021
730.45574
738.82377
745.75148
751.42198
755.9679
759.496
762.0859
763.78902
764.63411
660.44071
684.74502
702.91494
717.06224
728.37145
737.4886
744.86996
750.81739
755.5401
759.18181
761.84144
763.58319
764.44306
660.28796
684.55143
702.70233
716.8472
728.16925
737.29534
744.68848
750.65301
755.39968
759.0632
761.73948
763.49335
764.36042
678.39375
694.14872
708.0168
719.86897
729.89761
738.28343
745.24311
750.95697
755.56503
759.15055
761.78654
763.52056
764.37809
693.70413
704.34357
714.62114
724.07409
732.52183
739.90678
746.23192
751.54823
755.91106
759.36301
761.92257
763.61654
764.45742
703.91698
711.86143
719.93217
727.71448
734.95003
741.4904
747.26211
752.21252
756.33931
759.63895
762.11305
763.7552
764.57221
708.98836
715.77003
722.8214
729.78175
736.38913
742.46724
747.90978
752.64531
756.62704
759.83593
762.24762
763.85324
764.65516
)
;
        refGradient     uniform 0;
        valueFraction   uniform 0.99967867;
        value           nonuniform List<scalar> 
130
(
709.10197
716.00985
723.19616
730.33703
737.09613
743.26078
748.72071
753.41308
757.31435
760.42902
762.77174
764.33977
765.13026
704.09853
712.17235
720.3729
728.3193
735.66934
742.26319
748.02479
752.9334
756.97529
760.17971
762.57787
764.17946
764.98569
693.95794
704.72471
715.11104
724.67821
733.18005
740.56936
746.87233
752.14354
756.42757
759.78661
762.2776
763.92873
764.75648
678.65868
694.53475
708.46555
720.3501
730.37192
738.73655
745.66119
751.32899
755.87269
759.3994
761.98954
763.69457
764.54241
660.38083
684.67874
702.84428
716.98848
728.29541
737.41081
744.79075
750.73697
755.45866
759.09962
761.75906
763.50157
764.36374
660.22798
684.48509
702.63165
716.77346
728.09326
737.21765
744.60943
750.5728
755.31849
758.9813
761.65744
763.41213
764.28158
678.32707
694.07714
707.94089
719.78918
729.81425
738.19677
745.15341
750.86455
755.47034
759.05449
761.69081
763.42658
764.28685
693.61995
704.25307
714.5249
723.97288
732.41641
739.7979
746.12033
751.43464
755.79619
759.24753
761.8072
763.50231
764.34667
703.82808
711.76843
719.83548
727.61454
734.84726
741.3852
747.15488
752.1037
756.22939
759.52846
762.00268
763.646
764.46546
708.91156
715.68961
722.73735
729.69427
736.29857
742.37399
747.8143
752.54804
756.52849
759.73664
762.1482
763.75451
764.55817
)
;
        Tnbr            T;
        thicknessLayers List<scalar> 0();
        kappaLayers     List<scalar> 0();
        kappaMethod     fluidThermo;
        kappa           none;
        alphaAni        none;
        alpha           none;
        field           T;
    }
    topAir_to_heater
    {
        type            compressible::turbulentTemperatureCoupledBaffleMixed;
        refValue        nonuniform List<scalar> 
40
(
692.63817
694.43671
697.95849
702.98557
684.51344
686.61163
690.80134
696.81485
667.28894
670.0303
675.60994
683.83197
639.06478
642.55721
650.07853
662.21453
597.68175
600.75882
609.08751
626.00553
597.72959
600.78019
609.06879
625.93079
639.23245
642.64487
650.05045
662.04488
667.41536
670.12409
675.57841
683.64622
684.61795
686.69635
690.78311
696.67535
692.72023
694.49046
697.95755
702.90515
)
;
        refGradient     uniform 0;
        valueFraction   uniform 0.99967867;
        value           nonuniform List<scalar> 
40
(
692.56918
694.36731
697.88755
702.91206
684.43878
686.53465
690.72094
696.73032
667.22299
669.9622
675.53782
683.75423
639.01197
642.50332
650.02174
662.1533
597.64186
600.71738
609.0428
625.95555
597.68963
600.73868
609.02402
625.88071
639.17948
642.59081
649.99349
661.98355
667.3493
670.05588
675.50619
683.56843
684.54324
686.61932
690.70267
696.59079
692.65119
694.42102
697.88658
702.83162
)
;
        Tnbr            T;
        thicknessLayers List<scalar> 0();
        kappaLayers     List<scalar> 0();
        kappaMethod     fluidThermo;
        kappa           none;
        alphaAni        none;
        alpha           none;
        field           T;
    }
    topAir_to_leftSolid
    {
        type            compressible::turbulentTemperatureCoupledBaffleMixed;
        refValue        nonuniform List<scalar> 
130
(
793.83408
793.81415
793.75943
793.66208
793.5188
793.33372
793.10351
792.833
792.53024
792.23017
791.95737
791.73472
791.61259
793.91468
793.89154
793.8354
793.73551
793.58745
793.39694
793.15563
792.86908
792.5345
792.21558
791.93698
791.71143
791.58825
794.02141
793.99045
793.92568
793.81196
793.6425
793.43182
793.16994
792.85958
792.50209
792.1587
791.85533
791.60859
791.47246
794.11946
794.06923
793.99317
793.85027
793.64622
793.40072
793.10796
792.76492
792.37193
791.98363
791.65557
791.39998
791.24432
794.14093
794.08035
793.975
793.81646
793.59243
793.31965
792.99326
792.61011
792.17302
791.74585
791.39267
791.12431
790.95882
794.06391
794.0017
793.8792
793.70538
793.47742
793.18976
792.82933
792.40163
791.97687
791.59143
791.27551
791.04767
790.91054
793.94737
793.87881
793.75534
793.5876
793.37589
793.10157
792.75058
792.37029
792.01064
791.68543
791.39704
791.18261
791.0715
793.80388
793.74331
793.64124
793.49292
793.29877
793.05332
792.75711
792.4483
792.15002
791.87979
791.62828
791.42393
791.31415
793.66802
793.6109
793.51304
793.38162
793.22331
793.03322
792.80207
792.54186
792.27543
792.03751
791.80536
791.61994
791.51475
793.57955
793.52717
793.44511
793.34001
793.20939
793.04286
792.83103
792.58604
792.34307
792.1135
791.90297
791.7369
791.6395
)
;
        refGradient     uniform 0;
        valueFraction   uniform 0.99967867;
        value           nonuniform List<scalar> 
130
(
793.68187
793.66796
793.6187
793.52639
793.38787
793.20734
792.98151
792.71523
792.4164
792.11997
791.85048
791.63075
791.51106
793.76245
793.74526
793.69445
793.59942
793.45586
793.26957
793.0322
792.74933
792.4181
792.10214
791.826
791.60229
791.48018
793.86914
793.84415
793.78473
793.6759
793.51097
793.30456
793.04668
792.74009
792.38614
792.04599
791.74552
791.50126
791.36702
793.96716
793.92291
793.85222
793.71423
793.51476
793.27358
792.98491
792.64578
792.25654
791.87181
791.54714
791.29475
791.142
793.98862
793.93403
793.83406
793.68044
793.46101
793.19255
792.87028
792.49107
792.05776
791.6342
791.28447
791.01935
790.85679
793.91163
793.8554
793.73829
793.56939
793.34602
793.0627
792.70639
792.28265
791.86166
791.47981
791.16732
790.9427
790.80849
793.79513
793.73254
793.61446
793.45164
793.24451
792.9745
792.62763
792.25125
791.89533
791.57366
791.28864
791.07738
790.96915
793.65168
793.59709
793.50038
793.35695
793.16734
792.92615
792.63396
792.32892
792.03415
791.76713
791.5185
791.3166
791.2087
793.51587
793.4647
793.37219
793.24563
793.09182
792.90594
792.67873
792.42218
792.15909
791.92409
791.69438
791.5108
791.40669
793.42742
793.38106
793.30447
793.20441
793.07855
792.91656
792.7091
792.46833
792.22927
792.00331
791.79607
791.63291
791.53793
)
;
        Tnbr            T;
        thicknessLayers List<scalar> 0();
        kappaLayers     List<scalar> 0();
        kappaMethod     fluidThermo;
        kappa           none;
        alphaAni        none;
        alpha           none;
        field           T;
    }
}


// ************************************************************************* //
