/*--------------------------------*- C++ -*----------------------------------*\
| =========                 |                                                 |
| \\      /  F ield         | OpenFOAM: The Open Source CFD Toolbox           |
|  \\    /   O peration     | Version:  v2012                                 |
|   \\  /    A nd           | Website:  www.openfoam.com                      |
|    \\/     M anipulation  |                                                 |
\*---------------------------------------------------------------------------*/
FoamFile
{
    version     2.0;
    format      ascii;
    class       volVectorField;
    location    "240/topAir";
    object      U;
}
// * * * * * * * * * * * * * * * * * * * * * * * * * * * * * * * * * * * * * //

dimensions      [0 1 -1 0 0 0 0];


internalField   nonuniform List<vector> 
1200
(
(0.10332273 -0.0021107057 0.0008656827)
(0.11466074 -0.0022732176 0.0013014246)
(0.12443544 -0.0021751086 0.0013961042)
(0.13200228 -0.0017697644 0.001293084)
(0.1385679 -0.0011070432 0.0010130862)
(0.1446844 -0.00033130709 0.00052279917)
(0.1505097 0.00047595059 -0.00021072153)
(0.15629803 0.0012474369 -0.0012653408)
(0.16219551 0.0020270687 -0.0028401501)
(0.16845289 0.0029602859 -0.0051934055)
(0.17525988 0.0042804984 -0.0086464071)
(0.18247347 0.0063307727 -0.013566583)
(0.18910264 0.0095165544 -0.020253172)
(0.1939441 0.013624239 -0.028760873)
(0.19667185 0.018564271 -0.038717512)
(0.19754921 0.02362061 -0.049333474)
(0.19701006 0.028088745 -0.059566757)
(0.19551193 0.031616205 -0.068441362)
(0.19336368 0.034135384 -0.075405927)
(0.19083422 0.035636634 -0.080390231)
(0.18834896 0.036157692 -0.083614253)
(0.1864318 0.035849779 -0.08537537)
(0.18547677 0.034940554 -0.085929084)
(0.18559757 0.033669838 -0.085453151)
(0.18659773 0.032265368 -0.084044108)
(0.1879576 0.030978972 -0.081689117)
(0.18867873 0.030223489 -0.078174481)
(0.18682805 0.0308649 -0.07295378)
(0.17899377 0.034910203 -0.065041667)
(0.13714101 0.048520281 -0.052163237)
(0.098714856 -0.0034006009 0.00084840251)
(0.098438882 -0.0042359632 0.0012858946)
(0.098622109 -0.0043860692 0.0014768905)
(0.099117458 -0.0040512546 0.0015760605)
(0.1000531 -0.0033943607 0.0016152471)
(0.10147166 -0.0026261081 0.0015853571)
(0.10334052 -0.0018779474 0.0014707398)
(0.10567886 -0.0012834354 0.0012387536)
(0.10893224 -0.00061404309 0.00079923284)
(0.11345406 0.00044027242 -4.8406845e-06)
(0.11993282 0.0024695018 -0.0014003397)
(0.12892142 0.0064305571 -0.0037355694)
(0.14034029 0.013304201 -0.0074636246)
(0.15301992 0.022791289 -0.012918911)
(0.16518885 0.034346851 -0.020034398)
(0.17538929 0.046338404 -0.028097849)
(0.182891 0.057251845 -0.036049945)
(0.18755509 0.066469003 -0.042980578)
(0.18957556 0.073836799 -0.048539604)
(0.18948999 0.079104373 -0.05277564)
(0.18821472 0.08213171 -0.055853076)
(0.18670577 0.083148043 -0.057874292)
(0.18559601 0.082633953 -0.058875936)
(0.18511779 0.08111151 -0.058879297)
(0.18518645 0.079029961 -0.057882995)
(0.18546239 0.076820189 -0.055772722)
(0.18524193 0.07522477 -0.052133246)
(0.18315567 0.075823189 -0.045936455)
(0.17780387 0.081909852 -0.03494212)
(0.14778666 0.098445984 -0.014305939)
(0.098874906 -0.0027186254 0.00087359285)
(0.098170903 -0.0039520642 0.0013308865)
(0.096689782 -0.0043486771 0.0015403929)
(0.094741075 -0.0044369754 0.0016698641)
(0.092777987 -0.0043909809 0.0017719048)
(0.090984015 -0.0042855041 0.0018586906)
(0.08936226 -0.0041999452 0.0019440032)
(0.087839657 -0.0042466826 0.0020542646)
(0.086404277 -0.0042801694 0.0022475632)
(0.085234283 -0.0042109015 0.0025737636)
(0.084705009 -0.0038370327 0.0030183035)
(0.086057033 -0.0022168036 0.0033222308)
(0.092017592 0.0031295188 0.0029264332)
(0.10348138 0.014387886 0.0013716364)
(0.11859285 0.030806803 -0.001493121)
(0.13418936 0.048917463 -0.0049978438)
(0.14823251 0.065959729 -0.0080928335)
(0.15950509 0.079777276 -0.010234813)
(0.16745847 0.090186094 -0.011659808)
(0.17224933 0.097406141 -0.012821523)
(0.17485418 0.10166633 -0.014094091)
(0.17638127 0.10327135 -0.015530853)
(0.17749114 0.1026728 -0.016749902)
(0.17833788 0.10039974 -0.017370424)
(0.17873616 0.096947943 -0.017216649)
(0.17839918 0.092797206 -0.0160605)
(0.17697322 0.088670322 -0.013539838)
(0.17385776 0.086172959 -0.0089151646)
(0.16924233 0.088925324 -0.00070505658)
(0.14635868 0.10331779 0.014284185)
(0.09689102 -0.0014932826 0.00083956815)
(0.094771784 -0.0022022008 0.0012589159)
(0.091196887 -0.0024223581 0.0014293658)
(0.086778194 -0.0024604124 0.0015176225)
(0.082311119 -0.0024107571 0.0015793668)
(0.078040775 -0.0022984782 0.001629367)
(0.073939599 -0.0021561491 0.0016862842)
(0.069925806 -0.0020247268 0.0017847064)
(0.065891606 -0.0019190936 0.0019833754)
(0.061661835 -0.0019285569 0.0023810506)
(0.056909675 -0.0023545212 0.0031464949)
(0.051217688 -0.0034072457 0.0045847189)
(0.044001441 -0.0039564586 0.0071884962)
(0.037704802 0.00050166054 0.011160199)
(0.039903679 0.014259916 0.015847868)
(0.051090795 0.032124128 0.020534571)
(0.066199641 0.047833582 0.025426153)
(0.081800454 0.059701083 0.030644682)
(0.095971143 0.068235918 0.03578155)
(0.10795442 0.07412744 0.039960596)
(0.11796881 0.077717471 0.042743018)
(0.12652655 0.079131095 0.04425525)
(0.13389515 0.078565541 0.044774517)
(0.13996609 0.076366287 0.044666612)
(0.14442561 0.072947954 0.044283784)
(0.1470234 0.068789447 0.043980839)
(0.1478105 0.064502877 0.044112217)
(0.1473933 0.061344239 0.04507923)
(0.14937151 0.062219282 0.046910872)
(0.16110342 0.073240425 0.048584006)
(0.10458774 -0.0021070541 0.0010267778)
(0.11678713 -0.0022747627 0.0014638388)
(0.12781647 -0.0022500042 0.0015127669)
(0.13674522 -0.0020036199 0.0013509996)
(0.14450912 -0.0015949197 0.0010081268)
(0.15158359 -0.0011760298 0.00045446943)
(0.15802263 -0.00085758866 -0.00035163265)
(0.16377303 -0.00070808113 -0.0015072713)
(0.16879599 -0.00078070021 -0.0032185294)
(0.17307035 -0.0011453156 -0.0057235607)
(0.17656034 -0.0018847627 -0.0093115289)
(0.17917638 -0.0030944948 -0.014290802)
(0.18052908 -0.0048228818 -0.020851945)
(0.1804042 -0.0074670799 -0.028850857)
(0.17979064 -0.010584176 -0.037717978)
(0.17977411 -0.013739499 -0.046509984)
(0.18078989 -0.01637698 -0.054212879)
(0.18253004 -0.017973914 -0.060231571)
(0.18416687 -0.018563411 -0.064617314)
(0.18504695 -0.018666352 -0.067681682)
(0.18515734 -0.018824999 -0.06965096)
(0.18499855 -0.019234041 -0.070652787)
(0.18514852 -0.019807206 -0.070749892)
(0.18596733 -0.020384549 -0.069970386)
(0.18755713 -0.020828311 -0.06832135)
(0.18988077 -0.020972577 -0.065756682)
(0.19282194 -0.020385106 -0.062067494)
(0.19604473 -0.017821275 -0.056833257)
(0.19875008 -0.0097282373 -0.049626428)
(0.18767469 0.01396853 -0.039555311)
(0.10001391 -0.0034069589 0.0010798626)
(0.100693 -0.0042726743 0.0016534946)
(0.10227627 -0.0045418295 0.0018862122)
(0.10435827 -0.0044347561 0.00197861)
(0.10680983 -0.0041220623 0.001980343)
(0.1095924 -0.0038202464 0.0018793613)
(0.11262756 -0.0036822087 0.001648241)
(0.11584069 -0.0038165159 0.0012340436)
(0.11920071 -0.0043239367 0.00054222024)
(0.1226966 -0.0053341818 -0.00057938332)
(0.12629223 -0.0070000808 -0.0022993253)
(0.12999876 -0.0095024479 -0.0048392321)
(0.13390084 -0.012937505 -0.0084610474)
(0.13800139 -0.017666124 -0.013203519)
(0.14247253 -0.023013706 -0.018664664)
(0.14765293 -0.027978469 -0.023874497)
(0.15339133 -0.031300729 -0.027697153)
(0.15895215 -0.031857186 -0.02988176)
(0.16323325 -0.029842425 -0.031187978)
(0.16563268 -0.026552323 -0.032337179)
(0.16645492 -0.023472228 -0.033532266)
(0.16652319 -0.021325834 -0.034651765)
(0.16651629 -0.020032611 -0.035444808)
(0.16675644 -0.019306658 -0.035548315)
(0.16744193 -0.019040542 -0.034550906)
(0.16897099 -0.019216146 -0.032023952)
(0.17230788 -0.019686267 -0.027431778)
(0.17972343 -0.01968296 -0.019878342)
(0.19720321 -0.017040243 -0.0078528417)
(0.25307483 -0.004797043 0.0067254715)
(0.10018231 -0.0027461446 0.0010992248)
(0.1004435 -0.0040031812 0.0016964239)
(0.10040957 -0.0044393879 0.0019699933)
(0.10016265 -0.0046000844 0.0021260185)
(0.099909448 -0.0046646906 0.0022293356)
(0.099764206 -0.0047115506 0.0022867275)
(0.099738342 -0.0048133686 0.0023006931)
(0.099806375 -0.0050505841 0.0022788977)
(0.099953259 -0.0055180324 0.0022465074)
(0.10018616 -0.0063587614 0.0022033741)
(0.10051143 -0.0077986618 0.0020733821)
(0.10104669 -0.010113088 0.0016677042)
(0.10206094 -0.013636976 0.00084077276)
(0.10379395 -0.018795268 -0.00025124021)
(0.10644294 -0.025325327 -0.0010790529)
(0.11052161 -0.031677597 -0.0002245932)
(0.11609752 -0.03618414 0.003899524)
(0.12281508 -0.036510205 0.010780605)
(0.12921771 -0.033096447 0.018095884)
(0.13392545 -0.028330509 0.024060755)
(0.13667476 -0.024351028 0.027978341)
(0.13806111 -0.021166466 0.030988461)
(0.1396016 -0.018989868 0.033616887)
(0.14191566 -0.017911247 0.036211525)
(0.14497498 -0.017760483 0.039166363)
(0.14765673 -0.018743981 0.041862257)
(0.15008806 -0.02032728 0.044725431)
(0.15342386 -0.022082202 0.048132919)
(0.16087206 -0.023954403 0.053536021)
(0.18515049 -0.025730892 0.062998724)
(0.098142008 -0.001520209 0.0010734044)
(0.096929517 -0.0022576407 0.0016516499)
(0.09473009 -0.0025093678 0.0019105692)
(0.091932036 -0.0025899777 0.0020492097)
(0.089087508 -0.0025970688 0.0021322859)
(0.086382345 -0.002558815 0.0021702991)
(0.083812963 -0.0025097982 0.0021729178)
(0.081347345 -0.0024935418 0.0021597101)
(0.078955736 -0.0025633503 0.0021653763)
(0.076588004 -0.0028071162 0.0022511109)
(0.074131428 -0.0033890864 0.0025275794)
(0.071381766 -0.0045702388 0.0032110299)
(0.068018644 -0.006719476 0.0046161866)
(0.063617089 -0.0097968435 0.0073409295)
(0.058455962 -0.012195624 0.013406502)
(0.054710605 -0.010942304 0.024997732)
(0.055517162 -0.0046925741 0.041915278)
(0.061189961 0.0048242979 0.060836787)
(0.06834186 0.014949424 0.077704967)
(0.074801595 0.023795224 0.090487784)
(0.081176498 0.030483328 0.099023113)
(0.088299286 0.034317395 0.1034517)
(0.095464769 0.035249378 0.10494058)
(0.10184693 0.033989605 0.10477809)
(0.10697172 0.031255331 0.1035088)
(0.11065614 0.02743971 0.10116047)
(0.11356376 0.022560696 0.097213617)
(0.11630429 0.017523336 0.092426015)
(0.12096626 0.01318798 0.088713368)
(0.13973421 0.010562358 0.08636968)
(0.10446344 -0.0021232714 0.00038335944)
(0.11646629 -0.002287253 0.00064068561)
(0.1274135 -0.0022361507 0.00076568255)
(0.1363752 -0.0019410473 0.00080422143)
(0.14422786 -0.001468449 0.00078447719)
(0.15139141 -0.00098000605 0.0007142865)
(0.15788013 -0.00057786662 0.00058364063)
(0.16365775 -0.00029282767 0.00037202898)
(0.16873905 -0.00013714609 6.4307027e-05)
(0.17313028 -0.00013370611 -0.00035578614)
(0.1767621 -0.00033044374 -0.00093144915)
(0.17948842 -0.00077686396 -0.0017020215)
(0.18075469 -0.0015392618 -0.0027044074)
(0.18005765 -0.0032412468 -0.0040526857)
(0.17823919 -0.0058041645 -0.0058284647)
(0.17642721 -0.0093979799 -0.0078862665)
(0.17535813 -0.013728231 -0.009960195)
(0.17494743 -0.018098571 -0.012060418)
(0.17459681 -0.022117135 -0.014413049)
(0.17391669 -0.025690744 -0.017152206)
(0.17300074 -0.028878217 -0.020051058)
(0.17221064 -0.03175509 -0.02273841)
(0.17189942 -0.034279121 -0.024892608)
(0.17221339 -0.036294133 -0.026277255)
(0.17308953 -0.037669363 -0.026808503)
(0.17449438 -0.038442664 -0.026522833)
(0.17660848 -0.038693017 -0.025507441)
(0.17993438 -0.037799067 -0.024407809)
(0.18555961 -0.032158928 -0.025586389)
(0.18741605 -0.010776351 -0.029898533)
(0.099890636 -0.0034145595 0.00038146813)
(0.10034268 -0.0042652314 0.00065805555)
(0.10181467 -0.0044918272 0.00080396243)
(0.10391243 -0.0043149592 0.00086134686)
(0.10642765 -0.0039121264 0.0008499477)
(0.10926692 -0.0035057056 0.00076095681)
(0.11231959 -0.003228163 0.00057099567)
(0.11548474 -0.0031265075 0.00024605054)
(0.11870188 -0.0032364796 -0.00026149369)
(0.12192516 -0.0036297415 -0.0010195371)
(0.12511007 -0.0044222113 -0.0021380852)
(0.12823004 -0.0057394764 -0.0037508731)
(0.13130554 -0.0077960068 -0.0060211331)
(0.13424374 -0.011429294 -0.0090928489)
(0.13710217 -0.016791197 -0.012971679)
(0.14015724 -0.02385318 -0.017317504)
(0.14328241 -0.030856078 -0.021582524)
(0.14566465 -0.035717342 -0.025630077)
(0.14647145 -0.038477894 -0.029649615)
(0.14568055 -0.039702599 -0.033818612)
(0.14374264 -0.04026258 -0.037937397)
(0.14126181 -0.040834505 -0.041644417)
(0.13876948 -0.041599238 -0.044532787)
(0.1365695 -0.042334276 -0.046188852)
(0.13465562 -0.042816352 -0.046373277)
(0.13322047 -0.043360913 -0.044838883)
(0.13288032 -0.044629252 -0.041600638)
(0.13696806 -0.045890225 -0.037954661)
(0.15338288 -0.041729915 -0.040548216)
(0.20386269 -0.021133131 -0.056305468)
(0.10006329 -0.0027396313 0.00038723752)
(0.10010885 -0.0039886335 0.00067108806)
(0.099973185 -0.0044035114 0.00083271083)
(0.099755916 -0.0045309925 0.00091234453)
(0.09959615 -0.004550009 0.00092889055)
(0.099567055 -0.0045321456 0.0008751402)
(0.099663011 -0.0045340421 0.00073211913)
(0.099842295 -0.0046063854 0.00047172618)
(0.10006506 -0.0048100974 5.0146991e-05)
(0.10029696 -0.0052410133 -0.00060591366)
(0.10052685 -0.0060455715 -0.0016115568)
(0.10068711 -0.0074572906 -0.0031114515)
(0.10067687 -0.0098568913 -0.0053547827)
(0.10042376 -0.013946809 -0.0086752524)
(0.10000705 -0.020569806 -0.013329148)
(0.099613059 -0.029597271 -0.018689225)
(0.099088568 -0.037373203 -0.023106989)
(0.098051321 -0.040465865 -0.024943735)
(0.096271831 -0.040396122 -0.024689688)
(0.093084991 -0.038684289 -0.025791751)
(0.088569022 -0.037341551 -0.028797228)
(0.083323948 -0.037250822 -0.032261385)
(0.078180606 -0.038340105 -0.034675583)
(0.074128452 -0.040009136 -0.034886247)
(0.071335213 -0.042002022 -0.032040561)
(0.071179749 -0.044492451 -0.024987774)
(0.072751104 -0.048599661 -0.0155867)
(0.079174896 -0.054181099 -0.0064539214)
(0.094493377 -0.057406133 -0.009930992)
(0.13963891 -0.049060269 -0.038984163)
(0.098025768 -0.0015144936 0.00037804698)
(0.096601505 -0.0022457782 0.00065062618)
(0.094303004 -0.0024883217 0.0008025289)
(0.091536117 -0.0025575943 0.00087395956)
(0.088787936 -0.0025502321 0.00088483227)
(0.086204332 -0.0024915796 0.00082999455)
(0.083767063 -0.0024114106 0.00069355273)
(0.081432767 -0.0023440268 0.00045250248)
(0.079162068 -0.0023256893 7.1372684e-05)
(0.076904401 -0.0024058309 -0.0005023871)
(0.074590217 -0.002671302 -0.0013450595)
(0.072101724 -0.0033059035 -0.0025725705)
(0.069207382 -0.0046051802 -0.0043998856)
(0.065496871 -0.0071961758 -0.0072617223)
(0.060570065 -0.012344231 -0.011869521)
(0.053803965 -0.020324164 -0.017804419)
(0.045326709 -0.02520747 -0.020099209)
(0.039857198 -0.021276578 -0.0073934846)
(0.044088262 -0.013303802 0.023122333)
(0.0453988 -0.0017962714 0.050658483)
(0.047755442 0.0080512769 0.068461341)
(0.05232925 0.014222601 0.077873668)
(0.057926425 0.016731968 0.081746489)
(0.063211646 0.016332178 0.082308239)
(0.066947842 0.013504311 0.080559076)
(0.068018704 0.0083668071 0.076436541)
(0.067084239 0.00065581873 0.069539181)
(0.069146641 -0.0089599042 0.060299684)
(0.072463691 -0.017019463 0.039193398)
(0.10591594 -0.010117666 -0.0097834737)
(0.104437 -0.002123323 0.00021098523)
(0.11636739 -0.0022817395 0.00038576235)
(0.12723661 -0.0022167875 0.00050174134)
(0.13614296 -0.0018944922 0.0005632346)
(0.14396909 -0.0013737098 0.00058029456)
(0.15113947 -0.00080589498 0.00055821992)
(0.15769696 -0.00027807482 0.00049877636)
(0.16364194 0.00019085311 0.00041084559)
(0.16901457 0.00060771085 0.00030195475)
(0.1738493 0.0009857935 0.00017378206)
(0.17819071 0.0013548043 3.3257995e-05)
(0.18207888 0.001730741 -8.1218556e-05)
(0.18510373 0.0020975209 -8.0402929e-05)
(0.1869108 0.0017998838 9.7263886e-05)
(0.18863228 0.0011342445 0.00068917113)
(0.19169348 0.00039623104 0.0024183559)
(0.1962349 0.00033575727 0.0056628505)
(0.20094823 0.00087679338 0.0099330219)
(0.20447319 0.001049185 0.014454252)
(0.20672017 0.00048676355 0.018763391)
(0.2083233 -0.00070765436 0.022703075)
(0.20979959 -0.0023809844 0.026333416)
(0.21131006 -0.0043340437 0.029802352)
(0.21271045 -0.0063310176 0.033274743)
(0.21364568 -0.0082687275 0.036681627)
(0.21390888 -0.009951926 0.039528607)
(0.21348495 -0.010064586 0.040998998)
(0.21156484 -0.0060512259 0.040084505)
(0.20155144 0.0052904991 0.033026516)
(0.13329644 0.035771599 0.012022185)
(0.099862763 -0.0034143049 0.00021199149)
(0.10022308 -0.0042573651 0.00039789665)
(0.10157886 -0.0044632258 0.00052275105)
(0.10357169 -0.0042452978 0.00058548202)
(0.10599329 -0.0037704667 0.00059246683)
(0.10873882 -0.0032459998 0.00054237363)
(0.11169387 -0.002781642 0.00042583864)
(0.11475762 -0.0024020952 0.00022833122)
(0.1178647 -0.0021082623 -7.2412152e-05)
(0.12098211 -0.0019104244 -0.0005137322)
(0.1241042 -0.001828146 -0.0011399111)
(0.12727418 -0.0019453713 -0.0019968672)
(0.13064153 -0.0024842006 -0.0030975578)
(0.13439124 -0.0044902885 -0.0043431331)
(0.13894655 -0.0080990153 -0.0053320215)
(0.14466186 -0.012066065 -0.0053081253)
(0.15075279 -0.013255432 -0.0046657787)
(0.15536454 -0.011928601 -0.004810773)
(0.15711661 -0.011339227 -0.0066031436)
(0.15680189 -0.012359574 -0.0098832663)
(0.15557084 -0.014329698 -0.014084704)
(0.15400434 -0.016701243 -0.01839422)
(0.1522201 -0.019087676 -0.021838633)
(0.15013411 -0.021013678 -0.023620462)
(0.14751463 -0.022380214 -0.023533896)
(0.144345 -0.023720251 -0.021808471)
(0.14209015 -0.023200689 -0.021297747)
(0.14548951 -0.013790157 -0.027545819)
(0.16007207 0.011434507 -0.0392188)
(0.15768307 0.05577961 -0.054902664)
(0.1000366 -0.0027362639 0.00021377301)
(0.099993803 -0.0039813372 0.0004009677)
(0.099741849 -0.0043864576 0.00053048926)
(0.099413275 -0.0044952626 0.00059954498)
(0.099147837 -0.0044830128 0.00061215139)
(0.099006638 -0.0044138291 0.00056461256)
(0.098975621 -0.0043321086 0.00044459564)
(0.099006406 -0.0042708654 0.00023279242)
(0.099046782 -0.0042635124 -9.8427892e-05)
(0.099051101 -0.0043629256 -0.00059327967)
(0.098966841 -0.004670954 -0.0013216187)
(0.098736411 -0.0053994351 -0.0023984428)
(0.098354315 -0.0070027821 -0.0039291059)
(0.09798692 -0.010487052 -0.0059237498)
(0.09805592 -0.017299462 -0.0079780958)
(0.098164439 -0.024850134 -0.0086970372)
(0.097477151 -0.026393987 -0.0081913321)
(0.095583382 -0.021936064 -0.0079669593)
(0.087553021 -0.018651457 -0.010627779)
(0.077801745 -0.018520704 -0.014779203)
(0.069185553 -0.020622745 -0.019454609)
(0.061508266 -0.023816509 -0.023425063)
(0.053534258 -0.027632574 -0.025046742)
(0.046263746 -0.03102418 -0.023349972)
(0.039580896 -0.034403366 -0.017069351)
(0.034149807 -0.039919481 -0.0061903275)
(0.028992477 -0.044947324 -0.0058061545)
(0.033807804 -0.035448771 -0.027851254)
(0.062915179 -0.0057709536 -0.054628035)
(0.085253734 0.043903394 -0.082834576)
(0.097999567 -0.001515841 0.00020850724)
(0.09648938 -0.0022488667 0.00038850342)
(0.094077576 -0.0024907656 0.00051077012)
(0.091201296 -0.0025558203 0.00057263597)
(0.088348705 -0.0025394055 0.00057805008)
(0.085652696 -0.0024641424 0.00052352677)
(0.083083061 -0.0023555811 0.0003966234)
(0.080581995 -0.0022421092 0.00017702139)
(0.078088051 -0.0021523338 -0.00016484089)
(0.075524906 -0.0021226496 -0.00068002497)
(0.072757461 -0.0022207136 -0.0014561746)
(0.069539017 -0.00259924 -0.0026521952)
(0.065405539 -0.0036353226 -0.0045674484)
(0.059396864 -0.0063775141 -0.0078029207)
(0.050304628 -0.013409614 -0.013736491)
(0.033116315 -0.02121256 -0.023025654)
(0.0093035629 -0.017375996 -0.029921703)
(-0.014364909 -0.0016488284 -0.026109793)
(-0.018506918 -0.0022935778 -0.01175401)
(-0.0087601362 -0.004372653 0.015350208)
(-0.0053857892 -0.0017464716 0.032383289)
(0.0036023141 0.00054730081 0.041114259)
(0.010259567 -9.395964e-05 0.04360052)
(0.014796806 -0.0024334885 0.043726735)
(0.015370789 -0.0069547381 0.042371185)
(0.011294477 -0.014707783 0.039225532)
(-0.0077778578 -0.025594764 0.01664145)
(-0.031560618 -0.016814501 -0.028322127)
(-0.036532719 0.015258803 -0.07078214)
(0.035662811 0.055757668 -0.10309608)
(0.10442186 -0.002126002 6.0733834e-05)
(0.11631415 -0.0022861566 0.00010921719)
(0.12713893 -0.0022218854 0.00013798518)
(0.13600821 -0.0018983928 0.00014823928)
(0.14380805 -0.0013735796 0.00014381292)
(0.15095998 -0.00079900089 0.00012725684)
(0.15750247 -0.00026251686 9.9017483e-05)
(0.16342911 0.00021605433 5.7627155e-05)
(0.16877451 0.00064623323 -1.7040367e-06)
(0.17359027 0.0010447739 -8.5642802e-05)
(0.17792172 0.0014236013 -0.00019002527)
(0.18180281 0.001785264 -0.00031779227)
(0.18475719 0.0020879547 -0.00046580979)
(0.18644843 0.0014812689 -0.00067461506)
(0.18862931 0.00051319684 -0.00085567617)
(0.19315983 0.00041689517 -0.00064781198)
(0.19935219 0.0015574024 2.9337663e-06)
(0.20545465 0.0030832218 0.00082438489)
(0.21036028 0.0045602536 0.0017179765)
(0.21460921 0.0060670524 0.0028400376)
(0.2191351 0.0075358125 0.0043878539)
(0.22462025 0.008938914 0.0065725906)
(0.23113633 0.01054843 0.0096390835)
(0.23792235 0.012757683 0.013754672)
(0.24346433 0.015535132 0.018821643)
(0.24580288 0.01887001 0.0242015)
(0.2423749 0.023518819 0.028453288)
(0.22937298 0.03105463 0.029325724)
(0.20250452 0.044370004 0.023820651)
(0.098823105 0.074982481 0.0098559473)
(0.099846383 -0.0034167841 6.148788e-05)
(0.10015897 -0.004260883 0.00011391231)
(0.10145247 -0.0044652912 0.0001459783)
(0.10338635 -0.0042420647 0.00015691643)
(0.10575483 -0.0037567396 0.00014923678)
(0.10844612 -0.0032162463 0.00012333692)
(0.11133799 -0.0027303094 7.6331509e-05)
(0.11432344 -0.0023231866 2.5663627e-06)
(0.11733133 -0.0019909197 -0.00010548131)
(0.12032019 -0.0017399336 -0.00025954111)
(0.1232809 -0.0016165028 -0.00047522918)
(0.12628353 -0.0017422313 -0.00076700005)
(0.12959563 -0.0024330257 -0.0011289473)
(0.13366388 -0.0050577835 -0.0014843938)
(0.13925298 -0.0092804143 -0.0016252286)
(0.14682099 -0.010016737 -0.0010851136)
(0.15448615 -0.0066453679 -0.00027389318)
(0.16005191 -0.0030090833 -0.00013529455)
(0.16428428 -0.00067960685 -0.00063938337)
(0.16810884 0.00022787274 -0.0015434897)
(0.17165408 0.0003553432 -0.0028082976)
(0.17524443 0.00043697014 -0.0042759725)
(0.17967367 0.0014096946 -0.0054146668)
(0.18595775 0.0046116902 -0.0054420474)
(0.19570308 0.011645598 -0.0039302538)
(0.20452312 0.022436124 -0.0013650552)
(0.20923406 0.036376088 0.0009227656)
(0.20519685 0.054531786 0.00035923832)
(0.19036871 0.080123875 -0.0057840159)
(0.12028349 0.12025829 -0.019701434)
(0.10002028 -0.0027358685 6.1563933e-05)
(0.099930168 -0.0039809193 0.00011375293)
(0.099614237 -0.0043842188 0.00014635606)
(0.099221116 -0.0044883875 0.00015801014)
(0.098892425 -0.004468263 0.00015021252)
(0.098681421 -0.0043872077 0.00012200797)
(0.098564491 -0.0042883253 6.8789326e-05)
(0.098484437 -0.0042027763 -1.7307876e-05)
(0.098374718 -0.004160413 -0.00014606565)
(0.098157977 -0.0042175818 -0.00033755827)
(0.097742935 -0.0044957431 -0.00062402833)
(0.097038585 -0.0052703327 -0.0010504196)
(0.096075951 -0.0071926463 -0.0016688291)
(0.095399954 -0.011806855 -0.0025134452)
(0.095643333 -0.021150355 -0.0035701662)
(0.096541188 -0.022937806 -0.0034889344)
(0.099755095 -0.017232101 -0.0012246637)
(0.0971004 -0.011306204 -0.00085609301)
(0.090879582 -0.0063295641 -0.0021020327)
(0.081985179 -0.0042363542 -0.0049593114)
(0.071370225 -0.0060014207 -0.0091725021)
(0.059045873 -0.01037991 -0.013576644)
(0.046334132 -0.014797855 -0.016571746)
(0.037207564 -0.016827517 -0.01648268)
(0.034289503 -0.015365114 -0.01161698)
(0.050551151 -0.0070466791 -0.0050387126)
(0.083703259 0.012411453 -0.0036929757)
(0.10263521 0.039742872 -0.0091334389)
(0.11124431 0.076355775 -0.021728817)
(0.073933887 0.12694993 -0.039348113)
(0.097983414 -0.001515483 5.997172e-05)
(0.096426558 -0.0022481079 0.00010989814)
(0.093951183 -0.0024887161 0.00014003936)
(0.091009252 -0.0025513528 0.00014893172)
(0.088090443 -0.0025314114 0.0001377342)
(0.08531854 -0.0024511908 0.00010503315)
(0.082651037 -0.0023358384 4.5334037e-05)
(0.08001904 -0.0022132807 -5.0626889e-05)
(0.077335561 -0.0021098808 -0.00019459426)
(0.074464446 -0.0020647821 -0.0004150986)
(0.071174857 -0.0021574524 -0.00076346036)
(0.067026436 -0.0025883745 -0.0013334372)
(0.061104836 -0.003926332 -0.0023206929)
(0.051335287 -0.0079864797 -0.0042166033)
(0.036247896 -0.01912868 -0.0085187507)
(-0.0040185176 -0.015459629 -0.016157557)
(-0.039635717 0.0031651888 -0.011999746)
(-0.057911837 0.005837575 -0.0064560718)
(-0.070046328 0.0047399458 -0.0021179781)
(-0.070708403 0.00071355326 0.0035684726)
(-0.063910394 -0.003785251 0.0096849182)
(-0.055071217 -0.0074700444 0.012740897)
(-0.047311653 -0.010946086 0.013163732)
(-0.041570248 -0.014891263 0.012378346)
(-0.037736384 -0.019535649 0.011018691)
(-0.035441749 -0.020432029 0.00830832)
(-0.037311752 -0.0073062557 0.00045171908)
(-0.019071887 0.028144449 -0.010929651)
(0.0070263705 0.071330363 -0.036014151)
(0.053405317 0.11881643 -0.054128536)
(0.10442106 -0.0021260167 -5.8313602e-05)
(0.11631167 -0.0022865151 -0.00010622628)
(0.12713468 -0.0022228167 -0.00013659513)
(0.13600209 -0.0019002391 -0.0001500801)
(0.14379965 -0.0013766937 -0.00015004309)
(0.15094858 -0.00080382542 -0.00013895313)
(0.15748711 -0.00026975745 -0.00011746912)
(0.16340889 0.00020534838 -8.4368027e-05)
(0.1687491 0.00063147271 -3.4649949e-05)
(0.17355852 0.0010250506 3.8860914e-05)
(0.17788343 0.0013996296 0.00013261837)
(0.18175676 0.0017584407 0.0002493633)
(0.18469961 0.0020609763 0.00038506367)
(0.18636685 0.0014537637 0.00058237744)
(0.18849873 0.00047570059 0.0007622232)
(0.19295834 0.00031424557 0.00056811353)
(0.19909991 0.0013774561 -4.1111627e-05)
(0.20518211 0.0028513169 -0.00078042556)
(0.21018849 0.004271288 -0.0015381007)
(0.21462316 0.0056992875 -0.0024415844)
(0.21940968 0.0071411375 -0.0036802443)
(0.22521707 0.00863654 -0.0054873853)
(0.23211129 0.010474342 -0.0081453601)
(0.23932252 0.013006355 -0.011851542)
(0.24528739 0.016179231 -0.016471681)
(0.24789154 0.020095915 -0.021320336)
(0.24436338 0.025454878 -0.025049509)
(0.23078671 0.03351948 -0.025732678)
(0.2029833 0.046841657 -0.020531446)
(0.097934237 0.076570405 -0.0073481881)
(0.099846524 -0.0034167878 -5.4994136e-05)
(0.10015946 -0.0042612899 -0.00010075052)
(0.10145333 -0.0044663944 -0.00012615583)
(0.10338752 -0.0042442577 -0.00012979892)
(0.10575633 -0.0037604122 -0.00011368327)
(0.10844801 -0.0032219102 -7.797637e-05)
(0.11134041 -0.0027387937 -1.9664012e-05)
(0.11432724 -0.0023356721 6.7072135e-05)
(0.11733728 -0.0020074679 0.00018991993)
(0.12032911 -0.0017609326 0.0003620878)
(0.1232964 -0.0016398698 0.00060087994)
(0.1263116 -0.001763579 0.00092412307)
(0.12964265 -0.0024428664 0.0013319329)
(0.13372543 -0.0050405702 0.0017583443)
(0.13929348 -0.0092153729 0.0020066225)
(0.14682922 -0.010147364 0.0016002763)
(0.15450735 -0.0069741197 0.00095037864)
(0.1600967 -0.0034343343 0.00099168836)
(0.16424417 -0.0011608405 0.0016952935)
(0.1679836 -0.00029228047 0.0028093946)
(0.17159948 -0.0001659585 0.0043036016)
(0.17551463 1.0650314e-05 0.0059515421)
(0.18057174 0.0012347923 0.0070975011)
(0.18782803 0.0048919464 0.0069110368)
(0.1988859 0.012734315 0.0051641306)
(0.2087346 0.024590006 0.0026415413)
(0.21364664 0.039770899 0.00059985858)
(0.20856934 0.058879742 0.000927078)
(0.19150802 0.084382438 0.005994898)
(0.11538862 0.12299789 0.018423919)
(0.10002042 -0.0027358716 -5.4831006e-05)
(0.099930731 -0.0039810333 -0.00010011281)
(0.099615451 -0.0043845369 -0.00012548462)
(0.099223158 -0.004488987 -0.00012864131)
(0.098895508 -0.0044692269 -0.00011028048)
(0.098685851 -0.0043886656 -6.9021014e-05)
(0.098570869 -0.0042904203 9.3641738e-08)
(0.098495435 -0.0042053605 0.00010548935)
(0.098392981 -0.004163232 0.00025786586)
(0.09818688 -0.0042196393 0.00048006116)
(0.097792385 -0.0044938336 0.00080805875)
(0.09712791 -0.0052560218 0.0012933641)
(0.096235475 -0.0071431822 0.0019996133)
(0.095654839 -0.011658553 0.0029790204)
(0.095921439 -0.020719477 0.0042335282)
(0.096991935 -0.022908881 0.0044094854)
(0.10026622 -0.017452791 0.0023951717)
(0.097669394 -0.011751291 0.0022593831)
(0.091732769 -0.0070782489 0.0038684592)
(0.083259315 -0.0051781338 0.0071064757)
(0.073312998 -0.006964028 0.011560083)
(0.062106128 -0.01120575 0.015829844)
(0.050697662 -0.015537586 0.017918092)
(0.043028592 -0.017833218 0.016199625)
(0.040487116 -0.016491682 0.0097223911)
(0.060540357 -0.0059348656 0.003374236)
(0.092595526 0.015769172 0.0028318885)
(0.10895243 0.044359234 0.0072694109)
(0.11304739 0.081271513 0.017084174)
(0.065084412 0.12986988 0.032167443)
(0.097983522 -0.001515482 -5.3385171e-05)
(0.096427036 -0.0022481302 -9.66346e-05)
(0.093952273 -0.0024887933 -0.00011984144)
(0.091011167 -0.0025515192 -0.00012053881)
(0.088093455 -0.0025317208 -9.9043642e-05)
(0.085323144 -0.0024517113 -5.3467124e-05)
(0.082658511 -0.0023365975 2.2121376e-05)
(0.080032212 -0.0022139474 0.00013769252)
(0.077357888 -0.0021108546 0.00030644001)
(0.074502627 -0.0020656805 0.00056043554)
(0.071247135 -0.0021567874 0.00095656025)
(0.067174853 -0.0025814229 0.0015995947)
(0.061424497 -0.0038983125 0.0027068586)
(0.052044981 -0.0078765477 0.0048118988)
(0.037350026 -0.01868964 0.0095112284)
(5.7237295e-05 -0.016234486 0.01814395)
(-0.035155345 0.0022698693 0.0148186)
(-0.05275483 0.0048945482 0.0094413434)
(-0.065016185 0.0039551252 0.005472079)
(-0.065915878 0.00020911565 -0.00032926876)
(-0.058168147 -0.0040982344 -0.0079897217)
(-0.048730818 -0.0075060741 -0.013288612)
(-0.040726531 -0.010833098 -0.016721356)
(-0.035272916 -0.014844348 -0.019258432)
(-0.032774933 -0.019502621 -0.020434659)
(-0.03264731 -0.019269038 -0.01791535)
(-0.03523922 -0.0020881129 -0.007978068)
(-0.016324149 0.037594667 0.0025809534)
(0.00028028511 0.078914667 0.024813707)
(0.030801795 0.12504633 0.042403259)
(0.10443519 -0.0021229372 -0.00020826276)
(0.11636193 -0.0022817904 -0.00038146859)
(0.12722754 -0.0022178113 -0.00049721955)
(0.13613035 -0.0018970086 -0.00055933712)
(0.14395267 -0.0013781427 -0.00057741161)
(0.15111848 -0.00081277004 -0.00055646811)
(0.15767026 -0.00028820168 -0.00049813757)
(0.16360848 0.00017649128 -0.00041158679)
(0.16897331 0.00058729502 -0.0003035359)