/*--------------------------------*- C++ -*----------------------------------*\
| =========                 |                                                 |
| \\      /  F ield         | OpenFOAM: The Open Source CFD Toolbox           |
|  \\    /   O peration     | Version:  v2012                                 |
|   \\  /    A nd           | Website:  www.openfoam.com                      |
|    \\/     M anipulation  |                                                 |
\*---------------------------------------------------------------------------*/
FoamFile
{
    version     2.0;
    format      ascii;
    class       volScalarField;
    location    "190/heater";
    object      T;
}
// * * * * * * * * * * * * * * * * * * * * * * * * * * * * * * * * * * * * * //

dimensions      [0 0 0 1 0 0 0];


internalField   nonuniform List<scalar> 
80
(
663.61332
665.19536
668.32432
672.77664
656.19794
658.06281
661.7835
667.11339
640.56284
642.98913
647.93274
655.23522
614.99501
618.09397
624.78766
635.58577
341.79352
338.92382
338.99358
341.96115
410.25158
406.6708
406.9249
410.87968
467.12012
463.94469
464.58585
468.68106
513.88197
511.60307
513.16703
517.75118
550.97036
550.33067
554.0016
560.83785
577.46832
580.13004
587.58663
602.86013
341.81371
338.9332
338.97991
341.94236
410.3062
406.70992
406.93836
410.88021
467.22675
464.01631
464.62849
468.70737
514.04563
511.7026
513.23159
517.82588
551.16979
550.44992
554.09079
560.94439
577.67218
580.30459
587.73916
603.00773
615.61495
618.64672
625.28005
636.04841
641.41295
643.80642
648.67261
655.85065
657.10597
658.92171
662.52646
667.71223
664.50265
666.03028
669.03577
673.34779
)
;

boundaryField
{
    minY
    {
        type            fixedValue;
        value           uniform 300;
    }
    minZ
    {
        type            zeroGradient;
    }
    maxZ
    {
        type            zeroGradient;
    }
    heater_to_topAir
    {
        type            compressible::turbulentTemperatureCoupledBaffleMixed;
        refValue        nonuniform List<scalar> 
40
(
460.76008
462.08882
461.8651
460.20603
438.41752
434.96795
430.42764
425.51573
447.04161
445.12555
440.98375
434.53193
458.21115
460.57882
461.80102
461.27209
457.79753
459.34781
459.85967
459.47543
457.82228
459.23109
459.51435
459.07506
458.24581
460.53507
461.58496
460.86115
447.14398
445.21464
441.00956
434.43389
438.56456
435.12457
430.5687
425.60128
460.92135
462.25987
462.03257
460.35112
)
;
        refGradient     uniform 0;
        valueFraction   nonuniform List<scalar> 
40
(
0.00032132529
0.00032132529
0.00032132529
0.00032132529
0.00032132529
0.00032132529
0.00032132529
0.00032132529
0.00032132529
0.00032132529
0.00032132529
0.00032132529
0.00032132529
0.00032132529
0.00032132529
0.00032132529
0.00032132529
0.00032132529
0.00032132529
0.00032132529
0.00032132529
0.00032132529
0.00032132529
0.00032132529
0.00032132529
0.00032132529
0.00032132529
0.00032132529
0.00032132529
0.00032132529
0.00032132529
0.00032132529
0.00032132529
0.00032132529
0.00032132529
0.00032132529
0.00032132529
0.00032132529
0.00032132529
0.00032132529
)
;
        value           nonuniform List<scalar> 
40
(
663.53966
665.12155
668.24928
672.69945
656.11977
657.98286
661.70073
667.02711
640.49301
642.91782
647.85827
655.15604
614.93778
618.03636
624.72805
635.52213
577.42407
580.08534
587.53945
602.80745
577.62803
580.2599
587.69189
602.95492
615.55789
618.58917
625.22037
635.9846
641.34306
643.73498
648.59802
655.77134
657.02762
658.84159
662.44356
667.62585
664.42879
665.95631
668.96066
673.27057
)
;
        Tnbr            T;
        thicknessLayers List<scalar> 0();
        kappaLayers     List<scalar> 0();
        kappaMethod     solidThermo;
        kappa           none;
        alphaAni        none;
        alpha           none;
        field           T;
    }
    heater_to_rightSolid
    {
        type            compressible::turbulentTemperatureCoupledBaffleMixed;
        refValue        nonuniform List<scalar> 10(678.19748 673.59648 664.26899 650.29244 633.88871 634.04334 650.7219 664.78023 674.06828 678.64232);
        refGradient     uniform 0;
        valueFraction   nonuniform List<scalar> 10(0.49999997 0.49999997 0.49999997 0.49999997 0.49999997 0.49999997 0.49999997 0.49999997 0.49999997 0.49999997);
        value           nonuniform List<scalar> 10(675.48261 670.35061 659.74797 642.93529 618.37111 618.52225 643.3814 660.31135 670.88596 675.99067);
        Tnbr            T;
        thicknessLayers List<scalar> 0();
        kappaLayers     List<scalar> 0();
        kappaMethod     solidThermo;
        kappa           none;
        alphaAni        none;
        alpha           none;
        field           T;
    }
    heater_to_leftSolid
    {
        type            compressible::turbulentTemperatureCoupledBaffleMixed;
        refValue        nonuniform List<scalar> 10(739.43425 739.33949 739.20775 739.08607 739.12274 739.41455 739.74375 739.99695 740.18362 740.27168);
        refGradient     uniform 0;
        valueFraction   nonuniform List<scalar> 10(2.0832898e-05 2.0832898e-05 2.0832898e-05 2.0832898e-05 2.0832898e-05 2.0832898e-05 2.0832898e-05 2.0832898e-05 2.0832898e-05 2.0832898e-05);
        value           nonuniform List<scalar> 10(663.60642 656.19148 640.55724 614.99074 577.46588 577.66991 615.61104 641.40754 657.09958 664.49578);
        Tnbr            T;
        thicknessLayers List<scalar> 1(0.001);
        kappaLayers     List<scalar> 1(0.0005);
        kappaMethod     solidThermo;
        kappa           none;
        alphaAni        none;
        alpha           none;
        field           T;
    }
    heater_to_bottomWater
    {
        type            compressible::turbulentTemperatureCoupledBaffleMixed;
        refValue        nonuniform List<scalar> 
92
(
973.64252
968.06708
969.86704
974.4631
969.41231
962.01736
965.50962
971.95132
963.03505
954.00804
955.83338
963.82359
969.03068
961.4784
964.79063
969.39632
964.43997
958.18138
960.43084
963.12697
962.81985
954.52002
957.7025
962.55964
957.56566
954.17455
959.82027
961.34534
944.75954
944.75954
950.34717
950.34717
954.46694
954.46694
949.08098
949.08098
958.3119
960.3943
952.87222
960.97849
950.80391
956.48754
953.3142
944.57263
959.10665
946.24676
962.00011
966.47715
963.90519
954.73719
964.55188
949.93561
956.23122
964.74568
965.24438
960.30858
961.87633
956.92883
959.47429
961.9188
963.45425
962.22892
957.53891
956.75058
965.33732
958.34863
961.98201
960.60125
951.21507
957.15361
969.32235
953.82307
951.11254
953.45394
950.09262
955.12222
953.82307
951.11254
953.45394
955.12222
971.39559
966.83237
969.79475
968.20373
977.25964
971.11981
969.34202
970.37385
978.54047
973.6705
969.32051
970.60713
)
;
        refGradient     uniform 0;
        valueFraction   nonuniform List<scalar> 
92
(
0.0075140686
0.0075140686
0.0075140686
0.0075140686
0.0075140686
0.0075140686
0.0075140686
0.0075140686
0.0075140686
0.0075140686
0.0075140686
0.0075140686
0.0075140686
0.0075140686
0.0075140686
0.0075140686
0.0075140686
0.0075140686
0.0075140686
0.0075140686
0.0075140686
0.0075140686
0.0075140686
0.0075140686
0.0075140686
0.0075140686
0.0075140686
0.0075140686
0.0075140686
0.0075140686
0.0075140686
0.0075140686
0.0075140686
0.0075140686
0.0075140686
0.0075140686
0.0075140679
0.0075140679
0.0075140679
0.0075140679
0.0075140679
0.0075140679
0.0075140679
0.0075140679
0.0075140679
0.0075140679
0.0075140679
0.0075140686
0.0075140686
0.0075140686
0.0075140679
0.0075140686
0.0075140679
0.0075140686
0.0075140686
0.0075140686
0.0075140679
0.0075140686
0.0075140679
0.0075140686
0.0075140686
0.0075140686
0.0075140679
0.0075140686
0.0075140679
0.0075140686
0.0075140686
0.0075140686
0.0075140679
0.0075140686
0.0075140679
0.0075140686
0.0075140686
0.0075140686
0.0075140679
0.0075140686
0.0075140686
0.0075140686
0.0075140686
0.0075140686
0.0075140686
0.0075140686
0.0075140686
0.0075140686
0.0075140686
0.0075140686
0.0075140686
0.0075140686
0.0075140686
0.0075140686
0.0075140686
0.0075140686
)
;
        value           nonuniform List<scalar> 
92
(
665.93448
667.46267
670.5815
675.03471
658.54332
660.33854
664.05735
669.39537
642.97832
645.31847
650.23841
657.54577
346.50611
343.60122
343.69534
346.67522
414.41431
410.81334
411.08239
415.02766
470.8423
467.62828
468.28846
472.38926
517.21207
514.92482
516.51938
521.08044
617.46608
553.92429
620.5836
553.33152
627.25771
557.00576
637.93382
563.75011
346.42556
346.60758
414.32739
415.01151
470.75201
472.34364
517.18012
520.95441
554.03209
563.72881
346.47329
346.50693
343.62875
343.60623
346.6202
346.51037
414.40685
414.47083
410.90522
411.09483
415.01885
414.98168
470.92301
470.94138
467.76651
468.36479
472.37774
472.37182
517.43314
517.38063
515.08235
516.58936
521.07857
521.12319
554.30719
554.19072
553.45579
557.08674
563.86351
563.9013
618.14982
621.13819
627.73894
638.43849
643.88505
646.22609
651.07774
658.18958
659.50356
661.25944
664.82359
669.97793
666.85397
668.33347
671.2836
675.57271
)
;
        Tnbr            T;
        thicknessLayers List<scalar> 0();
        kappaLayers     List<scalar> 0();
        kappaMethod     solidThermo;
        kappa           none;
        alphaAni        none;
        alpha           none;
        field           T;
    }
}


// ************************************************************************* //
