/*--------------------------------*- C++ -*----------------------------------*\
| =========                 |                                                 |
| \\      /  F ield         | OpenFOAM: The Open Source CFD Toolbox           |
|  \\    /   O peration     | Version:  v2012                                 |
|   \\  /    A nd           | Website:  www.openfoam.com                      |
|    \\/     M anipulation  |                                                 |
\*---------------------------------------------------------------------------*/
FoamFile
{
    version     2.0;
    format      ascii;
    class       volScalarField;
    location    "80/bottomWater";
    object      p;
}
// * * * * * * * * * * * * * * * * * * * * * * * * * * * * * * * * * * * * * //

dimensions      [1 -1 -2 0 0 0 0];


internalField   nonuniform List<scalar> 
1460
(
353.39599
353.3898
353.39842
353.4035
353.40655
353.4053
353.40804
353.40026
353.40406
353.40238
353.40008
353.40076
353.40535
353.40361
353.40798
353.40822
353.40276
353.40689
353.40144
353.40022
353.40244
353.40358
353.39924
353.40772
353.40509
353.40643
353.40339
353.3983
353.38976
353.39595
274.47997
274.48175
274.50854
274.52194
274.52377
274.52876
274.51819
274.4906
274.50312
274.50345
274.46073
274.48993
274.50844
274.48779
274.52981
274.53043
274.4888
274.51273
274.48888
274.46123
274.50533
274.50328
274.48859
274.51808
274.52924
274.52391
274.52212
274.50864
274.48181
274.4802
196.26568
196.24924
196.22785
196.25735
196.25081
196.26042
196.25286
196.2751
196.2502
196.25606
196.2512
196.25963
196.25197
196.27164
196.25192
196.25073
196.27343
196.24698
196.25852
196.25009
196.25462
196.25055
196.27775
196.25291
196.26052
196.2508
196.25748
196.22811
196.24968
196.26623
117.69786
117.65717
117.6715
117.68305
117.70223
117.68858
117.69786
117.68046
117.67936
117.65519
117.69204
117.64838
117.67174
117.67136
117.70605
117.70734
117.67244
117.67404
117.64917
117.69177
117.65584
117.67958
117.68011
117.69806
117.68876
117.70246
117.68315
117.67163
117.65754
117.69818
39.245465
39.250935
39.246128
39.227872
39.232779
39.235446
39.230373
39.232729
39.238743
39.253481
39.250703
39.247937
39.247095
39.217619
39.231877
39.232137
39.218442
39.245484
39.248186
39.250128
39.252948
39.238516
39.232999
39.230398
39.235704
39.233022
39.228241
39.246765
39.251447
39.246045
353.39931
353.3997
353.39887
353.3988
353.40305
353.41393
353.40786
353.40535
353.40371
353.40647
353.40569
353.40025
353.41603
353.4145
353.40657
353.40607
353.41377
353.4151
353.3992
353.40516
353.40572
353.40319
353.40479
353.40759
353.41377
353.40282
353.39886
353.39883
353.39965
353.39925
274.46529
274.45834
274.46376
274.47414
274.47505
274.50377
274.48401
274.46139
274.47486
274.4594
274.45529
274.46358
274.51935
274.54183
274.51468
274.51365
274.53952
274.51654
274.46341
274.45644
274.46013
274.47541
274.46169
274.48446
274.50394
274.47466
274.47477
274.46384
274.45847
274.46545
196.28716
196.2718
196.25024
196.26412
196.25755
196.2353
196.2476
196.26347
196.26943
196.27992
196.26419
196.23834
196.22906
196.23326
196.25111
196.25168
196.23014
196.22831
196.23819
196.26415
196.27925
196.26964
196.26346
196.24745
196.23531
196.25798
196.26408
196.25071
196.27233
196.28753
117.68674
117.68807
117.68112
117.66678
117.65769
117.66386
117.64064
117.68216
117.63605
117.68498
117.68627
117.63848
117.67016
117.64749
117.68089
117.68161
117.64737
117.67042
117.63957
117.68636
117.68459
117.63634
117.6829
117.64109
117.66432
117.65793
117.66717
117.68154
117.68855
117.68718
39.251563
39.251626
39.24396
39.231745
39.231358
39.240591
39.247688
39.241446
39.260844
39.254377
39.256542
39.24997
39.2539
39.238323
39.226908
39.227809
39.240467
39.253979
39.250599
39.256387
39.254189
39.260991
39.241566
39.24778
39.240877
39.231847
39.23218
39.244514
39.252212
39.252152
353.39395
353.39349
353.39646
353.39835
353.3995
353.40367
353.40172
353.40137
353.40077
353.40553
353.40622
353.3989
353.39689
353.40298
353.38851
353.39011
353.39642
353.39309
353.39667
353.40483
353.4042
353.40006
353.40058
353.4014
353.40354
353.39949
353.39849
353.39624
353.39347
353.39394
274.48407
274.47871
274.48104
274.46819
274.45219
274.45416
274.45917
274.46938
274.45724
274.4565
274.4564
274.45872
274.46849
274.49526
274.48124
274.48148
274.49034
274.4702
274.45995
274.45712
274.45763
274.45789
274.47127
274.45984
274.45481
274.45268
274.46919
274.48068
274.47905
274.48476
196.27644
196.27156
196.27429
196.27763
196.28363
196.2939
196.27601
196.28724
196.27789
196.29325
196.29393
196.26563
196.2547
196.22263
196.26483
196.26348
196.23322
196.25738
196.26862
196.29511
196.29384
196.278
196.28732
196.27622
196.29431
196.28347
196.27701
196.2749
196.27168
196.27659
117.65274
117.63362
117.66342
117.66939
117.68607
117.68458
117.6971
117.67567
117.69292
117.69865
117.70133
117.67598
117.65709
117.65325
117.67434
117.6757
117.6528
117.65717
117.67637
117.70117
117.69819
117.69226
117.67399
117.69652
117.68534
117.68662
117.66922
117.66406
117.63422
117.65317
39.259607
39.271334
39.233212
39.249172
39.249278
39.254883
39.254778
39.260289
39.262533
39.269938
39.26896
39.256017
39.257139
39.249051
39.236463
39.237096
39.249771
39.25868
39.256982
39.269287
39.27012
39.262977
39.26149
39.254956
39.255507
39.250109
39.249945
39.23435
39.272343
39.260935
353.3952
353.40985
353.41192
353.39834
353.40637
353.40802
353.39711
353.40399
353.39543
353.39732
353.39775
353.39707
353.39859
353.39217
353.39621
353.39734
353.39341
353.39946
353.39676
353.39739
353.39704
353.3956
353.40417
353.39709
353.40806
353.40669
353.39988
353.41242
353.40997
353.39521
274.48586
274.51281
274.50674
274.45909
274.45852
274.46192
274.47131
274.48643
274.47728
274.47121
274.4664
274.46435
274.46657
274.47563
274.47256
274.47177
274.47044
274.4661
274.46447
274.46615
274.47108
274.47816
274.48768
274.47102
274.46178
274.45969
274.46709
274.50821
274.51327
274.4863
196.26349
196.23677
196.21881
196.24554
196.27236
196.2769
196.25834
196.25625
196.26554
196.26487
196.26916
196.27768
196.28495
196.26273
196.2842
196.28885
196.27046
196.2857
196.27936
196.26931
196.26411
196.26467
196.25544
196.25891
196.27652
196.2707
196.2365
196.21751
196.2375
196.26435
117.67539
117.65645
117.65632
117.6308
117.68506
117.684
117.65786
117.66643
117.6391
117.64509
117.64601
117.67206
117.69132
117.6512
117.68681
117.69174
117.66597
117.68968
117.67525
117.6486
117.6464
117.64028
117.6678
117.65891
117.6848
117.68586
117.63018
117.65694
117.65755
117.67677
39.234769
39.242837
39.252332
39.255021
39.258562
39.252258
39.245224
39.240201
39.25385
39.268378
39.251729
39.244004
39.247319
39.246584
39.235904
39.236052
39.241574
39.24657
39.244766
39.251974
39.268398
39.255013
39.241228
39.245756
39.253449
39.260307
39.257092
39.254313
39.244406
39.236341
353.41036
353.40949
353.41201
353.40751
353.41139
353.4085
353.40956
353.4139
353.41338
353.41692
353.40901
353.39516
353.4039
353.40261
353.3939
353.40757
353.4157
353.41267
353.41344
353.40934
353.40827
353.41047
353.405
353.41066
353.40931
353.4104
274.52534
274.5171
274.506
274.48394
274.46592
274.4738
274.49867
274.53127
274.52792
274.54042
274.50174
274.47121
274.4766
274.4775
274.47225
274.50189
274.54075
274.52881
274.53195
274.49881
274.47328
274.46308
274.4716
274.50401
274.51714
274.52575
196.25167
196.2638
196.24697
196.25645
196.27039
196.27111
196.2356
196.26006
196.25409
196.24078
196.24425
196.26711
196.28121
196.2808
196.26692
196.24415
196.24055
196.25456
196.26048
196.23667
196.27171
196.27174
196.25972
196.24859
196.26478
196.25264
117.70025
117.66007
117.65188
117.61721
117.67512
117.67656
117.66686
117.68954
117.69002
117.6642
117.67911
117.67986
117.69795
117.69749
117.68004
117.67964
117.66477
117.69038
117.69007
117.66857
117.67834
117.68049
117.63102
117.65709
117.66285
117.7022
39.235445
39.219881
39.233143
39.249943
39.253115
39.250936
39.246155
39.237715
39.241094
39.25117
39.236965
39.235887
39.241271
39.241362
39.236412
39.237254
39.251416
39.241777
39.238722
39.247399
39.253348
39.25738
39.256008
39.237533
39.222892
39.237769
353.41033
353.40949
353.41211
353.40747
353.41133
353.40846
353.40941
353.41373
353.41307
353.41664
353.40858
353.39488
353.40352
353.403
353.39426
353.40805
353.41604
353.41299
353.41361
353.40949
353.40838
353.41089
353.40624
353.41126
353.40943
353.41048
274.52547
274.51727
274.5059
274.48488
274.46616
274.47388
274.49858
274.53129
274.52799
274.54038
274.5016
274.47151
274.47679
274.47717
274.47192
274.50194
274.54075
274.52864
274.53182
274.4989
274.47361
274.46447
274.47842
274.5052
274.51721
274.52576
196.25173
196.26375
196.24751
196.2571
196.27066
196.2713
196.23564
196.26001
196.25407
196.24081
196.24437
196.267
196.28104
196.28091
196.26698
196.24407
196.2405
196.25452
196.26044
196.23669
196.27173
196.27179
196.25864
196.24818
196.26504
196.25268
117.70022
117.66023
117.65167
117.61572
117.67498
117.67673
117.66706
117.6896
117.6898
117.66428
117.67911
117.67987
117.69783
117.69766
117.68006
117.67971
117.66474
117.69059
117.6901
117.66849
117.67806
117.67919
117.62498
117.65581
117.66239
117.70217
39.235508
39.220007
39.232974
39.249719
39.252993
39.250855
39.246135
39.237664
39.241173
39.251179
39.2369
39.236034
39.241386
39.241377
39.23634
39.237331
39.251448
39.241746
39.238744
39.247389
39.253242
39.25682
39.254564
39.236988
39.22254
39.237649
353.39517
353.40975
353.41169
353.39757
353.40605
353.40796
353.39717
353.40397
353.39548
353.3973
353.39775
353.39709
353.3991
353.3927
353.39663
353.39714
353.39294
353.39917
353.39675
353.39748
353.39711
353.39558
353.40417
353.39714
353.40804
353.4064
353.39858
353.41204
353.41
353.39528
274.4861
274.51274
274.50619
274.4557
274.45802
274.4619
274.47113
274.48656
274.47746
274.47115
274.4663
274.46427
274.46638
274.47365
274.4722
274.47216
274.47199
274.46644
274.46446
274.46619
274.47108
274.47789
274.48744
274.47127
274.462
274.45878
274.46054
274.50721
274.51328
274.48641
196.26375
196.23749
196.21985
196.24972
196.27335
196.2773
196.25879
196.25628
196.26539
196.26478
196.2693
196.2783
196.28557
196.26613
196.28685
196.2883
196.2685
196.28559
196.27886
196.26933
196.26432
196.265
196.25578
196.259
196.27718
196.27286
196.24471
196.21942
196.23751
196.26432
117.67564
117.65691
117.65693
117.63186
117.68571
117.68437
117.65814
117.6667
117.6393
117.64529
117.64661
117.67295
117.69127
117.65619
117.68906
117.69076
117.66193
117.69021
117.67414
117.64783
117.64601
117.64001
117.6675
117.65891
117.68505
117.6867
117.63246
117.65786
117.65777
117.67681
39.235078
39.242919
39.252753
39.255653
39.258901
39.252545
39.245233
39.240454
39.254217
39.268392
39.2518
39.244267
39.247323
39.245014
39.236611
39.236521
39.242927
39.24682
39.244496
39.251897
39.268447
39.254756
39.241063
39.245952
39.253569
39.260613
39.257335
39.254503
39.244721
39.236355
353.39394
353.39345
353.39638
353.39819
353.39935
353.40356
353.40166
353.40117
353.40058
353.40524
353.40589
353.39836
353.39597
353.40058
353.38855
353.38982
353.39894
353.3946
353.39748
353.40529
353.4046
353.4003
353.40082
353.40154
353.40357
353.39948
353.39837
353.39646
353.39357
353.39401
274.48451
274.47887
274.48122
274.46814
274.45221
274.45419
274.45922
274.46952
274.45731
274.45667
274.45653
274.45893
274.46848
274.49259
274.47896
274.48231
274.49258
274.46973
274.4595
274.45676
274.45714
274.45757
274.47068
274.45959
274.45454
274.45247
274.46869
274.48163
274.47916
274.48474
196.27656
196.27185
196.27453
196.27831
196.28395
196.29409
196.27602
196.28723
196.27781
196.29334
196.29422
196.26639
196.25574
196.22639
196.26861
196.26372
196.22924
196.25638
196.26718
196.29465
196.29345
196.27791
196.28718
196.27626
196.29435
196.28407
196.27784
196.2745
196.27189
196.27682
117.65232
117.63349
117.66354
117.6698
117.68648
117.685
117.69703
117.67568
117.69286
117.69868
117.70135
117.67644
117.6578
117.65453
117.67598
117.67581
117.65373
117.65748
117.67641
117.70129
117.69831
117.69249
117.67451
117.69689
117.68533
117.687
117.66952
117.66411
117.63447
117.65336
39.26016
39.271428
39.233459
39.249412
39.249566
39.255086
39.254832
39.260388
39.26261
39.27
39.26907
39.256466
39.257959
39.249686
39.237142
39.237226
39.249643
39.258302
39.256692
39.269214
39.270045
39.262886
39.2612
39.255137
39.255684
39.250517
39.250862
39.234551
39.272578
39.260907
353.39923
353.39964
353.39883
353.39877
353.40288
353.4138
353.4078
353.40521
353.40353
353.4063
353.40555
353.4
353.41578
353.41416
353.40611
353.40604
353.41397
353.41537
353.39951
353.40531
353.40597
353.4033
353.40498
353.40775
353.41385
353.40288
353.39885
353.3989
353.39973
353.39933
274.46536
274.45846
274.46388
274.47445
274.4748
274.50382
274.48441
274.46146
274.47487
274.45935
274.45546
274.46341
274.51876
274.5414
274.51409
274.51387
274.54064
274.51746
274.46319
274.45559
274.45915
274.47478
274.4614
274.48444
274.5039
274.47455
274.47445
274.46393
274.45853
274.46548
196.28721
196.272
196.25049
196.26419
196.25785
196.23543
196.24739
196.26331
196.26919
196.27948
196.26397
196.23818
196.22889
196.23255
196.25212
196.25194
196.2312
196.22842
196.23781
196.26364
196.27886
196.26913
196.26304
196.24724
196.2353
196.25811
196.26445
196.25085
196.27233
196.28762
117.68681
117.68817
117.68115
117.66695
117.65781
117.66386
117.64071
117.68207
117.63606
117.6848
117.68636
117.63902
117.67062
117.64797
117.68162
117.68168
117.64762
117.67036
117.63893
117.68618
117.68445
117.63627
117.68216
117.64105
117.66427
117.65807
117.66733
117.68177
117.68868
117.68733
39.25174
39.251814
39.244223
39.231971
39.23154
39.240652
39.247709
39.241534
39.260805
39.254289
39.256487
39.250193
39.254138
39.239245
39.227625
39.227862
39.239866
39.253994
39.250271
39.256293
39.254076
39.260756
39.241418
39.247746
39.240923
39.23202
39.232416
39.244636
39.25234
39.252272
353.39596
353.38977
353.39837
353.40344
353.40647
353.40521
353.4079
353.4001
353.40387
353.40325
353.40034
353.40132
353.40603
353.40344
353.40797
353.40807
353.40306
353.4065
353.40131
353.40034
353.40456
353.4036
353.39965
353.40784
353.40517
353.40653
353.40348
353.3984
353.38982
353.39602
274.48009
274.48183
274.50861
274.52201
274.52377
274.52884
274.51826
274.49047
274.50277
274.5023
274.46019
274.4889
274.50918
274.48793
274.52984
274.53014
274.48833
274.51125
274.48843
274.45958
274.50033
274.50219
274.48948
274.51814
274.52896
274.52379
274.52207
274.50867
274.48187
274.4802
196.26584
196.24942
196.22798
196.25741
196.25078
196.26045
196.25272
196.27497
196.24989
196.25505
196.25046
196.25909
196.25037
196.27195
196.25148
196.25096
196.27248
196.24807
196.25827
196.24929
196.2534
196.24947
196.27579
196.25269
196.26056
196.25089
196.25757
196.22822
196.2497
196.26623
117.69794
117.65721
117.67149
117.68309
117.7023
117.68875
117.69782
117.68046
117.6793
117.6552
117.69191
117.64887
117.67267
117.67194
117.70664
117.70704
117.67225
117.67337
117.64904
117.69147
117.655
117.67902
117.67999
117.69796
117.68881
117.70254
117.68334
117.67191
117.65768
117.69831
39.245641
39.251103
39.246277
39.22797
39.232882
39.235474
39.23039
39.232704
39.238535
39.253212
39.250364
39.247857
39.246597
39.217995
39.232144
39.23217
39.218234
39.245896
39.247951
39.249971
39.252749
39.238285
39.232622
39.230314
39.235644
39.233111
39.22836
39.246797
39.251521
39.246107
)
;

boundaryField
{
    minX
    {
        type            calculated;
        value           nonuniform List<scalar> 
50
(
353.39599
274.47997
196.26568
117.69786
39.245465
353.39931
274.46529
196.28716
117.68674
39.251563
353.39395
274.48407
196.27644
117.65274
39.259607
353.3952
274.48586
196.26349
117.67539
39.234769
353.41036
274.52534
196.25167
117.70025
39.235445
353.41033
274.52547
196.25173
117.70022
39.235508
353.39517
274.4861
196.26375
117.67564
39.235078
353.39394
274.48451
196.27656
117.65232
39.26016
353.39923
274.46536
196.28721
117.68681
39.25174
353.39596
274.48009
196.26584
117.69794
39.245641
)
;
    }
    maxX
    {
        type            calculated;
        value           nonuniform List<scalar> 
50
(
353.39595
274.4802
196.26623
117.69818
39.246045
353.39925
274.46545
196.28753
117.68718
39.252152
353.39394
274.48476
196.27659
117.65317
39.260935
353.39521
274.4863
196.26435
117.67677
39.236341
353.4104
274.52575
196.25264
117.7022
39.237769
353.41048
274.52576
196.25268
117.70217
39.237649
353.39528
274.48641
196.26432
117.67681
39.236355
353.39401
274.48474
196.27682
117.65336
39.260907
353.39933
274.46548
196.28762
117.68733
39.252272
353.39602
274.4802
196.26623
117.69831
39.246107
)
;
    }
    minY
    {
        type            calculated;
        value           nonuniform List<scalar> 
292
(
392.4
392.4
392.4
392.4
392.4
392.4
392.4
392.4
392.4
392.4
392.4
392.4
392.4
392.4
392.4
392.4
392.4
392.4
392.4
392.4
392.4
392.4
392.4
392.4
392.4
392.4
392.4
392.4
392.4
392.4
392.4
392.4
392.4
392.4
392.4
392.4
392.4
392.4
392.4
392.4
392.4
392.4
392.4
392.4
392.4
392.4
392.4
392.4
392.4
392.4
392.4
392.4
392.4
392.4
392.4
392.4
392.4
392.4
392.4
392.4
392.4
392.4
392.4
392.4
392.4
392.4
392.4
392.4
392.4
392.4
392.4
392.4
392.4
392.4
392.4
392.4
392.4
392.4
392.4
392.4
392.4
392.4
392.4
392.4
392.4
392.4
392.4
392.4
392.4
392.4
392.4
392.4
392.4
392.4
392.4
392.4
392.4
392.4
392.4
392.4
392.4
392.4
392.4
392.4
392.4
392.4
392.4
392.4
392.4
392.4
392.4
392.4
392.4
392.4
392.4
392.4
392.4
392.4
392.4
392.4
392.4
392.4
392.4
392.4
392.4
392.4
392.4
392.4
392.4
392.4
392.4
392.4
392.4
392.4
392.4
392.4
392.4
392.4
392.4
392.4
392.4
392.4
392.4
392.4
392.4
392.4
392.4
392.4
392.4
392.4
392.4
392.4
392.4
392.4
392.4
392.4
392.4
392.4
392.4
392.4
392.4
392.4
392.4
392.4
392.4
392.4
392.4
392.4
392.4
392.4
392.4
392.4
392.4
392.4
392.4
392.4
392.4
392.4
392.4
392.4
392.4
392.4
392.4
392.4
392.4
392.4
392.4
392.4
392.4
392.4
392.4
392.4
392.4
392.4
392.4
392.4
392.4
392.4
392.4
392.4
392.4
392.4
392.4
392.4
392.4
392.4
392.4
392.4
392.4
392.4
392.4
392.4
392.4
392.4
392.4
392.4
392.4
392.4
392.4
392.4
392.4
392.4
392.4
392.4
392.4
392.4
392.4
392.4
392.4
392.4
392.4
392.4
392.4
392.4
392.4
392.4
392.4
392.4
392.4
392.4
392.4
392.4
392.4
392.4
392.4
392.4
392.4
392.4
392.4
392.4
392.4
392.4
392.4
392.4
392.4
392.4
392.4
392.4
392.4
392.4
392.4
392.4
392.4
392.4
392.4
392.4
392.4
392.4
392.4
392.4
392.4
392.4
392.4
392.4
392.4
392.4
392.4
392.4
392.4
392.4
392.4
392.4
392.4
392.4
392.4
392.4
392.4
392.4
392.4
392.4
392.4
392.4
)
;
    }
    minZ
    {
        type            calculated;
        value           nonuniform List<scalar> 
150
(
353.39599
274.47997
196.26568
117.69786
39.245465
353.3898
274.48175
196.24924
117.65717
39.250935
353.39842
274.50854
196.22785
117.6715
39.246128
353.4035
274.52194
196.25735
117.68305
39.227872
353.40655
274.52377
196.25081
117.70223
39.232779
353.4053
274.52876
196.26042
117.68858
39.235446
353.40804
274.51819
196.25286
117.69786
39.230373
353.40026
274.4906
196.2751
117.68046
39.232729
353.40406
274.50312
196.2502
117.67936
39.238743
353.40238
274.50345
196.25606
117.65519
39.253481
353.40008
274.46073
196.2512
117.69204
39.250703
353.40076
274.48993
196.25963
117.64838
39.247937
353.40535
274.50844
196.25197
117.67174
39.247095
353.40361
274.48779
196.27164
117.67136
39.217619
353.40798
274.52981
196.25192
117.70605
39.231877
353.40822
274.53043
196.25073
117.70734
39.232137
353.40276
274.4888
196.27343
117.67244
39.218442
353.40689
274.51273
196.24698
117.67404
39.245484
353.40144
274.48888
196.25852
117.64917
39.248186
353.40022
274.46123
196.25009
117.69177
39.250128
353.40244
274.50533
196.25462
117.65584
39.252948
353.40358
274.50328
196.25055
117.67958
39.238516
353.39924
274.48859
196.27775
117.68011
39.232999
353.40772
274.51808
196.25291
117.69806
39.230398
353.40509
274.52924
196.26052
117.68876
39.235704
353.40643
274.52391
196.2508
117.70246
39.233022
353.40339
274.52212
196.25748
117.68315
39.228241
353.3983
274.50864
196.22811
117.67163
39.246765
353.38976
274.48181
196.24968
117.65754
39.251447
353.39595
274.4802
196.26623
117.69818
39.246045
)
;
    }
    maxZ
    {
        type            calculated;
        value           nonuniform List<scalar> 
150
(
353.39596
274.48009
196.26584
117.69794
39.245641
353.38977
274.48183
196.24942
117.65721
39.251103
353.39837
274.50861
196.22798
117.67149
39.246277
353.40344
274.52201
196.25741
117.68309
39.22797
353.40647
274.52377
196.25078
117.7023
39.232882
353.40521
274.52884
196.26045
117.68875
39.235474
353.4079
274.51826
196.25272
117.69782
39.23039
353.4001
274.49047
196.27497
117.68046
39.232704
353.40387
274.50277
196.24989
117.6793
39.238535
353.40325
274.5023
196.25505
117.6552
39.253212
353.40034
274.46019
196.25046
117.69191
39.250364
353.40132
274.4889
196.25909
117.64887
39.247857
353.40603
274.50918
196.25037
117.67267
39.246597
353.40344
274.48793
196.27195
117.67194
39.217995
353.40797
274.52984
196.25148
117.70664
39.232144
353.40807
274.53014
196.25096
117.70704
39.23217
353.40306
274.48833
196.27248
117.67225
39.218234
353.4065
274.51125
196.24807
117.67337
39.245896
353.40131
274.48843
196.25827
117.64904
39.247951
353.40034
274.45958
196.24929
117.69147
39.249971
353.40456
274.50033
196.2534
117.655
39.252749
353.4036
274.50219
196.24947
117.67902
39.238285
353.39965
274.48948
196.27579
117.67999
39.232622
353.40784
274.51814
196.25269
117.69796
39.230314
353.40517
274.52896
196.26056
117.68881
39.235644
353.40653
274.52379
196.25089
117.70254
39.233111
353.40348
274.52207
196.25757
117.68334
39.22836
353.3984
274.50867
196.22822
117.67191
39.246797
353.38982
274.48187
196.2497
117.65768
39.251521
353.39602
274.4802
196.26623
117.69831
39.246107
)
;
    }
    bottomWater_to_rightSolid
    {
        type            calculated;
        value           nonuniform List<scalar> 
130
(
0.0054837274
0.0081857333
0.010127584
0.012947888
-0.0014835371
-0.0070014605
-0.0096024182
-0.0042958055
-0.0069778929
-0.011759437
0.006764817
0.01144744
0.0060451473
0.013979107
0.010599402
0.016387184
0.014189324
0.020990775
0.0015659283
0.0077802468
0.00087724286
-0.0081530179
-0.0078201893
0.004513512
0.012211744
0.012151677
0.01868043
0.016981669
0.029287302
0.030120067
0.022976768
0.0214895
0.014956
0.015506858
0.010109311
0.0099449596
-0.0056504036
0.032343385
0.020935296
0.006569662
0.004765612
0.011974218
0.028397564
0.015012631
0.00122751
0.0057556267
0.013449287
0.020307227
0.017091599
0.01431311
0.0044063946
-0.003658958
0.0013617506
-0.0035876049
-0.0027461328
0.011416402
0.0017772553
-0.0012775999
0.0073990766
0.013348444
0.017380097
0.016008474
-0.0024666225
-0.017108042
-0.0022310156
0.001376955
-0.0036597558
-0.0026690854
0.0114484
0.0017460595
-0.0012563602
0.0073887266
0.013241973
0.016820117
0.014563752
-0.0030119233
-0.017459887
-0.0023511972
0.0068195483
0.0044958785
0.01189737
0.028446571
0.014756451
0.0010633042
0.005951599
0.01356865
0.020613182
0.017335332
0.014503198
0.0047207205
-0.0036449659
0.018301946
0.016691756
0.029214334
0.030045235
0.022885755
0.021199562
0.01513689
0.015684361
0.010517404
0.010862225
-0.005449474
0.032578198
0.020906641
0.013993952
0.01027051
0.016293059
0.014075662
0.020755639
0.0014175768
0.0077459785
0.00092282638
-0.0079798785
-0.0075841715
0.004636308
0.012340421
0.012272101
0.0058961998
0.0079507351
0.0099711437
0.012748822
-0.0017152713
-0.0073778864
-0.0096860114
-0.0043564158
-0.0068889192
-0.01163955
0.0067970148
0.011521137
0.0061069773
)
;
    }
    bottomWater_to_leftSolid
    {
        type            calculated;
        value           nonuniform List<scalar> 
130
(
0.005464649
0.010934811
0.006128151
-0.012127759
-0.0072206124
-0.0045535132
-0.0096272154
-0.00727056
-0.0012572712
0.013481002
0.010703215
0.0079367703
0.0070954204
0.011562893
0.011625661
0.0039598384
-0.0082554552
-0.0086415795
0.00059094527
0.0076878121
0.0014462613
0.020843595
0.014376517
0.016541558
0.0099699462
0.013900073
0.019606815
0.031333787
-0.0067877696
0.0091723966
0.0092780349
0.014883052
0.014778179
0.020288877
0.022532781
0.029938384
0.028960169
0.01601656
0.017138841
-0.0052305296
0.0028369482
0.012332428
0.015020835
0.018562164
0.012257647
0.0052235004
0.0002009069
0.013849838
0.028378129
0.011728885
0.0040040723
0.0073194582
-0.0045554742
-0.020118574
-0.0068567653
0.0099431169
0.013115398
0.010935634
0.0061548588
-0.0022847859
0.0010937679
0.011169867
-0.0030352517
-0.0041129364
0.001271452
-0.0044916866
-0.019993378
-0.0070261641
0.0097185323
0.012993147
0.010854645
0.0061346479
-0.0023363963
0.0011729153
0.011179269
-0.0030999623
-0.0039659266
0.0013859305
-0.0049222155
0.0029192902
0.012752639
0.015652551
0.018900944
0.012545211
0.0052332843
0.00045413535
0.014217079
0.028392448
0.011799929
0.0042670252
0.0073232188
0.020160154
0.031427947
-0.0065412004
0.0094123767
0.0095659794
0.015086281
0.014831601
0.020387555
0.022610372
0.029999506
0.02907048
0.016466468
0.017959257
0.011740231
0.011813767
0.0042231717
-0.0080288161
-0.0084601113
0.00065157629
0.0077088661
0.0015338629
0.02080471
0.014289318
0.01648733
0.010193114
0.014138291
0.0056409962
0.011103316
0.0062768603
-0.012030413
-0.0071177597
-0.0045261762
-0.0096095715
-0.0072955077
-0.0014647507
0.013212414
0.010364086
0.0078566167
0.0065973656
)
;
    }
    bottomWater_to_heater
    {
        type            calculated;
        value           nonuniform List<scalar> 
92
(
-0.022380684
-0.0081228303
-0.0078627484
-0.021557933
-0.0016774743
-0.013091742
-0.012191417
0.00046681692
0.0090514869
-0.0035370689
-0.0029035007
0.0097708652
353.39217
353.39621
353.39734
353.39341
274.47563
274.47256
274.47177
274.47044
196.26273
196.2842
196.28885
196.27046
117.6512
117.68681
117.69174
117.66597
0.0065840113
39.246584
-0.0040964571
39.235904
-0.0039476903
39.236052
0.0015744573
39.241574
353.4039
353.40261
274.4766
274.4775
196.28121
196.2808
117.69795
117.69749
39.241271
39.241362
353.40352
353.3927
353.39663
353.39714
353.403
353.39294
274.47679
274.47365
274.4722
274.47216
274.47717
274.47199
196.28104
196.26613
196.28685
196.2883
196.28091
196.2685
117.69783
117.65619
117.68906
117.69076
117.69766
117.66193
39.241386
39.245014
39.236611
39.236521
39.241377
39.242927
0.0050139385
-0.0033894412
-0.0034786321
0.00292725
0.0096862055
-0.0028575727
-0.0027736994
0.0096430498
-0.00075486336
-0.012374914
-0.012137587
-0.0001341598
-0.022005285
-0.0078564222
-0.0078295545
-0.021765985
)
;
    }
}


// ************************************************************************* //
