/*--------------------------------*- C++ -*----------------------------------*\
| =========                 |                                                 |
| \\      /  F ield         | OpenFOAM: The Open Source CFD Toolbox           |
|  \\    /   O peration     | Version:  v2012                                 |
|   \\  /    A nd           | Website:  www.openfoam.com                      |
|    \\/     M anipulation  |                                                 |
\*---------------------------------------------------------------------------*/
FoamFile
{
    version     2.0;
    format      ascii;
    class       volScalarField;
    location    "80/bottomWater";
    object      p_rgh;
}
// * * * * * * * * * * * * * * * * * * * * * * * * * * * * * * * * * * * * * //

dimensions      [1 -1 -2 0 0 0 0];


internalField   nonuniform List<scalar> 
1460
(
0.23599371
0.22980113
0.23841848
0.24349671
0.24655011
0.24529935
0.24803836
0.2402561
0.24405845
0.24238072
0.24008281
0.24076483
0.24535097
0.2436093
0.24798135
0.24821991
0.24276354
0.24689442
0.2414379
0.24021865
0.24244132
0.2435839
0.23923749
0.24772325
0.24508607
0.24642716
0.24338519
0.23830488
0.2297589
0.23595155
-0.20003002
-0.19825263
-0.17146186
-0.15806212
-0.15622585
-0.15123782
-0.16180882
-0.18940314
-0.17687639
-0.17655009
-0.21927169
-0.19006615
-0.17156085
-0.19220856
-0.15019286
-0.14957402
-0.19120445
-0.16726668
-0.19112012
-0.2187706
-0.17466847
-0.17672107
-0.19140528
-0.16192223
-0.15076478
-0.15608775
-0.1578756
-0.17135653
-0.1981891
-0.19980035
0.065675499
0.049238917
0.02784991
0.057345842
0.050812281
0.060422299
0.052856349
0.075095234
0.050203648
0.056061099
0.051195017
0.05962552
0.051974137
0.071640303
0.051922647
0.050731432
0.073427978
0.046976611
0.058518428
0.050092554
0.054621241
0.05055432
0.077752491
0.052908715
0.060523321
0.050799922
0.057484859
0.028111293
0.049677396
0.066225935
-0.022140224
-0.062825318
-0.048497642
-0.036954037
-0.017766732
-0.031419757
-0.022141546
-0.039540083
-0.040643105
-0.064810717
-0.027959191
-0.071616371
-0.048261865
-0.048636294
-0.013945335
-0.01265598
-0.047556051
-0.045964646
-0.070832652
-0.028226554
-0.064156871
-0.0404238
-0.039889798
-0.021939958
-0.031238155
-0.017535439
-0.036847635
-0.048369125
-0.062459214
-0.021817971
0.005464649
0.010934811
0.006128151
-0.012127759
-0.0072206124
-0.0045535132
-0.0096272154
-0.00727056
-0.0012572712
0.013481002
0.010703215
0.0079367703
0.0070954204
-0.022380684
-0.0081228303
-0.0078627484
-0.021557933
0.0054837274
0.0081857333
0.010127584
0.012947888
-0.0014835371
-0.0070014605
-0.0096024182
-0.0042958055
-0.0069778929
-0.011759437
0.006764817
0.01144744
0.0060451473
0.23930516
0.23969915
0.23886827
0.23880434
0.24304518
0.25392937
0.24786445
0.24534942
0.24371317
0.24646909
0.24568967
0.2402535
0.25602827
0.25449695
0.24657319
0.24606764
0.25376938
0.25509955
0.2392022
0.24515603
0.24571699
0.24319073
0.24478591
0.24759431
0.2537678
0.24282226
0.23885947
0.23882766
0.23965405
0.2392486
-0.2147143
-0.22165731
-0.21624268
-0.20585946
-0.20494984
-0.17623294
-0.19599093
-0.21860808
-0.20514393
-0.22060482
-0.22470898
-0.21641504
-0.16064577
-0.13817362
-0.16531669
-0.16635491
-0.140478
-0.16345855
-0.21659201
-0.22356194
-0.21987429
-0.20458746
-0.2183136
-0.19554342
-0.17606056
-0.20534331
-0.20522794
-0.21616217
-0.22152883
-0.21455123
0.08716333
0.071802603
0.05023666
0.064120114
0.057548696
0.035297413
0.047596698
0.063474174
0.069434525
0.079916389
0.064188821
0.038342669
0.029057513
0.033258792
0.051113071
0.051676746
0.030144627
0.028314224
0.038187226
0.064145423
0.079254312
0.069635737
0.063461155
0.047453012
0.035310472
0.057982279
0.064081545
0.050705904
0.072333669
0.087528608
-0.033255872
-0.031934431
-0.038877348
-0.053219951
-0.062307726
-0.056137201
-0.079355843
-0.037840686
-0.083945392
-0.035015137
-0.033730484
-0.08152178
-0.049835467
-0.072508772
-0.039110923
-0.038386367
-0.072632745
-0.049578958
-0.080428935
-0.033635787
-0.035412788
-0.083664797
-0.037099535
-0.078909554
-0.055676446
-0.062065276
-0.052833476
-0.038461999
-0.031447833
-0.032819675
0.011562893
0.011625661
0.0039598384
-0.0082554552
-0.0086415795
0.00059094527
0.0076878121
0.0014462613
0.020843595
0.014376517
0.016541558
0.0099699462
0.013900073
-0.0016774743
-0.013091742
-0.012191417
0.00046681692
0.013979107
0.010599402
0.016387184
0.014189324
0.020990775
0.0015659283
0.0077802468
0.00087724286
-0.0081530179
-0.0078201893
0.004513512
0.012211744
0.012151677
0.23394674
0.23349456
0.23646368
0.23834827
0.23949988
0.2436728
0.24172231
0.24137445
0.24077382
0.24552955
0.24621847
0.23889717
0.23688895
0.24297757
0.22850957
0.23011171
0.23642033
0.23309376
0.23666669
0.24483428
0.24419606
0.24005806
0.24058249
0.24140175
0.24354271
0.23949076
0.23848888
0.23624331
0.23347164
0.23393517
-0.19593093
-0.2012941
-0.19896175
-0.21181356
-0.22781411
-0.22584475
-0.22083008
-0.21061773
-0.22275649
-0.22350187
-0.22360447
-0.22127742
-0.21151113
-0.1847448
-0.1987557
-0.1985154
-0.18966472
-0.20980021
-0.2200494
-0.22287875
-0.22237201
-0.22211428
-0.20872891
-0.22015707
-0.22519406
-0.22731935
-0.21080537
-0.1993166
-0.20094579
-0.19523568
0.076440824
0.071561594
0.074294647
0.07762792
0.083631639
0.093899512
0.076007254
0.087244585
0.077891111
0.093252062
0.093929158
0.065633286
0.054697149
0.022625635
0.064825889
0.063475493
0.03321909
0.057382348
0.068621083
0.095110174
0.093843692
0.078002048
0.087316806
0.076222614
0.094306571
0.083468429
0.077007541
0.074902397
0.071684433
0.076589198
-0.067257321
-0.086375355
-0.056584492
-0.050614819
-0.033933043
-0.035415309
-0.022900957
-0.04432554
-0.027075826
-0.021346934
-0.01867482
-0.044022107
-0.062909601
-0.066749554
-0.045657868
-0.044297662
-0.067200867
-0.062829703
-0.043625734
-0.018828081
-0.021805018
-0.027741295
-0.04601448
-0.023480679
-0.034657574
-0.033383449
-0.050777426
-0.055941241
-0.085782244
-0.066833164
0.019606815
0.031333787
-0.0067877696
0.0091723966
0.0092780349
0.014883052
0.014778179
0.020288877
0.022532781
0.029938384
0.028960169
0.01601656
0.017138841
0.0090514869
-0.0035370689
-0.0029035007
0.0097708652
0.01868043
0.016981669
0.029287302
0.030120067
0.022976768
0.0214895
0.014956
0.015506858
0.010109311
0.0099449596
-0.0056504036
0.032343385
0.020935296
0.23520356
0.24984741
0.2519242
0.23834413
0.24636742
0.24801887
0.23711114
0.24399097
0.23542579
0.23731633
0.23775326
0.23707156
0.23859449
0.23217276
0.23621472
0.23734124
0.23340991
0.23945786
0.23675961
0.23739434
0.23703583
0.23559635
0.24417288
0.23708796
0.24805824
0.24669018
0.23988388
0.25242494
0.24997032
0.23520541
-0.19414429
-0.16719183
-0.17326054
-0.22090807
-0.22148216
-0.21808122
-0.20869422
-0.19356767
-0.20271578
-0.2087856
-0.21359585
-0.21565424
-0.21342537
-0.20437328
-0.20743587
-0.2082328
-0.20955821
-0.21390426
-0.21553253
-0.21385233
-0.20892009
-0.20183634
-0.19231728
-0.20898335
-0.21821684
-0.22030843
-0.21291096
-0.17178546
-0.16672552
-0.19369638
0.063486089
0.036773111
0.018813206
0.04554387
0.072364711
0.076900434
0.058338587
0.056246091
0.065544694
0.064865676
0.069163239
0.077681868
0.084950666
0.062733442
0.084199848
0.088851096
0.070462644
0.085698997
0.07936214
0.069307686
0.064110152
0.064673559
0.055440351
0.058912246
0.076523609
0.07069974
0.036503272
0.017508498
0.037504787
0.064351199
-0.044610915
-0.063553018
-0.063676146
-0.089201983
-0.034943124
-0.036003641
-0.062144256
-0.053574757
-0.080903632
-0.074909576
-0.073987516
-0.047941302
-0.028681795
-0.068800814
-0.033189632
-0.02825798
-0.054029761
-0.030319163
-0.044751259
-0.071402754
-0.073598654
-0.079721938
-0.052203261
-0.061090393
-0.035198808
-0.03414128
-0.089815436
-0.063060093
-0.062446858
-0.043231371
-0.0052305296
0.0028369482
0.012332428
0.015020835
0.018562164
0.012257647
0.0052235004
0.0002009069
0.013849838
0.028378129
0.011728885
0.0040040723
0.0073194582
0.0065840113
-0.0040964571
-0.0039476903
0.0015744573
0.006569662
0.004765612
0.011974218
0.028397564
0.015012631
0.00122751
0.0057556267
0.013449287
0.020307227
0.017091599
0.01431311
0.0044063946
-0.003658958
0.25036407
0.24949268
0.25201409
0.24750666
0.25139492
0.24850491
0.2495629
0.25390139
0.25337803
0.25691711
0.24901025
0.2351637
0.24389636
0.24261334
0.23389532
0.24757478
0.25570217
0.25267216
0.25343617
0.24934303
0.24827073
0.25047079
0.24499554
0.25066007
0.24930846
0.25040335
-0.15466232
-0.16290125
-0.17400238
-0.19605628
-0.21408484
-0.20619629
-0.1813291
-0.14873343
-0.15208227
-0.13957608
-0.17826279
-0.20878696
-0.20339898
-0.2025006
-0.20774977
-0.17810692
-0.13925102
-0.15118559
-0.14804906
-0.18119294
-0.20671753
-0.21692272
-0.20840276
-0.17598988
-0.16285988
-0.15425471
0.051667452
0.063798025
0.046973718
0.056454182
0.070394597
0.071110147
0.035602869
0.06006429
0.05408855
0.040778669
0.044247696
0.067113706
0.081206995
0.080800493
0.066916034
0.044148337
0.040554457
0.054555938
0.060476465
0.036666534
0.07170552
0.071737697
0.059723063
0.048592956
0.064781174
0.05263746
-0.019746621
-0.059928949
-0.068118712
-0.10279333
-0.04487979
-0.043441898
-0.053136722
-0.030462052
-0.029979553
-0.05580188
-0.040885281
-0.040141461
-0.022045566
-0.022509226
-0.039959484
-0.04036492
-0.055226431
-0.029615741
-0.029934105
-0.051428463
-0.041660333
-0.039513426
-0.088982177
-0.062911713
-0.057146969
-0.017798281
-0.0045554742
-0.020118574
-0.0068567653
0.0099431169
0.013115398
0.010935634
0.0061548588
-0.0022847859
0.0010937679
0.011169867
-0.0030352517
-0.0041129364
0.001271452
0.0013617506
-0.0035876049
-0.0027461328
0.011416402
0.0017772553
-0.0012775999
0.0073990766
0.013348444
0.017380097
0.016008474
-0.0024666225
-0.017108042
-0.0022310156
0.25032924
0.24948855
0.25210712
0.24746981
0.25133195
0.24846023
0.24941056
0.25372802
0.25306683
0.25663534
0.2485766
0.23488157
0.24351907
0.24299825
0.23425819
0.24805467
0.2560417
0.25299005
0.25360893
0.2494909
0.24838349
0.25088557
0.24623894
0.25125687
0.24943351
0.25047832
-0.15453447
-0.16273348
-0.17410118
-0.19512482
-0.21384136
-0.20611833
-0.18142227
-0.14871482
-0.15201269
-0.13962026
-0.1784011
-0.20848912
-0.20321385
-0.20282935
-0.20807516
-0.17805804
-0.13925151
-0.15135764
-0.14817618
-0.18110275
-0.20639326
-0.21553119
-0.20158498
-0.17480173
-0.16278842
-0.1542435
0.051728778
0.063745062
0.047509746
0.057100059
0.07065832
0.071303324
0.035643355
0.060009812
0.054069878
0.040810854
0.044372023
0.067004843
0.081041093
0.080908586
0.066977448
0.044067199
0.040503733
0.054522812
0.06044043
0.036686598
0.071727005
0.071785523
0.058640595
0.048177496
0.065039224
0.052675149
-0.019777101
-0.059774629
-0.068329167
-0.10427604
-0.045020841
-0.043268905
-0.052939482
-0.030404077
-0.030198569
-0.05571753
-0.040892193
-0.040128868
-0.02216927
-0.022343458
-0.039941433
-0.040293334
-0.055255432
-0.029407697
-0.029904628
-0.051509569
-0.041935734
-0.040805581
-0.095020198
-0.0641902
-0.057610898
-0.017825889
-0.0044916866
-0.019993378
-0.0070261641
0.0097185323
0.012993147
0.010854645
0.0061346479
-0.0023363963
0.0011729153
0.011179269
-0.0030999623
-0.0039659266
0.0013859305
0.001376955
-0.0036597558
-0.0026690854
0.0114484
0.0017460595
-0.0012563602
0.0073887266
0.013241973
0.016820117
0.014563752
-0.0030119233
-0.017459887
-0.0023511972
0.23516781
0.24975048
0.25168851
0.23757244
0.24605475
0.24796092
0.23717189
0.24396692
0.2354833
0.23729969
0.23774646
0.23708628
0.23910304
0.2326951
0.23663069
0.23714491
0.23294298
0.23917372
0.23674734
0.23748268
0.23710971
0.23557673
0.24416765
0.2371424
0.24803613
0.24639676
0.23858358
0.25203558
0.24999973
0.235281
-0.19390069
-0.16725822
-0.17380612
-0.22429757
-0.22198466
-0.2180956
-0.20886634
-0.19344244
-0.20253878
-0.20885196
-0.21369935
-0.21573137
-0.21361945
-0.20634993
-0.20779683
-0.20784394
-0.2080119
-0.21356102
-0.2155355
-0.21380544
-0.20891556
-0.20211269
-0.19255912
-0.20872834
-0.21799903
-0.2212183
-0.21946325
-0.17279245
-0.16671928
-0.19358783
0.063748656
0.0374947
0.019845684
0.049723101
0.073351353
0.077295627
0.058786003
0.056278524
0.065386943
0.064775385
0.069297779
0.078303705
0.085565265
0.066134128
0.08685344
0.088298125
0.068501587
0.085587354
0.078863839
0.069330082
0.064324376
0.0649988
0.055782641
0.059000903
0.077176252
0.072856818
0.044712095
0.019420593
0.037508305
0.064323334
-0.044358457
-0.063091258
-0.063065435
-0.088137154
-0.034288207
-0.035631178
-0.061855993
-0.053301321
-0.080699017
-0.074710119
-0.073387039
-0.047054118
-0.028725086
-0.063807636
-0.030944372
-0.029238596
-0.058071168
-0.02978668
-0.045863361
-0.072173715
-0.073985469
-0.079992855
-0.052502655
-0.061091711
-0.034945853
-0.033300669
-0.08753719
-0.062138573
-0.06222597
-0.043192046
-0.0049222155
0.0029192902
0.012752639
0.015652551
0.018900944
0.012545211
0.0052332843
0.00045413535
0.014217079
0.028392448
0.011799929
0.0042670252
0.0073232188
0.0050139385
-0.0033894412
-0.0034786321
0.00292725
0.0068195483
0.0044958785
0.01189737
0.028446571
0.014756451
0.0010633042
0.005951599
0.01356865
0.020613182
0.017335332
0.014503198
0.0047207205
-0.0036449659
0.23393524
0.23344922
0.23637738
0.23818761
0.23934714
0.24355834
0.24165519
0.24117444
0.24058359
0.24523743
0.24589187
0.23835944
0.23596847
0.24057755
0.22855053
0.22981802
0.23893786
0.23459868
0.23748248
0.24529121
0.24459732
0.2402962
0.24082453
0.24154346
0.243567
0.23948316
0.23837166
0.23646072
0.23356559
0.2340054
-0.195485
-0.20113438
-0.19877872
-0.21186345
-0.22778509
-0.22580965
-0.22077567
-0.21048126
-0.22268852
-0.22332649
-0.22347301
-0.2210661
-0.21152424
-0.18740612
-0.201037
-0.19769498
-0.18742492
-0.21026669
-0.22049723
-0.2232421
-0.22286481
-0.22243457
-0.20931592
-0.22040629
-0.22545511
-0.22752656
-0.21131121
-0.19836722
-0.20084139
-0.19526018
0.076560009
0.071853
0.074528549
0.078306854
0.083945413
0.094091156
0.076024858
0.087234703
0.077812747
0.093337756
0.094217909
0.066387644
0.055737136
0.026386973
0.068605804
0.063721781
0.029242678
0.056383222
0.067177247
0.094652014
0.093452677
0.077909542
0.087180113
0.076263707
0.094354706
0.084074039
0.077841319
0.07450096
0.071889639
0.076820197
-0.067676543
-0.086511885
-0.056461608
-0.0502014
-0.033522705
-0.035001694
-0.022973646
-0.044317008
-0.02713704
-0.021321658
-0.01865089
-0.043558367
-0.06220154
-0.065467161
-0.044022254
-0.044187222
-0.066271545
-0.062522996
-0.043591583
-0.018710004
-0.021687899
-0.027511364
-0.045494551
-0.023105343
-0.034666756
-0.032999616
-0.050483692
-0.055891893
-0.085530394
-0.066637089
0.020160154
0.031427947
-0.0065412004
0.0094123767
0.0095659794
0.015086281
0.014831601
0.020387555
0.022610372
0.029999506
0.02907048
0.016466468
0.017959257
0.0096862055
-0.0028575727
-0.0027736994
0.0096430498
0.018301946
0.016691756
0.029214334
0.030045235
0.022885755
0.021199562
0.01513689
0.015684361
0.010517404
0.010862225
-0.005449474
0.032578198
0.020906641
0.23923472
0.2396398
0.23882767
0.23876795
0.24287946
0.2538009
0.24779732
0.24521447
0.24352932
0.24630049
0.24555158
0.2399994
0.25578106
0.25415966
0.24610991
0.24603663
0.25397085
0.25537128
0.23950848
0.24531112
0.24597029
0.24330243
0.24497659
0.24775001
0.2538479
0.24288447
0.2388499
0.23890354
0.2397337
0.23932871
-0.21463961
-0.22153616
-0.21611787
-0.20554884
-0.2052002
-0.17618493
-0.19558618
-0.21853508
-0.20513357
-0.22064868
-0.22453774
-0.21659075
-0.16123616
-0.13859908
-0.1659075
-0.16612595
-0.13936133
-0.16254142
-0.21680722
-0.22440584
-0.22085414
-0.20522436
-0.21859666
-0.19555945
-0.17609719
-0.2054464
-0.20554784
-0.21606597
-0.22147099
-0.2145202
0.087212968
0.072004863
0.050485186
0.064188252
0.057853325
0.035430164
0.047386436
0.063307014
0.069194188
0.079475883
0.063968061
0.038179623
0.02889175
0.032545248
0.052118568
0.051938307
0.031200053
0.028418625
0.037808405
0.063644159
0.078859146
0.0691276
0.063041973
0.047240504
0.035296597
0.05811173
0.064445278
0.050852307
0.072328203
0.087619572
-0.033187841
-0.031825402
-0.038846161
-0.05304689
-0.062188277
-0.056140174
-0.079293073
-0.037925796
-0.083943526
-0.035202767
-0.033636405
-0.080980768
-0.049381272
-0.07203195
-0.038375154
-0.03831898
-0.072378504
-0.049640252
-0.081073514
-0.033817398
-0.035545183
-0.083725401
-0.03783768
-0.078946394
-0.055725469
-0.061929509
-0.052669066
-0.038230253
-0.031319928
-0.032673216
0.011740231
0.011813767
0.0042231717
-0.0080288161
-0.0084601113
0.00065157629
0.0077088661
0.0015338629
0.02080471
0.014289318
0.01648733
0.010193114
0.014138291
-0.00075486336
-0.012374914
-0.012137587
-0.0001341598
0.013993952
0.01027051
0.016293059
0.014075662
0.020755639
0.0014175768
0.0077459785
0.00092282638
-0.0079798785
-0.0075841715
0.004636308
0.012340421
0.012272101
0.23595825
0.22977034
0.2383661
0.24343957
0.24647408
0.24521069
0.24789661
0.24010002
0.24387487
0.24324923
0.24034117
0.24131896
0.24602979
0.24344118
0.24797334
0.24806779
0.24305846
0.24650117
0.24130564
0.2403432
0.24456474
0.24360084
0.23965257
0.24783768
0.24517475
0.24652951
0.24347729
0.23840444
0.22981705
0.23602028
-0.1999127
-0.19816704
-0.17139142
-0.15798781
-0.15623274
-0.15115723
-0.16173591
-0.18952841
-0.17723233
-0.17769599
-0.21980749
-0.19110207
-0.17082343
-0.19207046
-0.15015518
-0.14985599
-0.19167128
-0.16875466
-0.19157458
-0.22042396
-0.17966643
-0.17781119
-0.19052072
-0.16186084
-0.15103811
-0.15620583
-0.15792854
-0.17133416
-0.19812829
-0.19980252
0.065844031
0.049418204
0.02797979
0.057414145
0.050780755
0.060449499
0.05272482
0.074966107
0.049885049
0.055054772
0.050463105
0.059085493
0.05036774
0.07194553
0.051481193
0.050963616
0.072482659
0.048070677
0.058270541
0.049293779
0.05340293
0.049467666
0.075792571
0.052689982
0.060563852
0.050889691
0.057571048
0.028215613
0.049700552
0.066231901
-0.022056883
-0.062785934
-0.048507967
-0.036914659
-0.01769518
-0.031251776
-0.022178389
-0.03953967
-0.040700135
-0.064796411
-0.028092318
-0.071125645
-0.047334947
-0.048057837
-0.013364587
-0.01295728
-0.047752514
-0.04663309
-0.070962287
-0.028534324
-0.065000382
-0.040977225
-0.04000567
-0.022038752
-0.031194653
-0.017462396
-0.036660766
-0.04808508
-0.062321655
-0.021691345
0.0056409962
0.011103316
0.0062768603
-0.012030413
-0.0071177597
-0.0045261762
-0.0096095715
-0.0072955077
-0.0014647507
0.013212414
0.010364086
0.0078566167
0.0065973656
-0.022005285
-0.0078564222
-0.0078295545
-0.021765985
0.0058961998
0.0079507351
0.0099711437
0.012748822
-0.0017152713
-0.0073778864
-0.0096860114
-0.0043564158
-0.0068889192
-0.01163955
0.0067970148
0.011521137
0.0061069773
)
;

boundaryField
{
    minX
    {
        type            fixedFluxPressure;
        gradient        uniform 0;
        value           nonuniform List<scalar> 
50
(
0.23599371
-0.20003002
0.065675499
-0.022140224
0.005464649
0.23930516
-0.2147143
0.08716333
-0.033255872
0.011562893
0.23394674
-0.19593093
0.076440824
-0.067257321
0.019606815
0.23520356
-0.19414429
0.063486089
-0.044610915
-0.0052305296
0.25036407
-0.15466232
0.051667452
-0.019746621
-0.0045554742
0.25032924
-0.15453447
0.051728778
-0.019777101
-0.0044916866
0.23516781
-0.19390069
0.063748656
-0.044358457
-0.0049222155
0.23393524
-0.195485
0.076560009
-0.067676543
0.020160154
0.23923472
-0.21463961
0.087212968
-0.033187841
0.011740231
0.23595825
-0.1999127
0.065844031
-0.022056883
0.0056409962
)
;
    }
    maxX
    {
        type            fixedFluxPressure;
        gradient        uniform 0;
        value           nonuniform List<scalar> 
50
(
0.23595155
-0.19980035
0.066225935
-0.021817971
0.0060451473
0.2392486
-0.21455123
0.087528608
-0.032819675
0.012151677
0.23393517
-0.19523568
0.076589198
-0.066833164
0.020935296
0.23520541
-0.19369638
0.064351199
-0.043231371
-0.003658958
0.25040335
-0.15425471
0.05263746
-0.017798281
-0.0022310156
0.25047832
-0.1542435
0.052675149
-0.017825889
-0.0023511972
0.235281
-0.19358783
0.064323334
-0.043192046
-0.0036449659
0.2340054
-0.19526018
0.076820197
-0.066637089
0.020906641
0.23932871
-0.2145202
0.087619572
-0.032673216
0.012272101
0.23602028
-0.19980252
0.066231901
-0.021691345
0.0061069773
)
;
    }
    minY
    {
        type            fixedValue;
        value           uniform 0;
    }
    minZ
    {
        type            fixedFluxPressure;
        gradient        uniform 0;
        value           nonuniform List<scalar> 
150
(
0.23599371
-0.20003002
0.065675499
-0.022140224
0.005464649
0.22980113
-0.19825263
0.049238917
-0.062825318
0.010934811
0.23841848
-0.17146186
0.02784991
-0.048497642
0.006128151
0.24349671
-0.15806212
0.057345842
-0.036954037
-0.012127759
0.24655011
-0.15622585
0.050812281
-0.017766732
-0.0072206124
0.24529935
-0.15123782
0.060422299
-0.031419757
-0.0045535132
0.24803836
-0.16180882
0.052856349
-0.022141546
-0.0096272154
0.2402561
-0.18940314
0.075095234
-0.039540083
-0.00727056
0.24405845
-0.17687639
0.050203648
-0.040643105
-0.0012572712
0.24238072
-0.17655009
0.056061099
-0.064810717
0.013481002
0.24008281
-0.21927169
0.051195017
-0.027959191
0.010703215
0.24076483
-0.19006615
0.05962552
-0.071616371
0.0079367703
0.24535097
-0.17156085
0.051974137
-0.048261865
0.0070954204
0.2436093
-0.19220856
0.071640303
-0.048636294
-0.022380684
0.24798135
-0.15019286
0.051922647
-0.013945335
-0.0081228303
0.24821991
-0.14957402
0.050731432
-0.01265598
-0.0078627484
0.24276354
-0.19120445
0.073427978
-0.047556051
-0.021557933
0.24689442
-0.16726668
0.046976611
-0.045964646
0.0054837274
0.2414379
-0.19112012
0.058518428
-0.070832652
0.0081857333
0.24021865
-0.2187706
0.050092554
-0.028226554
0.010127584
0.24244132
-0.17466847
0.054621241
-0.064156871
0.012947888
0.2435839
-0.17672107
0.05055432
-0.0404238
-0.0014835371
0.23923749
-0.19140528
0.077752491
-0.039889798
-0.0070014605
0.24772325
-0.16192223
0.052908715
-0.021939958
-0.0096024182
0.24508607
-0.15076478
0.060523321
-0.031238155
-0.0042958055
0.24642716
-0.15608775
0.050799922
-0.017535439
-0.0069778929
0.24338519
-0.1578756
0.057484859
-0.036847635
-0.011759437
0.23830488
-0.17135653
0.028111293
-0.048369125
0.006764817
0.2297589
-0.1981891
0.049677396
-0.062459214
0.01144744
0.23595155
-0.19980035
0.066225935
-0.021817971
0.0060451473
)
;
    }
    maxZ
    {
        type            fixedFluxPressure;
        gradient        uniform 0;
        value           nonuniform List<scalar> 
150
(
0.23595825
-0.1999127
0.065844031
-0.022056883
0.0056409962
0.22977034
-0.19816704
0.049418204
-0.062785934
0.011103316
0.2383661
-0.17139142
0.02797979
-0.048507967
0.0062768603
0.24343957
-0.15798781
0.057414145
-0.036914659
-0.012030413
0.24647408
-0.15623274
0.050780755
-0.01769518
-0.0071177597
0.24521069
-0.15115723
0.060449499
-0.031251776
-0.0045261762
0.24789661
-0.16173591
0.05272482
-0.022178389
-0.0096095715
0.24010002
-0.18952841
0.074966107
-0.03953967
-0.0072955077
0.24387487
-0.17723233
0.049885049
-0.040700135
-0.0014647507
0.24324923
-0.17769599
0.055054772
-0.064796411
0.013212414
0.24034117
-0.21980749
0.050463105
-0.028092318
0.010364086
0.24131896
-0.19110207
0.059085493
-0.071125645
0.0078566167
0.24602979
-0.17082343
0.05036774
-0.047334947
0.0065973656
0.24344118
-0.19207046
0.07194553
-0.048057837
-0.022005285
0.24797334
-0.15015518
0.051481193
-0.013364587
-0.0078564222
0.24806779
-0.14985599
0.050963616
-0.01295728
-0.0078295545
0.24305846
-0.19167128
0.072482659
-0.047752514
-0.021765985
0.24650117
-0.16875466
0.048070677
-0.04663309
0.0058961998
0.24130564
-0.19157458
0.058270541
-0.070962287
0.0079507351
0.2403432
-0.22042396
0.049293779
-0.028534324
0.0099711437
0.24456474
-0.17966643
0.05340293
-0.065000382
0.012748822
0.24360084
-0.17781119
0.049467666
-0.040977225
-0.0017152713
0.23965257
-0.19052072
0.075792571
-0.04000567
-0.0073778864
0.24783768
-0.16186084
0.052689982
-0.022038752
-0.0096860114
0.24517475
-0.15103811
0.060563852
-0.031194653
-0.0043564158
0.24652951
-0.15620583
0.050889691
-0.017462396
-0.0068889192
0.24347729
-0.15792854
0.057571048
-0.036660766
-0.01163955
0.23840444
-0.17133416
0.028215613
-0.04808508
0.0067970148
0.22981705
-0.19812829
0.049700552
-0.062321655
0.011521137
0.23602028
-0.19980252
0.066231901
-0.021691345
0.0061069773
)
;
    }
    bottomWater_to_rightSolid
    {
        type            fixedFluxPressure;
        gradient        uniform 0;
        value           nonuniform List<scalar> 
130
(
0.0054837274
0.0081857333
0.010127584
0.012947888
-0.0014835371
-0.0070014605
-0.0096024182
-0.0042958055
-0.0069778929
-0.011759437
0.006764817
0.01144744
0.0060451473
0.013979107
0.010599402
0.016387184
0.014189324
0.020990775
0.0015659283
0.0077802468
0.00087724286
-0.0081530179
-0.0078201893
0.004513512
0.012211744
0.012151677
0.01868043
0.016981669
0.029287302
0.030120067
0.022976768
0.0214895
0.014956
0.015506858
0.010109311
0.0099449596
-0.0056504036
0.032343385
0.020935296
0.006569662
0.004765612
0.011974218
0.028397564
0.015012631
0.00122751
0.0057556267
0.013449287
0.020307227
0.017091599
0.01431311
0.0044063946
-0.003658958
0.0013617506
-0.0035876049
-0.0027461328
0.011416402
0.0017772553
-0.0012775999
0.0073990766
0.013348444
0.017380097
0.016008474
-0.0024666225
-0.017108042
-0.0022310156
0.001376955
-0.0036597558
-0.0026690854
0.0114484
0.0017460595
-0.0012563602
0.0073887266
0.013241973
0.016820117
0.014563752
-0.0030119233
-0.017459887
-0.0023511972
0.0068195483
0.0044958785
0.01189737
0.028446571
0.014756451
0.0010633042
0.005951599
0.01356865
0.020613182
0.017335332
0.014503198
0.0047207205
-0.0036449659
0.018301946
0.016691756
0.029214334
0.030045235
0.022885755
0.021199562
0.01513689
0.015684361
0.010517404
0.010862225
-0.005449474
0.032578198
0.020906641
0.013993952
0.01027051
0.016293059
0.014075662
0.020755639
0.0014175768
0.0077459785
0.00092282638
-0.0079798785
-0.0075841715
0.004636308
0.012340421
0.012272101
0.0058961998
0.0079507351
0.0099711437
0.012748822
-0.0017152713
-0.0073778864
-0.0096860114
-0.0043564158
-0.0068889192
-0.01163955
0.0067970148
0.011521137
0.0061069773
)
;
    }
    bottomWater_to_leftSolid
    {
        type            fixedFluxPressure;
        gradient        uniform 0;
        value           nonuniform List<scalar> 
130
(
0.005464649
0.010934811
0.006128151
-0.012127759
-0.0072206124
-0.0045535132
-0.0096272154
-0.00727056
-0.0012572712
0.013481002
0.010703215
0.0079367703
0.0070954204
0.011562893
0.011625661
0.0039598384
-0.0082554552
-0.0086415795
0.00059094527
0.0076878121
0.0014462613
0.020843595
0.014376517
0.016541558
0.0099699462
0.013900073
0.019606815
0.031333787
-0.0067877696
0.0091723966
0.0092780349
0.014883052
0.014778179
0.020288877
0.022532781
0.029938384
0.028960169
0.01601656
0.017138841
-0.0052305296
0.0028369482
0.012332428
0.015020835
0.018562164
0.012257647
0.0052235004
0.0002009069
0.013849838
0.028378129
0.011728885
0.0040040723
0.0073194582
-0.0045554742
-0.020118574
-0.0068567653
0.0099431169
0.013115398
0.010935634
0.0061548588
-0.0022847859
0.0010937679
0.011169867
-0.0030352517
-0.0041129364
0.001271452
-0.0044916866
-0.019993378
-0.0070261641
0.0097185323
0.012993147
0.010854645
0.0061346479
-0.0023363963
0.0011729153
0.011179269
-0.0030999623
-0.0039659266
0.0013859305
-0.0049222155
0.0029192902
0.012752639
0.015652551
0.018900944
0.012545211
0.0052332843
0.00045413535
0.014217079
0.028392448
0.011799929
0.0042670252
0.0073232188
0.020160154
0.031427947
-0.0065412004
0.0094123767
0.0095659794
0.015086281
0.014831601
0.020387555
0.022610372
0.029999506
0.02907048
0.016466468
0.017959257
0.011740231
0.011813767
0.0042231717
-0.0080288161
-0.0084601113
0.00065157629
0.0077088661
0.0015338629
0.02080471
0.014289318
0.01648733
0.010193114
0.014138291
0.0056409962
0.011103316
0.0062768603
-0.012030413
-0.0071177597
-0.0045261762
-0.0096095715
-0.0072955077
-0.0014647507
0.013212414
0.010364086
0.0078566167
0.0065973656
)
;
    }
    bottomWater_to_heater
    {
        type            fixedFluxPressure;
        gradient        uniform 0;
        value           nonuniform List<scalar> 
92
(
-0.022380684
-0.0081228303
-0.0078627484
-0.021557933
-0.0016774743
-0.013091742
-0.012191417
0.00046681692
0.0090514869
-0.0035370689
-0.0029035007
0.0097708652
0.23217276
0.23621472
0.23734124
0.23340991
-0.20437328
-0.20743587
-0.2082328
-0.20955821
0.062733442
0.084199848
0.088851096
0.070462644
-0.068800814
-0.033189632
-0.02825798
-0.054029761
0.0065840113
0.0065840113
-0.0040964571
-0.0040964571
-0.0039476903
-0.0039476903
0.0015744573
0.0015744573
0.24389636
0.24261334
-0.20339898
-0.2025006
0.081206995
0.080800493
-0.022045566
-0.022509226
0.001271452
0.0013617506
0.24351907
0.2326951
0.23663069
0.23714491
0.24299825
0.23294298
-0.20321385
-0.20634993
-0.20779683
-0.20784394
-0.20282935
-0.2080119
0.081041093
0.066134128
0.08685344
0.088298125
0.080908586
0.068501587
-0.02216927
-0.063807636
-0.030944372
-0.029238596
-0.022343458
-0.058071168
0.0013859305
0.0050139385
-0.0033894412
-0.0034786321
0.001376955
0.00292725
0.0050139385
-0.0033894412
-0.0034786321
0.00292725
0.0096862055
-0.0028575727
-0.0027736994
0.0096430498
-0.00075486336
-0.012374914
-0.012137587
-0.0001341598
-0.022005285
-0.0078564222
-0.0078295545
-0.021765985
)
;
    }
}


// ************************************************************************* //
