/*--------------------------------*- C++ -*----------------------------------*\
| =========                 |                                                 |
| \\      /  F ield         | OpenFOAM: The Open Source CFD Toolbox           |
|  \\    /   O peration     | Version:  v2012                                 |
|   \\  /    A nd           | Website:  www.openfoam.com                      |
|    \\/     M anipulation  |                                                 |
\*---------------------------------------------------------------------------*/
FoamFile
{
    version     2.0;
    format      ascii;
    class       surfaceScalarField;
    location    "80/bottomWater";
    object      phi;
}
// * * * * * * * * * * * * * * * * * * * * * * * * * * * * * * * * * * * * * //

dimensions      [1 0 -1 0 0 0 0];
oriented        oriented;


internalField   nonuniform List<scalar> 
3858
(
-0.00016584715
0.00014034705
2.7296478e-05
-0.0002794779
9.5140057e-05
2.2191772e-05
-0.00020718923
-0.00015531702
8.4530704e-05
-0.00011232378
-0.00021945292
0.00012463571
-3.3666021e-05
-0.00021459654
0.00013497554
4.6408614e-05
-0.00015128231
7.0386094e-05
0.00013255573
-0.00018497258
9.7417543e-05
8.5699577e-05
-2.668054e-05
7.4121777e-05
0.00013229303
-0.00012999583
8.3057358e-05
0.00011785879
-5.3632875e-05
6.8122137e-05
-9.6723387e-05
0.00015891163
5.6416681e-05
-0.00021788778
5.7124533e-05
6.460476e-05
-0.00016850874
-6.941087e-05
1.9377327e-05
-0.00018110214
4.4814624e-06
7.8180934e-06
-3.4283882e-06
-0.00025747022
7.8466483e-05
0.00017295644
-0.00025724203
7.9454031e-05
0.00015291971
8.0894842e-06
1.1869643e-05
0.00021444214
-9.399707e-05
3.1414543e-05
0.00010279529
3.2705987e-05
7.9313564e-05
-0.00011172374
0.00014998682
6.5240807e-05
-0.00012522175
-5.9667542e-05
7.3201833e-05
-8.2177419e-05
-0.00012663257
8.3359608e-05
-0.00013791394
-1.6295763e-05
7.2887961e-05
-5.0471652e-05
-0.0001858466
9.7093365e-05
3.2241599e-05
-0.0001539117
7.0441141e-05
0.0001122463
-0.00021600308
0.00013506891
0.00020702101
-0.00021897802
0.00012428101
0.00027891093
-0.0001545588
8.4200489e-05
0.00016531591
9.5512942e-05
2.1793687e-05
0.00014013678
2.6986087e-05
-0.00032926581
0.00045689714
1.2715721e-05
-0.00031467038
8.4510491e-06
7.2093587e-05
-0.00015033601
-0.00043797464
0.00011832325
-8.1535874e-05
-0.00048773311
0.00019948005
-2.753912e-05
-0.00048464236
0.00021604907
5.4576522e-05
-0.00033899179
0.00010559384
0.00014492408
-0.00044238834
0.0001670682
8.7109116e-05
-0.0001465195
0.00017765392
0.0001777078
-0.00038325728
0.00016266276
0.00013470984
-0.0001974298
0.00018679488
-0.00036213902
0.00054638002
0.00010938046
-0.00041263029
-2.5653151e-06
0.00011018111
-0.00024495985
-0.00023709199
1.0674586e-08
-0.00026101776
0.0001080881
-8.7548722e-05
-1.0694527e-05
-0.00053504348
2.7250029e-05
0.0002338258
-0.00053320393
3.144158e-05
0.00022792454
0.00010558568
-9.1594933e-05
0.0004190609
-0.00029024626
5.1128231e-06
0.0003597782
-2.6668987e-05
0.00011865767
-0.0001360904
0.00053163235
0.00011422306
-0.00017193702
-0.00021121377
0.00018739286
-8.4299647e-05
-0.00037601561
0.00016174567
-0.00015079674
-0.00012527314
0.00017547448
-5.6940911e-05
-0.00044492123
0.00016521881
2.7312531e-05
-0.00034390349
0.00010573834
8.1276341e-05
-0.00048744211
0.00021747523
0.00014993916
-0.00048677583
0.00019913499
0.00031429851
-0.00043654273
0.00011762458
0.00032826066
1.0715448e-05
7.0835331e-05
0.00045722896
1.1168479e-05
0.00012722029
0.00037292836
-4.3251492e-05
0.0002615625
-3.9679245e-05
-8.621191e-05
1.8278415e-05
-0.00012661402
-6.8076513e-05
-2.011774e-05
-0.00039680913
-5.2527805e-05
-2.9190992e-05
-0.00041903577
-5.653333e-05
-7.5080111e-05
-0.00024823661
-4.4866051e-05
-8.8653232e-05
-0.00038239226
-4.6422955e-05
8.137021e-05
-0.00033238888
1.5845935e-05
5.3851884e-05
-0.00027029084
-8.5448116e-05
-5.8544829e-05
-5.9915838e-05
-2.5117259e-05
1.3041357e-05
0.00043339679
4.1397035e-05
-2.066281e-05
-8.6613943e-05
0.00011775279
-0.00021901729
-7.8735073e-05
3.999755e-05
-2.1803882e-05
-0.00017971697
9.059166e-05
-6.0451632e-06
-0.00046678887
-8.4013338e-05
1.8040393e-05
-0.00047020055
-8.7088946e-05
0.00023440058
-0.00018817182
7.7397306e-05
1.2495792e-05
-8.2558187e-05
1.4216719e-05
-2.7123755e-05
-8.2237299e-05
9.5187861e-05
4.8773297e-05
0.00041536658
4.0368727e-05
-7.062242e-05
-6.3674849e-05
-2.8143202e-05
-9.0500348e-05
-0.00027146063
-8.4677047e-05
9.3723492e-05
-0.00033012986
2.0632888e-05
7.8345437e-05
-0.00038333434
-4.6208824e-05
2.8558748e-05
-0.00024853093
-4.5585864e-05
1.8836902e-05
-0.00041994382
-5.7776447e-05
-1.9782523e-05
-0.00039564818
-5.250823e-05
-0.00026256019
-0.00012568291
-6.8082159e-05
-0.00012757432
-3.8625422e-05
-8.5645004e-05
0.00037253551
-4.2880868e-05
0.00031260896
-6.3399242e-06
6.6659334e-05
0.00010494428
0.00019299028
-2.500483e-05
-8.0525296e-06
2.508236e-05
-3.8699554e-05
2.8237436e-05
-0.00038892397
-4.4175113e-05
-6.0483199e-06
-0.00037051159
-1.4238402e-05
-2.0331332e-05
-0.00020884432
-2.5109274e-05
-3.2813397e-05
-0.00034629398
-2.3616208e-05
-1.5609417e-05
-0.00029837119
-5.122167e-05
-6.5983525e-05
-0.00019131558
-2.860116e-05
-0.00015221998
0.0001011802
-7.4859595e-05
0.00014513868
9.5969875e-05
4.0068247e-05
4.8541472e-05
9.1864807e-06
7.9677326e-07
-8.6742343e-05
6.9795184e-05
-1.3246452e-05
-2.5658482e-05
-0.00025995339
1.9152548e-05
-8.2831069e-06
-0.00043363383
-5.0530415e-05
8.2925937e-06
-0.0004340765
-5.2699747e-05
8.6620449e-05
-0.00026940306
2.9033857e-06
-3.5369759e-05
4.7481478e-05
-8.0494567e-06
-0.00013743778
2.2602792e-05
-2.7720686e-06
0.00014808395
9.1176579e-05
3.8668275e-05
6.5929775e-05
9.3521649e-05
-7.5042318e-05
1.6393233e-05
-0.00019355098
-2.8373095e-05
3.0439408e-05
-0.00029568886
-4.8487167e-05
1.7253784e-05
-0.00034735619
-2.2792519e-05
4.7346833e-06
-0.00021030037
-2.5711456e-05
-2.898473e-05
-0.00037120429
-1.5020121e-05
7.5219532e-06
-0.00038751512
-4.4639749e-05
-0.00010585235
2.7057619e-05
-3.9366235e-05
-0.00031288364
0.00019336408
-2.4958227e-05
-7.5474062e-06
6.7199268e-05
4.6421068e-05
-5.2760981e-05
0.00030349038
-6.4079017e-05
0.00039158108
-6.3008328e-05
0.000154173
-0.00015151587
-3.0895862e-05
-0.00018544273
-5.409344e-05
-0.00018564673
-0.0001719487
-0.00022843872
-0.00026539478
-0.00020492511
-0.00026606553
-0.00019064483
-6.0020413e-05
-0.00010486492
0.00011072285
-7.4773393e-05
0.00021787409
-9.7964767e-05
0.00039070829
-0.00010303902
0.00029356772
-0.00016281283
-2.2630423e-06
-0.00013780307
-0.00029402402
-0.00014231553
-0.00039315573
-0.00017027136
-0.00023212579
-0.00011354846
-0.00010999555
-9.9527451e-05
6.0697304e-05
-7.9516268e-05
0.00026219155
-0.00010797259
0.00026144037
-0.0001927998
0.00017112546
-0.00020537394
5.2521116e-05
-0.00022875184
2.799516e-05
-0.00018577441
-0.00015689036
-0.00018631877
-0.00039282267
-0.00015158282
-0.0003030446
-6.2720459e-05
-4.5481966e-05
-6.4198559e-05
-5.3029375e-05
-8.6719725e-05
0.00015139104
-3.6532258e-05
-0.00015198897
0.00015556351
-6.7206749e-05
-0.00018661969
0.00014505003
-2.4654262e-05
-0.00019467485
7.7908063e-05
5.6081858e-05
-9.5654617e-05
-1.2231037e-05
4.8164923e-05
0.00011557215
-0.00018659905
4.2774525e-05
0.00018607296
-1.3164021e-05
3.8698997e-05
0.00016870795
0.00010981588
-1.8908393e-05
0.00011437131
9.2659974e-05
4.454784e-05
-1.1699175e-05
0.00011199743
8.1130706e-05
-0.00019963987
0.00014337764
0.00010025901
-0.00029122305
4.2770482e-05
0.00011439389
-0.00014435671
-0.00026243354
0.00013174969
-9.664413e-06
-0.00022573815
9.5695611e-05
1.0261206e-05
-0.00012641506
0.00018388567
2.291321e-05
-0.00011710013
0.00018297517
0.00014977037
-0.00024122136
0.00012333585
0.00028892168
-0.00025068925
0.00014002373
0.00019166281
5.4373648e-05
0.00012348804
4.5768732e-06
0.00014473704
0.00010701734
-0.0001174229
0.00011178856
8.2557792e-05
-0.00017023482
9.3378057e-05
4.2754661e-05
-0.00018935574
0.00011163359
-2.004265e-05
-0.00011746279
-1.4055376e-05
3.7953479e-05
9.5350078e-05
-0.00018655401
4.1242881e-05
0.00019357583
-9.1981095e-06
4.6074532e-05
0.00018613897
7.8094258e-05
5.4904825e-05
0.0001516523
0.00014521919
-2.5286865e-05
8.6607094e-05
0.0001555189
-6.7772166e-05
0.0001516031
-3.7151318e-05
-8.2016414e-05
0.00043513415
-0.00018901097
-0.00020757125
0.00048796279
-0.00013475084
-0.00025151732
0.00037014619
-6.2826835e-05
-0.00016521191
4.9340516e-05
0.00014174219
-3.5801905e-05
-0.00013613884
0.00021054688
0.00020736068
-0.00049230618
0.00016813839
0.00029300532
-8.7891964e-05
0.00015615151
0.00018713648
0.00034702863
4.6310014e-05
0.00021115316
0.00011095677
0.00012034928
-8.8172703e-05
0.0005251456
7.2972571e-05
-0.00045491784
0.00055174572
6.7757507e-05
-0.00039344518
-2.8843065e-05
0.000120322
-0.0001640196
-0.00059131969
9.9471233e-05
-2.2097278e-05
-0.00045629474
1.0855479e-06
1.2127549e-05
-0.000317621
0.00018423114
3.454639e-05
-0.0002966578
0.00018858041
0.00016664988
-0.00049812534
3.3205553e-05
0.00039121301
-0.00057708121
0.00010694165
0.00044886293
-9.8643109e-06
0.00012524571
8.3279546e-05
0.0005513292
7.3214297e-05
-0.00021127052
0.00051946039
7.4271105e-05
-0.00018573305
0.00011203343
0.00011755283
-0.00029331665
0.00035457127
4.0120406e-05
-0.00020739555
-9.0587641e-05
0.00015582997
3.712485e-05
-0.00049236508
0.00016702902
0.00016494545
-0.00012931596
0.00020977249
0.00025030974
5.1219601e-05
0.00014064535
0.00020603614
0.00037119863
-6.4081269e-05
8.0614635e-05
0.000487557
-0.00013578127
0.00043443811
-0.0001910519
7.5105521e-05
0.00036191118
-4.5134035e-05
-2.7239748e-05
0.00041773002
8.6366133e-05
-2.8946372e-05
0.00023205485
7.1721463e-05
0.00019958962
-0.00025797677
2.6253494e-05
0.00024960775
-0.00022620933
-1.6480952e-05
-8.7141397e-05
-0.00012109623
-7.9326851e-05
-0.0001416636
-5.2916393e-05
-2.6876323e-05
-2.2727561e-05
0.00020827057
3.5667956e-05
4.0437188e-05
1.3506645e-05
-5.116274e-05
4.6897e-05
0.00045242303
4.1145492e-05
0.00012701289
0.00049919817
1.3828689e-05
0.00031261749
-8.2509456e-05
-1.4185436e-05
5.1458246e-05
-0.00010321371
-0.00018694919
-0.00016020814
-6.808809e-05
-8.5948613e-05
-2.041712e-07
-0.00040213609
-0.00015950222
0.00015865729
-0.00039077137
-0.00015183684
-6.373902e-05
-6.6942706e-05
-0.00013138902
-0.00031593151
-0.00010156154
-0.00020911046
-0.00013095779
-7.3526201e-05
-2.6123969e-05
-5.1759521e-05
0.00049730962
1.5190046e-05
-4.3798992e-05
0.00044459321
3.8763457e-05
1.9677693e-05
1.4314418e-05
-5.0434715e-05
0.00014071722
0.00021424465
3.9919996e-05
8.3387247e-05
-5.2323409e-05
-2.7143079e-05
-0.00025431469
-0.00012110931
-7.9139698e-05
-0.00019871481
-0.00022553358
-1.7158707e-05
2.9730009e-05
-0.00025654874
2.6815284e-05
2.6661642e-05
0.0002335123
7.2672533e-05
-7.5416947e-05
0.00041757984
8.6410729e-05
0.0003610354
-4.489511e-05
8.3256087e-05
0.00023036623
0.00011494821
0.00011739349
0.00024198566
0.00011660215
0.00021355049
1.1726441e-05
8.5471878e-05
0.00020218631
-0.00030510468
1.4316993e-05
0.0001597574
-0.00014550121
-5.2517597e-05
2.1970617e-05
6.6721423e-05
-7.5140138e-05
-9.6229567e-05
9.6178098e-05
-5.4510512e-05
-1.3738115e-05
2.9505645e-05
4.5051803e-05
-0.00017424015
0.00021689348
-7.1485962e-05
-5.8323217e-06
0.00018800048
2.1155112e-05
0.00024825766
0.00023932678
4.5849643e-05
0.00018259373
9.9371409e-05
-0.00011542018
2.4641897e-05
0.00014773697
-0.00010624531
-3.8003085e-05
8.3360107e-05
-6.9650674e-05
-3.179997e-06
-0.00039414801
-9.334159e-05
2.8802935e-05
-0.00037795394
-9.7500111e-05
-3.7185362e-05
0.00010140382
-9.9454847e-05
-0.00018543075
0.00014160468
-0.00010297029
-0.00024568484
0.00010053177
-0.00011657594
7.3109324e-06
0.00023827185
4.4710275e-05
0.00017291672
0.00018468419
1.9260921e-05
1.032964e-05
0.00021920397
-7.0675561e-05
9.304356e-05
2.9381021e-05
5.366255e-05
-2.2536543e-05
9.5004634e-05
-5.4540449e-05
-0.00016041346
6.5711003e-05
-7.4654842e-05
-0.00020299777
-0.00014462939
-5.3340003e-05
-0.00021263484
-0.00030546782
1.3916396e-05
-0.00011718847
1.3042625e-05
8.5657063e-05
-8.3177095e-05
0.00024216635
0.00011644389
0.00022953874
0.00011551883
9.9170193e-05
7.8435073e-05
0.00023432024
4.2756608e-05
0.00023219534
-4.915697e-05
-2.2278355e-05
-0.00020214684
-0.00015376016
-0.00019946213
-0.0001237213
-0.00014896417
-0.0001470043
-0.00010897762
-0.00022081531
-0.00010160846
-0.00012480722
-6.975945e-05
1.3369255e-05
-5.5040921e-05
0.00017298652
4.9361134e-06
0.00021836564
-4.3972491e-05
0.00033439965
-7.1336063e-05
0.00038084054
-0.00012589362
-4.3747284e-06
-0.00014673582
-0.00037896411
-0.00014568009
-0.00032094869
-0.00012688296
-0.00021555957
-7.7332896e-05
-0.00016751722
-4.7038031e-05
-1.1562218e-05
2.8005834e-06
0.0001229332
-5.7783804e-05
0.00022066923
-7.1331851e-05
0.00014776105
-0.00010308473
0.00012247563
-0.00010846179
0.00015165934
-0.00014924712
2.1068817e-05
-0.00020035764
-0.00023298021
-0.00020300161
-0.0002339595
-4.8698556e-05
-9.858405e-05
4.2592329e-05
7.7925316e-05
-2.9998596e-05
0.00011666591
-0.00012087963
-2.1220571e-05
4.485152e-05
-0.00011843715
-2.501767e-05
8.0467432e-05
-9.9774116e-05
-5.6076146e-05
0.00013277508
-4.4539574e-05
-4.7786159e-05
0.00013865136
-9.7922807e-05
2.8005584e-06
8.3655148e-05
-9.1885653e-05
1.2493891e-06
0.00014885783
-0.00010845608
2.5796622e-06
0.00013247709
-0.00015246056
5.8403071e-06
0.00014071353
-9.9021087e-05
9.4373614e-06
0.00011889994
-4.2308002e-05
-2.2890216e-05
0.00011821444
1.3247241e-05
-0.00011851912
0.00014628725
6.4834532e-05
-0.00010735793
4.6149746e-05
7.6102627e-05
6.2399135e-05
-0.00018803997
0.00011405961
2.2042848e-05
0.00011916405
0.00010905917
-1.7929105e-05
0.00011554249
0.00011090001
0.00010123713
-0.00010658617
0.00011252972
8.9700152e-05
8.3078844e-05
7.1193367e-05
2.8807523e-06
0.00015134654
6.0633804e-05
-2.1168108e-05
0.00011729557
1.3024489e-05
-1.2974921e-05
0.00011918013
-4.5365172e-05
-7.6642769e-06
0.00014046768
-0.00010240743
-4.6120338e-06
0.00013110675
-0.00015371864
-5.4706992e-06
0.00014876388
-0.00010970521
4.610059e-05
8.3627681e-05
-9.4336451e-05
5.4002548e-05
0.0001392399
-0.00010021404
2.374581e-05
0.00013239373
-4.6178905e-05
2.027144e-05
8.0472618e-05
-0.00010067491
2.9840543e-05
4.4081842e-05
-0.00011901837
0.00011655347
-0.00012154007
-5.4901535e-06
0.00014615534
-0.00021301024
8.9753221e-05
-5.5532309e-05
-0.00012961038
0.00016180233
6.281341e-05
-0.00011722192
0.00015718209
0.00026099895
1.8138576e-05
4.7793865e-05
0.00041704342
4.1543043e-05
-1.6008675e-05
0.00031353311
2.0629767e-06
-3.5860261e-06
0.00037729858
-8.4711895e-05
0.00010118345
0.00017654839
-0.00010253076
0.00011814323
0.00041300089
-0.00016889787
-3.6806457e-05
0.00057649619
-0.00022967399
-0.00027495856
0.00056020532
-0.00013608127
-0.00036878093
0.0003757035
-1.5271893e-05
-0.000292725
-1.7912095e-05
8.7477137e-05
6.1757958e-06
-0.00054566262
5.980741e-05
3.9820881e-05
3.712142e-05
0.00023262869
3.3097613e-05
7.0817085e-05
0.00024002908
0.00026973589
-0.00040147369
9.14548e-05
0.00034963346
3.9506501e-06
0.00010617227
0.00026191233
0.00037019542
-5.8820416e-06
2.5843637e-05
0.00055684567
-0.0001302671
-0.00012463957
0.00057116683
-0.00022723239
-0.00010521347
0.00040554764
-0.00016695322
7.8041092e-06
0.00015765981
-9.9450221e-05
2.0312334e-05
0.00037295649
-8.0870856e-05
-4.7584888e-05
0.00031667401
1.8799184e-06
-0.0001600574
0.00042151856
3.9966333e-05
-0.00016326414
0.00025904456
1.7201251e-05
-9.0242954e-05
6.0969735e-05
-0.00011759957
4.6630687e-06
-5.7329559e-05
-0.00012927589
0.00014316726
-0.00021300262
-5.5558083e-06
4.8826549e-05
5.7750572e-05
-0.00011880536
-5.8196371e-05
0.00020227975
-8.8790501e-05
-6.461462e-05
0.00016913465
-7.0923139e-06
0.00012139467
8.4159598e-05
1.4408424e-05
0.00035068706
2.8374677e-05
4.7361765e-05
0.00024631733
-4.506441e-05
1.8109016e-05
0.00025127312
0.00012840189
5.8556679e-05
8.538003e-05
8.6388651e-05
4.0592871e-05
0.00028877466
9.1027287e-05
-6.873439e-06
0.00053927945
0.00012582853
-2.7317138e-05
0.0005250351
6.9442589e-05
0.00013086091
0.00028720254
-8.3862538e-05
0.00014826927
-5.0198763e-05
-0.0001720709
-0.00021368509
-9.5527635e-05
-0.00017412925
-2.2793586e-05
-0.00026218863
-5.1083676e-05
0.00017710862
-0.00023116094
-4.9761029e-05
-0.0001164128
-8.2651042e-05
-0.00015669024
-0.0001093211
-4.6365214e-05
-0.00016588629
2.5799332e-05
0.00028424838
-7.5297369e-05
6.7546266e-06
0.00052274517
6.8335252e-05
-4.0682574e-05
0.00053595993
0.00012140757
-5.863058e-05
0.00028129998
9.1760959e-05
-1.770865e-05
6.8172758e-05
8.8485126e-05
-4.5402503e-05
0.00024751736
0.00012598991
-1.4188029e-05
0.00025003582
-4.3715983e-05
7.4440251e-06
0.00035551053
2.7217272e-05
9.1410481e-05
0.00011868865
8.320473e-05
0.0001193962
-6.3531414e-05
0.00016918795
4.7476812e-06
-5.7558988e-05
0.00020128867
4.5883495e-05
5.7136335e-05
-2.228432e-05
9.2260148e-05
9.3798945e-05
-0.00036277561
0.0003136365
8.5260587e-05
-0.00032573213
-0.00010457799
8.8391791e-05
-0.0002678546
-1.0462929e-05
8.8297074e-05
-0.00010608833
0.00016729858
-3.089537e-05
-1.4168831e-06
0.0001414492
-7.4943444e-05
6.6803948e-05
8.091253e-05
4.7629249e-05
-4.0225084e-05
0.00015927564
7.8185225e-05
-5.9462939e-05
0.00017213701
6.4389539e-05
2.5448323e-05
0.00032916652
0.00014635677
0.00016947281
0.0003358156
9.1044647e-05
0.00026752383
0.00016828846
-9.4557136e-05
0.00016406617
0.00014049937
-0.0001934858
-1.8337843e-06
0.00011599101
-0.00011526937
-1.0953652e-05
-0.00026039776
-8.6012589e-05
1.2316195e-06
-0.0002482092
-9.2637121e-05
-0.00015071495
0.00013341509
-0.00016357442
-0.00026167695
0.00014755807
-0.00018593157
-0.00016706499
0.00016782368
-9.4763208e-05
-2.280029e-05
0.00033380082
8.9389931e-05
6.4477035e-05
0.00032698236
0.00014096117
4.248571e-05
0.00016970968
6.2906072e-05
-7.6513044e-05
0.00016474217
7.6091906e-05
-4.4162548e-06
7.6517401e-05
4.436273e-05
0.0001047078
0.00013983076
-7.3573835e-05
0.00026955938
0.00016865279
-3.1333835e-05
0.0003290764
-1.3435e-05
8.6523017e-05
0.00036575167
-0.00010123061
8.6680979e-05
2.426071e-05
0.00031550148
8.4874371e-05
9.2367478e-05
9.3295548e-05
-6.426603e-05
0.00023496126
8.1274724e-05
0.00021085237
-5.8429707e-05
-1.403052e-05
-0.00017997052
-9.1068952e-05
-0.00011034483
-0.00010178922
-5.2150095e-05
-6.5709696e-05
-8.9815003e-05
9.5998203e-06
-0.00013309174
0.00010094391
-0.00013330017
0.00010258598
3.5942725e-05
0.00010488269
0.00022303207
0.00015366236
0.00025795203
8.9396002e-05
0.00031458497
1.2530368e-05
0.00034734991
-4.2667547e-05
-5.3865538e-07
-5.924502e-05
-0.0003446698
-4.9758143e-05
-0.0003107782
-2.7359463e-05
-0.00024997939
9.4263555e-06
-0.00021485594
8.5662205e-05
-3.2333812e-05
0.00015407929
0.00013422976
0.000102635
0.00013301087
9.9596725e-05
9.3291709e-05
0.00010137662
5.1751076e-05
9.5962537e-06
0.00010789286
-6.5558127e-05
0.00017845492
-0.00010226692
5.4541888e-05
-9.252359e-05
-8.2357557e-05
-1.3029729e-05
6.4951505e-05
0.00021078474
0.0002352443
-8.6243016e-05
9.0783879e-05
-0.00012332931
6.468327e-05
-0.00022999976
-4.1195201e-05
0.0002222401
-0.00024268797
-1.6931806e-05
0.0001501707
8.8104255e-05
-5.9225977e-05
3.2168218e-05
0.00012805129
-0.00010887223
-4.7042133e-05
0.0001141644
-0.0001283029
-9.5865536e-05
9.5873749e-05
-0.00015388238
8.9504925e-06
-0.00010907194
-0.00014845572
6.9935042e-05
5.2449654e-06
-0.00016331819
0.00010434511
6.7008991e-05
-0.00014223514
0.00011833975
0.00010483054
-0.00010418672
6.9102057e-05
0.00015066896
-3.5025167e-05
5.2925774e-05
0.00014134803
-4.796731e-05
1.8138539e-05
0.000151675
-6.2765166e-07
0.00012946097
-1.4026424e-05
0.00012561775
-4.794836e-05
0.0001489261
-6.8144636e-05
0.00014041793
-4.8175651e-05
-0.00012012579
0.00014991522
-3.5646407e-05
-0.00010835794
0.00010626867
-0.0001035158
-7.6150348e-05
6.6914881e-05
-0.00014290473
-1.3204595e-05
-7.4589494e-07
-0.00016271337
9.7269422e-05
-0.00011880182
-0.00014567754
4.9299278e-05
9.4061677e-05
-0.00015416289
-3.1146191e-05
0.00011361406
-0.0001289751
-0.00015079465
0.0001278966
-0.00010944877
-0.00022260174
8.6109801e-05
-5.9551655e-05
-6.4495117e-05
-0.00024419971
-1.7004656e-05
8.6459306e-05
-0.00023032545
-4.1511211e-05
9.0746659e-05
-0.00012373546
-5.1523644e-05
5.0975617e-05
-0.00012167833
0.00010894467
-0.00053477984
1.4701383e-05
0.00029919716
-0.00058638723
3.6224858e-05
0.00036132282
5.2128385e-05
-8.0112004e-06
-1.4466566e-05
0.00059382552
-4.8441792e-05
-0.00031359855
0.00055962338
-0.00014426402
-0.00018231176
8.0819925e-06
-0.00012820693
5.2008783e-05
-0.00035622266
-8.9700581e-05
0.00015023724
-9.2928472e-05
-0.00016895289
0.00017200497
2.044797e-05
-0.00020488071
0.00017119579
0.00013453137
-0.00016497294
1.4984822e-05
0.00039393332
-0.00010232529
-0.0001372434
0.00040506993
-2.4016552e-05
-1.786341e-05
9.2102414e-05
3.706785e-05
0.0003071584
5.8298629e-05
0.00034441605
0.00011640065
0.00018227888
-2.8945395e-05
0.00041643996
-2.4503711e-05
-0.00016968903
0.00038782258
-0.00010304576
-0.00017606345
0.00014575798
-0.00016338199
-0.00015700469
2.5780602e-05
-0.00020515687
-5.7224399e-05
-0.00010169366
-0.00016578574
0.00018494417
-0.00037627109
-8.4149516e-05
0.00031627515
8.8895189e-06
-0.00012702968
1.714944e-05
0.00055836759
-0.0001437479
-0.00036132176
0.0005945976
-4.8263472e-05
-0.00029935792
4.7077969e-05
-5.7307606e-06
-0.00010948248
-0.00058842814
3.6753414e-05
5.0945463e-05
-0.00053485327
1.4823983e-05
5.0024812e-05
-0.00012133532
0.00026131374
-0.00026017346
0.00010758592
3.3066688e-05
-0.00017031439
6.6061368e-05
-0.00032646162
-9.8024036e-05
4.0299772e-05
-0.00016180683
6.9721808e-06
-3.5338975e-05
-5.8569534e-05
0.00056461814
-4.5655232e-05
3.3325055e-05
0.00050684731
-8.4182923e-05
0.00014425977
-0.00013606373
0.00016161291
4.0868754e-05
-0.00026986866
0.00010342566
-1.1142759e-05
-0.00010276016
0.00015287049
-6.7583308e-05
-3.2227134e-05
0.00023494418
-3.1971818e-05
6.014415e-05
0.00010821831
-7.4853561e-06
0.00031682957
-3.1245267e-05
-4.3086674e-05
0.00031707541
-4.8475066e-05
-0.00013829019
1.3176677e-05
-1.8531569e-05
0.0001363161
0.00013249919
0.00014362427
6.1326396e-05
9.6761423e-05
1.6954308e-05
0.0003354987
-4.057295e-05
3.9259862e-05
0.00031369527
-2.347562e-05
7.5428929e-05
7.1149973e-05
0.00010677419
2.3375479e-05
-3.0465706e-05
0.00022970734
-3.6962613e-05
-0.00010057069
0.00015097609
-0.00015403158
-0.0002713187
0.00010060171
-3.3757881e-05
-0.00014469413
0.00015929988
5.994007e-05
0.00050473302
-8.377936e-05
0.0001635188
0.00056465168
-4.6415535e-05
0.00032613526
5.096599e-06
-3.7430368e-05
-3.4474649e-05
-9.8722417e-05
4.0092128e-05
-0.0002617411
-0.00017191699
6.5618836e-05
-0.00026217322
0.00010759325
5.7543064e-05
-0.00029657705
7.2659482e-05
-2.7766166e-05
-6.7145609e-05
6.7401052e-05
-0.00021830445
0.00010140373
7.9502333e-05
-0.00034468037
0.00018148189
4.0163304e-05
-8.5341819e-05
0.00029925268
-2.4868452e-05
0.00014067261
0.00023459705
-2.8707592e-05
0.00015124671
-0.00013583515
3.6826563e-05
0.00018259777
-0.0002656456
4.2611111e-05
-1.7821077e-05
0.0001045
5.7548214e-05
-0.00025618498
0.0003104788
4.2014738e-05
-0.00029977509
0.00018682489
7.9539931e-06
-0.00010247164
5.4098548e-05
-2.9129582e-05
1.7343951e-05
9.2346356e-05
-8.8572345e-05
-0.00021214035
0.0001273916
-6.0793752e-05
-0.00010104309
0.00013445051
-0.00014425712
1.1599916e-05
5.6037594e-05
0.00012753844
0.00011806451
-8.4435902e-05
0.00030223967
6.7983718e-05
-2.3752881e-05
0.00027072767
0.00018038726
1.1664642e-05
3.894533e-05
0.00030382535
3.8452461e-05
-0.00016988461
0.00011421759
5.6947738e-05
-0.00014763141
-0.0002598042
4.2324219e-05
-0.00013649971
-0.00014807964
3.6616549e-05
8.7646727e-05
0.00023377704
-2.6764286e-05
0.00034567655
0.00030057467
-2.528665e-05
0.0002176974
0.00018395894
3.5639816e-05
2.708095e-05
0.00010112836
7.7446648e-05
-5.701945e-05
-6.9614894e-05
6.6672658e-05
-0.0002980179
7.2120778e-05
-0.00026932104
0.00020770527
-0.00032133836
0.00019572409
-0.00029555209
6.1586953e-05
-0.00021147327
6.3341274e-06
1.1420895e-05
-2.5430697e-05
0.00019853095
-1.8222696e-05
5.105643e-05
2.1239187e-05
-0.00022143162
0.00010778636
-0.0002213699
0.00020702425
-2.2528097e-05
0.00021651967
0.00010339023
0.00021456891
8.1639136e-05
0.00016524563
0.00010430146
8.2214393e-05
0.00018902551
2.8737396e-05
-0.00016527787
-0.00013659973
-8.4654148e-05
7.5545277e-05
-9.2929624e-05
0.0001619214
2.7458299e-05
0.00021407863
0.00021971347
0.00021420519
0.00022643658
0.00020709122
-4.1340725e-05
0.00010934973
-0.00019967836
1.9854252e-05
-1.3407543e-05
-1.8051901e-05
0.00021062616
-2.5725957e-05
0.00029672963
5.3318793e-06
0.00032384925
6.0978998e-05
0.0002702889
0.00019473018
0.00020751529
0.00011269359
-0.00023801275
-2.9692493e-08
0.00019592914
-0.00012620463
-2.8340926e-08
0.00027511095
-9.8557072e-05
6.6374618e-08
0.00016544131
4.8965331e-05
3.0007959e-07
-5.4670979e-05
0.00010858434
2.9046363e-07
-0.00022527509
4.0522415e-05
2.1960154e-07
-0.00020445481
-0.00017647684
2.5246445e-07
-7.9413238e-05
-0.00027637194
1.1090982e-07
4.6833822e-05
-0.00029263733
3.1677735e-07
0.00019147583
-0.00029121258
7.0673328e-07
0.00029715841
-0.00021207365
8.8109323e-07
0.0001804336
8.2945005e-05
1.0086074e-06
0.0001317576
3.4807278e-07
-0.00018000129
0.00013243451
-6.1578537e-07
-0.00029733746
8.5336741e-05
-1.0424855e-06
-0.00019365922
-0.0002072382
-8.9001953e-07
-5.111081e-05
-0.00028789858
-8.4623942e-07
7.567037e-05
-0.00029162742
-4.2987761e-07
0.00020252923
-0.00027500026
-1.8292188e-07
0.00022330085
-0.00017600554
-3.9472873e-07
5.3481588e-05
3.9545942e-05
-2.0063762e-07
-0.0001660657
0.00010821991
-2.3362374e-07
-0.00027607705
5.0231369e-05
-2.6091188e-07
-0.00019705302
-9.7970902e-05
-6.2010861e-08
-0.00011297399
-0.00012737462
3.5465408e-08
-0.00023874698
8.5876723e-09
0.0001614501
-0.00052089622
-2.4496678e-07
0.00032383042
-0.00027353356
-3.500021e-07
0.00053468798
-0.000272945
-2.4476363e-07
0.0005309721
4.5042983e-05
-3.7296914e-07
-1.5905946e-05
0.00060736947
-3.4886931e-07
-0.00036544352
0.00024597259
-1.7660911e-07
-0.00023193303
-0.00043796644
-2.2782489e-07
-6.7666099e-05
-0.00053004475
-2.9469797e-07
3.9138896e-05
-0.00056804333
-3.5188201e-07
0.0001011366
-0.0005584594
3.6839914e-07
0.00022686084
-0.00050236036
-4.1048054e-07
0.00023091845
-2.3049652e-05
-3.8825717e-07
0.00033872042
-6.0927744e-08
-0.00022766899
0.00033528638
3.1340313e-07
-0.00022320238
-2.3008792e-05
8.3316465e-07
-9.9524361e-05
-0.00049501197
7.1376154e-07
-3.8837888e-05
-0.0005534629
-2.7901786e-07
6.8457641e-05
-0.0005649641
2.5541826e-07
0.00023573764
-0.00052656163
1.3186905e-07
0.00036906352
-0.00043631112
-4.9977345e-08
2.1289099e-05
0.00024353878
3.3690626e-08
-0.00052677148
0.00060773352
2.8349687e-07
-0.00053547523
5.3194959e-05
9.3916948e-09
-0.00032455397
-0.00027237
2.3125206e-07
-0.00016160451
-0.00027587212
3.7201587e-07
-0.00052184274
1.5591795e-07
6.1189788e-05
-0.00047460126
1.0118205e-07
0.00018612529
-0.00033236567
-4.201264e-08
0.00010282787
-0.00014890201
-4.4578762e-07
0.00014383538
-3.1786045e-05
4.8256106e-07
0.00019547723
0.00051010769
-3.5287266e-08
0.00017020003
0.00018720996
-1.4309368e-07
3.8748091e-05
-0.00014408278
-8.1880922e-07
2.6122683e-05
-0.00041372913
-2.645496e-07
1.1350686e-05
-0.00040015667
-2.4418588e-07
-0.00020378898
-0.00010855485
1.7929316e-07
-0.0003615728
-0.0002348218
-1.5364492e-06
-0.00015879486
-0.00025579656
-1.2763163e-06
0.00013192013
-4.6964836e-07
0.00016023875
0.00013381424
6.6044082e-07
0.00036308541
-0.00025114843
1.8173584e-06
0.00020967933
-0.0002365891
1.7574058e-06
-6.4924793e-06
-0.00010749452
-8.9223241e-08
-2.5821587e-05
-0.00039454958
-1.0931259e-07
-3.8731946e-05
-0.00041282718
-2.2237036e-07
-0.00016834118
-0.00014767613
2.7412512e-07
-0.00019338138
0.00018482404
-2.4416879e-08
-0.00014371914
0.00051159343
6.2307151e-08
-0.0001024664
-2.5311486e-05
-1.7666046e-07
-0.00018429266
-0.00015097829
5.266634e-07
-6.1278328e-05
-0.00033327949
1.1864616e-08
-0.00047536127
-1.6654897e-07
6.831474e-05
-0.00047052601
2.69504e-07
0.00017014791
-0.00036701268
2.1491051e-07
0.00010528215
-4.7819265e-06
2.4803199e-07
-0.00012066739
0.00023307852
1.2482884e-06
0.00010292322
0.00026166103
-1.2391255e-08
6.6479778e-05
0.00019528515
-3.3932574e-07
-3.1078348e-05
-9.0047158e-06
-6.9336924e-07
1.0702943e-05
-0.0004125071
-3.9221204e-07
3.7434348e-05
-0.00036948356
1.4369136e-07
-5.7334719e-05
2.7612343e-05
6.165982e-07
-0.00013953569
-0.00014243793
-2.2289281e-06
-0.00017076652
-0.00025289629
-7.9905171e-07
-0.00012778634
3.6758459e-07
0.00017088589
-0.00012111363
-3.9392062e-07
0.00014003683
-0.00024533911
1.2868474e-06
5.9688077e-05
-0.00014673191
2.1562095e-06
-3.4993364e-05
2.5835972e-05
-1.9658143e-07
-9.6702539e-06
-0.00036273535
-1.895966e-07
3.1433689e-05
-0.00041190729
3.0039167e-07
-6.5635344e-05
-1.4380214e-05
3.8967994e-07
-0.00010304799
0.00019532718
1.4522008e-07
0.00011983065
0.00026329584
1.3229859e-07
-0.0001017707
0.00023271929
-7.8961402e-07
-0.00016857683
-6.8526918e-06
1.2716662e-07
-6.7822987e-05
-0.0003672232
-1.3748622e-07
-0.00047083442
-2.2906488e-07
-0.00026296578
1.4504635e-07
-0.00043493218
6.7782722e-07
-0.00037890698
7.7983818e-07
-0.0001398831
3.8877899e-07
9.6091421e-05
2.5582552e-07
0.00027296385
1.9002775e-07
0.00028462932
5.6900402e-07
-1.9815954e-05
-2.7546176e-07
-0.00018124312
-1.032148e-06
6.2913841e-05
-2.4948964e-08
0.00013428062
7.6419422e-07
4.6381458e-05
2.4847497e-07
8.0950802e-07
-4.5072991e-05
-4.9536479e-07
-0.00012859167
1.0097932e-07
-6.071972e-05
-5.2521832e-07
0.00017944482
-1.2337253e-07
2.3256008e-05
5.4469492e-07
-0.00027948147
1.7992658e-07
-0.00027352882
-4.7860355e-07
-9.6083004e-05
-1.7053224e-07
0.00014162197
-1.3508883e-07
0.00037998686
-3.137306e-07
0.00043492422
-8.1106247e-07
0.00026308724
-6.5604321e-07
-2.3189266e-07
0.00011291403
-0.00023831897
0.00012336587
0.00019674959
-0.00012706598
4.1403282e-05
0.00027629592
-9.8941289e-05
1.7061263e-05
0.00016695656
4.9056152e-05
5.9418532e-05
-5.2885951e-05
0.00010863955
0.00010914556
-0.00022366221
4.095416e-05
0.00012849187
-0.00020358638
-0.00017519243
0.00015388509
-7.8296843e-05
-0.00027608161
0.00014818398
4.7407755e-05
-0.00029122894
0.00016316892
0.000192418
-0.00029059927
0.00014274577