/*--------------------------------*- C++ -*----------------------------------*\
| =========                 |                                                 |
| \\      /  F ield         | OpenFOAM: The Open Source CFD Toolbox           |
|  \\    /   O peration     | Version:  v2012                                 |
|   \\  /    A nd           | Website:  www.openfoam.com                      |
|    \\/     M anipulation  |                                                 |
\*---------------------------------------------------------------------------*/
FoamFile
{
    version     2.0;
    format      ascii;
    class       volVectorField;
    location    "80/bottomWater";
    object      U;
}
// * * * * * * * * * * * * * * * * * * * * * * * * * * * * * * * * * * * * * //

dimensions      [0 1 -1 0 0 0 0];


internalField   nonuniform List<vector> 
1460
(
(-0.0011437076 -0.013647039 0.00078401067)
(-0.0033137381 -0.011953329 0.00082327118)
(-0.0033131745 -0.0099481388 0.0013884081)
(-0.0019264105 -0.010541615 0.0018272542)
(-0.00081631442 -0.010990896 0.0022166473)
(-0.00011489215 -0.012222889 0.001118091)
(0.0014149842 -0.01121361 0.0015083572)
(0.0016106434 -0.013130114 0.00129927)
(0.00073893214 -0.010741368 0.0011921568)
(0.0024236049 -0.012831852 0.0011548043)
(0.00043304241 -0.01464096 0.0010396691)
(-0.002873733 -0.017331015 0.00086846404)
(-0.0023320487 -0.014555651 -0.00029357103)
(-0.002124626 -0.01608022 -0.00051792525)
(-0.0021782339 -0.011212259 0.00031695955)
(0.0021051794 -0.01126066 0.00037263838)
(0.0019472527 -0.016058817 -0.00052646951)
(0.0021639833 -0.013929734 1.6326067e-05)
(0.0029150239 -0.01694594 0.0011283818)
(-0.00030423978 -0.014655946 0.0011539778)
(-0.0023842305 -0.012806375 0.0012137817)
(-0.0006134835 -0.010791714 0.001193199)
(-0.0016508659 -0.013369776 0.0012650106)
(-0.0014913664 -0.011188581 0.0014901265)
(8.1140313e-05 -0.012177124 0.0011163511)
(0.00081300438 -0.010968289 0.0022192843)
(0.0019257493 -0.010534541 0.0018201352)
(0.0033076522 -0.0099443124 0.0013865772)
(0.0033069276 -0.011942961 0.00082079805)
(0.0011361993 -0.013649241 0.00078172393)
(-0.0036791397 0.015229338 0.0024478357)
(-0.0049804124 0.012673416 0.0021695236)
(-0.0023369034 0.0026350493 0.00062060189)
(-0.0014580341 0.0007999633 0.0011881566)
(-0.00075656554 0.001423461 0.0021865268)
(0.00019042625 0.0050502617 0.002224225)
(0.0011777749 0.0027303954 0.001393065)
(0.00196456 0.010677684 0.0018625594)
(0.00057313163 0.0043499551 0.00060643075)
(0.0042608747 0.0096238069 0.0014367256)
(-0.0015619414 0.016569429 0.0018141702)
(-0.0066149023 0.017374258 0.0017278699)
(-0.0031572452 0.010650138 -0.00013736782)
(-0.0038039492 0.014545697 -0.0031227315)
(-0.001851262 7.996484e-05 -0.0001079044)
(0.0015986858 0.00013802959 -8.9132543e-05)
(0.0034033889 0.014636614 -0.0029628133)
(0.0031512731 0.0090045552 0.0004393818)
(0.0066417551 0.016287587 0.0021331595)
(0.001518446 0.016397744 0.0019892748)
(-0.0042406092 0.0093352257 0.0013995491)
(-0.00045792979 0.0045349342 0.00061711342)
(-0.0020202187 0.011223703 0.0019169436)
(-0.0012363314 0.0026737419 0.001375776)
(-0.00020157048 0.0049055014 0.0022131087)
(0.00075832682 0.0013497645 0.002172891)
(0.001452275 0.00081147759 0.0011765066)
(0.0023317706 0.0026608933 0.00062811246)
(0.0049745427 0.012669858 0.002171094)
(0.0036635575 0.01522722 0.0024524987)
(-0.0018350794 0.0022394653 0.00091140645)
(0.0048219246 -0.011358508 -0.0018001037)
(0.0010863152 -0.012416527 -0.0025164772)
(-0.00041062544 -0.011810678 -0.0015187526)
(-0.00026848046 -0.012433352 -0.00048888065)
(-0.00029321064 -0.012181169 0.00061977248)
(-0.001900392 -0.012567923 -0.00074287272)
(0.00012781 -0.01288174 -0.0019136213)
(0.00147596 -0.012538573 -0.0015614169)
(0.00012698161 -0.013090992 -0.0031202401)
(-0.001789272 0.0039410912 0.0010896796)
(0.0022239321 -0.016362378 0.003816197)
(-0.0029037691 -0.015137529 0.0029163758)
(-0.0019225046 -0.0094123072 0.0020332276)
(0.0011820076 -0.012476883 -0.00091317119)
(-0.0013634818 -0.012498252 -0.00099511931)
(0.00201466 -0.0095998317 0.0024112447)
(0.0030780262 -0.014863315 0.0028033902)
(-0.0026188987 -0.015999265 0.003510376)
(0.0017767605 0.0036111922 0.0011362294)
(-0.00038493604 -0.013147981 -0.0031583784)
(-0.0016657021 -0.012536658 -0.0015618436)
(-0.00012841626 -0.012939053 -0.0018351766)
(0.0019934356 -0.012579055 -0.00073996441)
(0.00029788425 -0.012165827 0.00059748512)
(0.00024867926 -0.012435841 -0.0005265357)
(0.00039339924 -0.011797082 -0.0015374816)
(-0.0011153753 -0.012403946 -0.0025117653)
(-0.0048160932 -0.011286295 -0.0017622034)
(0.0018213395 0.0022541815 0.0009320086)
(0.0021561478 0.0067002386 0.0015330298)
(0.0047405485 0.0093524273 -0.00098214832)
(-0.0016937188 0.0073715349 -0.0021408162)
(0.0014422507 -0.0023037883 -0.0012345376)
(-0.00055256357 -0.0021898591 -0.00016772548)
(0.00029942362 0.0029721547 -0.00026130767)
(-0.00063158005 -0.00093156323 -0.00060339068)
(-0.00039351807 0.00063671207 -0.002804747)
(0.00013923563 0.0025374806 0.00035523997)
(-0.0021951633 0.010284898 -0.0020433218)
(-0.00081703847 0.006660381 0.001284055)
(0.0036477938 0.01250761 0.0022087496)
(-0.0020657986 0.011701663 0.00067607839)
(-0.00049027099 0.0023264023 -0.00014713688)
(7.8495655e-05 -0.0036255829 -0.00087010197)
(-0.00026066489 -0.0036885974 -0.00094152661)
(0.00033159886 0.0022173188 -0.00027434319)
(0.0022351083 0.011320024 0.00076087566)
(-0.0034409192 0.012312252 0.002083158)
(0.00077856328 0.0065035505 0.001291964)
(0.002149717 0.010206839 -0.0020330876)
(-9.8319276e-05 0.002497292 0.0003201992)
(0.0003667122 0.00074399629 -0.002853298)
(0.00059583384 -0.00094977563 -0.00061192191)
(-0.00032827423 0.0029481517 -0.00028677417)
(0.00053712999 -0.0022147324 -0.0001845584)
(-0.0014485212 -0.0022806374 -0.0012459102)
(0.0016849227 0.0073900111 -0.0021614215)
(-0.0047542082 0.0093223642 -0.00097945941)
(-0.0021508062 0.0066723992 0.0015375994)
(-0.0016387522 -0.0067237341 -0.001729658)
(0.0029454594 -0.0023460278 -0.0012916879)
(0.0047529142 -0.0062444971 -0.0013427264)
(0.0044474934 -0.0081354511 -0.0022689505)
(-0.00027632122 -0.0079836121 -0.0031603074)
(-0.00042679652 -0.0082968194 -0.0036941222)
(-0.0010745286 -0.0084910963 -0.0046388343)
(-0.0031120583 -0.0083618941 -0.0040462899)
(-0.0036947298 -0.0073058871 -0.0035906571)
(-0.0025303955 -0.0063305683 -0.0019232519)
(0.0008553694 -0.0031147777 -0.0011171358)
(0.0018296678 -0.011932539 -0.0016591642)
(0.0040425995 -0.0089401168 -0.0016692004)
(0.0048657957 -0.0089983313 -0.0027911693)
(0.0031378776 -0.0084606198 -0.0024047371)
(-0.0031948979 -0.0084401837 -0.0025366369)
(-0.0048007255 -0.0091524541 -0.0029845397)
(-0.0042153844 -0.0093630997 -0.0018814131)
(-0.0019686786 -0.011188441 -0.0016366618)
(-0.0007946692 -0.0031204962 -0.0011888215)
(0.0024910943 -0.0065240639 -0.0019902153)
(0.0036396553 -0.0073297078 -0.0036559026)
(0.0030816298 -0.0083781637 -0.004076203)
(0.0010663451 -0.008505868 -0.0046486627)
(0.00039727647 -0.0083130829 -0.0036958092)
(0.00023415994 -0.0079803614 -0.0031693569)
(-0.0044757506 -0.0081159828 -0.0022636368)
(-0.0047502937 -0.0061879806 -0.0013385902)
(-0.0029553529 -0.0023027679 -0.0012916773)
(0.0016747575 -0.0067165787 -0.0017364324)
(-0.00048270631 -0.014090923 0.00033764425)
(-0.0016278714 -0.014179876 0.00013926818)
(-0.0022541861 -0.013644556 0.001858163)
(-0.0025269625 -0.01372518 0.0026883376)
(-0.0024208507 -0.012944503 0.0027749753)
(0.00028203659 -0.010978956 0.0017564829)
(0.0023483161 -0.015488246 0.0022601377)
(0.0024069738 -0.015773953 0.0016485827)
(0.0016965979 -0.016291041 0.001942463)
(0.0013171653 -0.015909443 0.0015313881)
(-0.0015901774 -0.014656145 0.0012037261)
(-0.0037725879 -0.013571131 0.0015326918)
(-0.0029678937 -0.011559356 0.0011738129)
(-0.00084119719 -0.012556598 0.00090071973)
(0.00053418947 -0.011761596 0.0028084891)
(-0.00028988523 -0.011818532 0.0027674552)
(0.00096350783 -0.012252497 0.0010908097)
(0.0029831246 -0.011396785 0.0013498978)
(0.0036987036 -0.013414252 0.0017941192)
(0.0014675781 -0.01463416 0.0014263744)
(-0.0013704728 -0.015852632 0.0016582401)
(-0.0017130987 -0.016284574 0.0019632666)
(-0.002440622 -0.015767002 0.0016425484)
(-0.0023859953 -0.015436804 0.0022679193)
(-0.00028998036 -0.0109652 0.0017606799)
(0.002418866 -0.013013275 0.0027674193)
(0.0025158604 -0.013751581 0.0026843181)
(0.0022490777 -0.01365123 0.0018505216)
(0.0016248305 -0.01417705 0.00012557674)
(0.00048231568 -0.014081063 0.00032745422)
(-0.00040842145 0.015835092 -0.0021044874)
(-0.0018471186 0.016012544 0.00016795602)
(-0.0031726404 0.015293801 0.0032321724)
(-0.0028221942 0.014084575 0.0056101808)
(-0.0017188777 0.010888476 0.0052704581)
(0.0011075355 0.0023909752 0.0016948684)
(0.0035785013 0.013423246 0.0044418818)
(0.0032169808 0.016680229 0.0042421075)
(0.0020365084 0.016899011 0.0050949259)
(0.0027718891 0.016836836 0.0049160613)
(-0.0050178707 0.01621881 0.0021245294)
(-0.006945104 0.013168581 0.0020364208)
(-0.0020011633 0.00022234754 0.0001967626)
(-0.0018405864 0.0026150758 0.00046504625)
(0.0010621827 0.0055280391 0.0011803657)
(-0.00075888581 0.0059532858 0.0012790344)
(0.0019032458 0.0017454285 0.00015585172)
(0.0019883013 0.00048459316 -0.00015539903)
(0.0069317795 0.013364063 0.0019364981)
(0.0048798439 0.016229702 0.0021425706)
(-0.0028160065 0.016779985 0.0049645357)
(-0.0019925281 0.016908075 0.005053705)
(-0.003226409 0.01671064 0.0041209864)
(-0.0035700619 0.01334779 0.0043963246)
(-0.0011174987 0.0023803172 0.0016961033)
(0.0017534919 0.011047314 0.0053261411)
(0.0027938209 0.014115019 0.0056089611)
(0.003159822 0.015303806 0.0031989446)
(0.0018250481 0.01600858 0.00012165818)
(0.0003937925 0.015829754 -0.0021598799)
(0.00080244306 0.0011123148 -0.0022781612)
(0.00094514056 0.0026713251 -0.0011062747)
(-0.0018084506 -0.00075626211 0.0001520052)
(0.001303984 -0.011318007 -0.00047415987)
(0.0035600891 -0.012847327 -0.0017633132)
(0.002105822 -0.013494785 -0.0026798322)
(-0.004007592 -0.014377908 -0.001224012)
(0.0006854407 -0.0028636943 0.002360752)
(-0.0013512344 -0.011597566 -0.0013776008)
(0.0025528529 0.0031619732 0.0023378251)
(-0.0015226055 0.0045903434 0.00041301958)
(0.0043990559 -0.012924726 0.00011455349)
(0.003556654 -0.014153049 -0.0016992374)
(-0.00229871 -0.012953275 0.00095361139)
(-0.0013479069 -0.012082992 -0.0024139229)
(0.001348695 -0.011968008 -0.0024166018)
(0.0022001918 -0.013211386 4.5153276e-05)
(-0.0036813293 -0.014019944 -0.0024344252)
(-0.0043805018 -0.01255276 -0.00038269008)
(0.0014109305 0.0045565279 0.00035186734)
(-0.0025677531 0.003018718 0.0022718397)
(0.0012835548 -0.01156646 -0.0013502331)
(-0.00070481711 -0.0026361085 0.0024320924)
(0.0040031393 -0.0143602 -0.0012208203)
(-0.0021895901 -0.013487776 -0.0026884161)
(-0.0035829242 -0.012852068 -0.0017656197)
(-0.0012776731 -0.011261626 -0.00044281532)
(0.0018002097 -0.0007287668 0.0001518508)
(-0.00095329111 0.0026630244 -0.0011214613)
(-0.0008042665 0.0010941965 -0.0022863094)
(0.00091344514 0.0072570991 0.0011056335)
(0.0013099555 0.0073125281 0.00033955197)
(0.0016395639 0.0058843699 0.00089374182)
(0.0034363397 0.0015327057 -0.00062687569)
(0.001411089 0.0041315732 -0.0005898237)
(0.0030331693 0.0085824474 -0.00091018411)
(-0.0027350598 0.011814071 -0.00063344022)
(0.00099689466 0.0073049077 0.00098559712)
(-0.0016176335 0.011295633 -0.0017808225)
(-0.0018841099 0.0076726626 -0.00045568953)
(0.0017536298 0.0076461485 4.7864245e-05)
(0.003503209 0.009238027 -0.0022259351)
(0.0019067049 0.0099324276 -0.0011108416)
(-0.0015778418 0.0099406725 0.00068910209)
(0.00094673683 -0.00217649 -0.0012717937)
(-0.0010115876 -0.0019278887 -0.0012922119)
(0.0014479242 0.010246954 0.00031147897)
(-0.0020236832 0.0098579477 -0.0010249212)
(-0.0034562783 0.009205622 -0.0022562067)
(-0.001749816 0.0076327929 -6.912785e-06)
(0.001912018 0.0076068242 -0.00047942805)
(0.0015642735 0.011289421 -0.0017343775)
(-0.0010664424 0.0072360279 0.0011649531)
(0.0027341273 0.011821508 -0.00058651532)
(-0.003042402 0.0085767959 -0.00090942)
(-0.0014221182 0.0041565824 -0.0006085407)
(-0.0034369975 0.0015259384 -0.00063073021)
(-0.0016219852 0.0058937046 0.0008924907)
(-0.0013134822 0.0073151698 0.0003385264)
(-0.00090915201 0.007251121 0.0011234935)
(0.00074596859 0.00083944403 -0.00017774408)
(0.0018770698 0.001093606 -0.001290202)
(0.0038418007 -0.0052825038 -0.0009438806)
(0.0016595609 -0.0093582756 -0.0035979949)
(-0.0021833893 -0.0075114158 -0.0041003774)
(-0.0014445602 -0.0059356532 -0.0033577565)
(-0.0014638002 -0.0079933954 -0.0035393645)
(-0.0026090384 -0.0060186789 -0.0036862051)
(-0.0023529148 -0.0032619406 -0.0031039878)
(-0.0011168705 -0.00095212905 -0.0022067592)
(0.001533405 0.00070061935 -0.0016682377)
(0.0024895473 -0.0053059958 -0.0020711235)
(0.0033865714 -0.004553873 -0.0020415241)
(0.0045406648 -0.0066539533 -0.0029780984)
(0.0047514965 -0.0084267784 -0.0030154708)
(-0.0048538586 -0.0082102448 -0.0030455638)
(-0.0043408823 -0.0063378851 -0.0030327674)
(-0.0033219129 -0.0046857855 -0.002201105)
(-0.0024512697 -0.0052365728 -0.0021464884)
(-0.0014570923 0.00067841735 -0.0017658755)
(0.0010923522 -0.0009941068 -0.0022564938)
(0.0023318885 -0.0031792961 -0.0031144416)
(0.0026239511 -0.0059567183 -0.003703211)
(0.0014679927 -0.0080436287 -0.0035408558)
(0.0014119546 -0.0059663468 -0.0033647121)
(0.0021673619 -0.0075119342 -0.0041228083)
(-0.0016769159 -0.009363004 -0.0036056978)
(-0.0038407523 -0.0052381805 -0.00094765874)
(-0.001871288 0.0010975003 -0.0012959719)
(-0.00073686363 0.00081924559 -0.0001883709)
(-0.00032488805 -0.01563774 -0.0018343493)
(-0.0004818178 -0.015166785 -0.0029343217)
(2.5383702e-06 -0.016416032 -0.0029060781)
(-0.00062008708 -0.016000261 -0.00051912476)
(-0.00085929836 -0.014244034 -0.0010875607)
(-0.00022270437 -0.014781353 -0.00035676466)
(0.00026628358 -0.01427353 -0.00089597696)
(-0.00022635634 -0.013503093 -0.0024501004)
(0.00026950857 -0.014686394 -0.00024580771)
(-8.2342759e-05 -0.015994618 0.001583424)
(0.00035215106 -0.015759895 0.002656998)
(-0.0010189648 -0.013343114 0.0027310808)
(-0.0020340878 -0.012266324 0.0033394553)
(-0.00035371676 -0.0098081229 0.0024378468)
(0.0016553011 -0.012939281 0.003619419)
(-0.0010187923 -0.013468758 0.0036588669)
(0.00065801799 -0.010370092 0.0031495463)
(0.0016572738 -0.012209358 0.0034271055)
(0.00065336 -0.013218624 0.0027496993)
(-0.00054710727 -0.015732827 0.0026576004)
(-3.9707699e-05 -0.015887356 0.001490141)
(-0.00034101361 -0.014629128 -0.00036220521)
(0.00018112686 -0.013461612 -0.002495066)
(-0.00030839677 -0.014235045 -0.00093427176)
(0.00020750164 -0.014788922 -0.00041577589)
(0.00083401404 -0.014260377 -0.0011542273)
(0.0005932937 -0.016020536 -0.00056332411)
(-1.3417766e-05 -0.016401112 -0.0029252148)
(0.00047214777 -0.015160959 -0.002942697)
(0.00032912372 -0.015653247 -0.0018479336)
(-0.0011424731 0.016742651 -0.0044814901)
(0.000958208 0.014852962 -0.0048945966)
(0.0015238774 0.016826199 -0.0052811923)
(0.0023124964 0.017379354 0.00010215135)
(0.0013138329 0.015699138 0.0024894347)
(2.5625341e-05 0.015168356 0.0040042383)
(-0.00045378023 0.015948475 0.0010889263)
(0.00041826219 0.014856548 -0.0023168758)
(0.0018061248 0.016194813 -0.00086740366)
(0.0013178984 0.017039965 -0.001969893)
(-0.0022766186 0.016789872 0.00036546384)
(-0.0047466765 0.014992608 0.0026251451)
(-0.0047285901 0.011971235 0.0029836949)
(-0.0019235158 0.0011977076 -0.00052855135)
(0.0019786388 0.014114159 0.0052650854)
(-0.00090437856 0.014568796 0.0053577569)
(0.0019240197 0.0049263535 0.00073249755)
(0.0042994005 0.012668884 0.0036505417)
(0.0045426048 0.014980661 0.0029420892)
(0.0021380385 0.016749206 0.00054154815)
(-0.001443695 0.016944329 -0.0019539709)
(-0.0018696749 0.016136412 -0.00093056465)
(-0.00042945186 0.014793887 -0.0024341934)
(0.00053957286 0.01591052 0.0011277241)
(4.5650277e-06 0.015176399 0.0039668962)
(-0.0013388245 0.015728627 0.0024370674)
(-0.0023528108 0.017393899 6.1291568e-05)
(-0.0015219798 0.016810887 -0.0052901858)
(-0.00097291766 0.014825092 -0.0048810334)
(0.001133263 0.016757136 -0.0044927202)
(0.00047375766 -0.01012373 0.0003894877)
(-0.00065737685 -0.015121029 0.00448059)
(-0.0021608975 -0.013473674 0.0029510763)
(-0.00012626821 -0.0065388039 0.00166576)
(-6.5497937e-05 0.00067559979 0.0013104689)
(0.00054455455 -0.0023392395 0.00030915242)
(0.00035574664 -0.001022501 0.00046806901)
(0.00026215227 -0.0070327443 -0.00071511039)
(0.00092267965 -2.9139169e-05 -0.00042463801)
(0.00030553169 0.0047539482 -0.00061008897)
(-0.00042289275 0.0044597842 0.00027636291)
(-0.00045333072 -0.0001674085 -0.00048198459)
(0.0040956709 -0.011384261 -0.0048638637)
(-0.00101951 -0.013750662 -0.0043922594)
(-0.0034852818 -0.011902948 -0.0033842134)
(0.0028180373 -0.010930062 -0.0032337645)
(0.00096716438 -0.013587355 -0.0047766624)
(-0.0034072981 -0.011426733 -0.0049111837)
(0.00038631228 -0.00033931347 -0.00036386652)
(0.00043960393 0.0043893338 0.00039947125)
(-0.00032246203 0.0046669119 -0.00062993433)
(-0.00090941967 -0.00022924993 -0.0004204005)
(-0.00027612732 -0.007677227 -0.00060280365)
(-0.00032983276 -0.0011362673 0.00045705484)
(-0.00052548859 -0.0022383952 0.0003267972)
(5.1158145e-05 0.00079679406 0.0012894674)
(0.00015216289 -0.006628656 0.0016605542)
(0.0021852917 -0.013556589 0.0029864785)
(0.00064890576 -0.015126353 0.0044724052)
(-0.00048821689 -0.010252098 0.00040375911)
(0.0028434317 0.010603544 0.0026936811)
(-0.0036143966 0.012254971 0.0033000966)
(-0.0046165706 0.010465214 0.0020144691)
(-0.004082854 0.0086950156 0.0013227645)
(-0.0021470657 0.0073864251 -0.000986548)
(-0.00081694791 0.0075762308 -0.0015262439)
(0.00084067405 0.0065643191 -0.00082189579)
(0.00045115189 0.0083095478 0.00069596074)
(-0.0012123997 0.0065086095 -0.00022827398)
(-0.00038450235 0.0084214694 0.0014258227)
(0.0011548584 0.0083389304 0.002016614)
(0.0026970933 0.006603875 -0.0015692355)
(0.0037584212 0.0089350141 -0.0032882733)
(0.00015285175 0.0097356929 -0.0030263535)
(-0.00014365808 0.0020132967 -0.0022676836)
(-9.2077369e-05 0.0021030551 -0.0024258801)
(5.9382512e-05 0.0099907149 -0.0037911014)
(-0.0036104855 0.0091232749 -0.0032334878)
(-0.002698223 0.0066817726 -0.0015936878)
(-0.0011018226 0.0083361303 0.002017714)
(0.00040458278 0.0084093771 0.0013698031)
(0.0013296939 0.0065067121 -0.00025415873)
(-0.00052578586 0.0085676717 0.00072887979)
(-0.00097810231 0.0065759412 -0.00087510417)
(0.00078962769 0.0075725653 -0.0015087405)
(0.0021334088 0.0073970809 -0.00099440729)
(0.0041290321 0.0087205665 0.0013079022)
(0.0046617073 0.010585761 0.0020200427)
(0.0036411123 0.012286139 0.0032944229)
(-0.0028122332 0.010673369 0.002692217)
(-0.00088367848 -0.0068934007 0.0034001703)
(-0.00037932112 -0.00095267328 0.0031835782)
(0.0019096615 -0.012762065 -0.0011349067)
(-0.0030202446 -0.00872979 -0.0036167901)
(-0.0018040091 -0.0013752641 -0.003006226)
(-0.00077372389 -0.0023486348 -0.0019134605)
(-0.0006572508 -0.0034832763 -0.00041589895)
(-0.0014484872 -0.002419583 0.00024814827)
(-0.0020389623 -0.00032891975 0.00035181601)
(-0.0010772359 0.002868932 0.00036707197)
(0.0020339151 0.0031264015 0.0019269438)
(0.0031537579 -0.000498964 0.00058662118)
(0.0036830458 -0.0036494114 -0.00050391766)
(0.0040244002 -0.0053446487 -0.0016381813)
(0.0042845357 -0.0086208278 -0.0021890915)
(-0.0042937252 -0.008383701 -0.0021230331)
(-0.0039697377 -0.0049868595 -0.001604764)
(-0.0036050062 -0.0035886493 -0.00053998091)
(-0.0030389928 -0.00058269138 0.00055429832)
(-0.0019547715 0.0030739936 0.001927152)
(0.0010916666 0.002820141 0.00032125555)
(0.0020467766 -0.00039889529 0.00029852558)
(0.0014617488 -0.0024796807 0.0002218548)
(0.00070163707 -0.0036400455 -0.00039524335)
(0.00072864157 -0.0024007401 -0.001914909)
(0.0017910832 -0.0013430879 -0.0030176191)
(0.00298551 -0.008806982 -0.0036453788)
(-0.0019579308 -0.012794485 -0.0011112976)
(0.00040120552 -0.00092209039 0.0031832812)
(0.00087938509 -0.0069571802 0.0033958493)
(-0.0015446132 -0.013263772 -0.0028463716)
(-0.00035133868 -0.010669791 -0.0011434098)
(0.0020395492 -0.01045035 -0.00052323922)
(0.0030435093 -0.012408771 -0.0012364918)
(0.0010490052 -0.015441221 -0.0024000311)
(-0.0001683035 -0.015895541 -0.0028719807)
(-0.0012127767 -0.012779416 -0.0033897588)
(-0.00088059268 -0.010539663 -0.0033462383)
(0.0010202947 -0.013949635 -0.0037388251)
(0.00088248846 -0.014185726 -0.0033791037)
(0.0017297463 -0.013498719 -0.0022676656)
(0.0011294446 -0.013636278 -0.00029715446)
(0.00073827849 -0.014243857 -0.00029424969)
(0.00041658059 -0.01310161 0.0016842373)
(0.00012209082 -0.014978681 0.00079403588)
(-0.00013143855 -0.015167586 0.00081087453)
(-0.00029932108 -0.013082178 0.0012568004)
(-0.00073639576 -0.014315261 -0.00050472512)
(-0.0011206177 -0.013601411 -0.00038233362)
(-0.0017668483 -0.013472633 -0.0022680897)
(-0.00095514854 -0.014176487 -0.0033955994)
(-0.0011035383 -0.013995561 -0.0037372034)
(0.00087467619 -0.010405962 -0.003274219)
(0.0012495815 -0.012694657 -0.0033925992)
(0.00019372489 -0.015888904 -0.0028989911)
(-0.001049824 -0.015449366 -0.0024167888)
(-0.0030550462 -0.01242609 -0.001249587)
(-0.0020383455 -0.010457001 -0.00053267015)
(0.00035379673 -0.010670876 -0.0011561127)
(0.0015472162 -0.013265888 -0.0028592226)
(-0.0029728466 0.013881743 -0.0040663065)
(0.0019850022 0.00049680914 0.00041989527)
(0.000869425 -0.00019009323 0.0012165595)
(0.0057989465 0.012933405 0.00046425779)
(0.0038059046 0.01668933 -0.00074771428)
(-0.0041824236 0.016867698 -0.0038730149)
(-0.0035513511 0.013464824 -0.004043535)
(-0.00063099338 0.0049474746 -0.0017413519)
(0.0017313554 0.012444377 -0.0053146882)
(0.0020983138 0.014356271 -0.0070875305)
(0.002133486 0.014332813 -0.0056915245)
(0.002103407 0.015379866 -0.0031368652)
(-0.0017615303 0.01578695 0.000590381)
(-0.001407681 0.01491675 0.0028704425)
(0.00087229512 0.016299581 0.0037639174)
(9.9220279e-05 0.016403263 0.0039092421)
(0.0014080255 0.014817342 0.0028405706)
(0.0013764863 0.015834932 0.00059933211)
(-0.0021074206 0.015329047 -0.0031348723)
(-0.0021517785 0.014334855 -0.0056583167)
(-0.0021825586 0.014346856 -0.0070285198)
(-0.0017918802 0.012313723 -0.0051731631)
(0.00057561653 0.004425155 -0.0015192229)
(0.0036449551 0.0133453 -0.0039556403)
(0.0042174877 0.016850483 -0.0038384084)
(-0.0037813804 0.016697026 -0.00075790347)
(-0.0058116655 0.012930889 0.00048668227)
(-0.00087140331 -0.00023334402 0.0012110981)
(-0.0019965137 0.00048649491 0.00041410193)
(0.0029726759 0.013883095 -0.004061318)
(0.0024162073 -0.011069852 0.0017725866)
(0.0036397846 -0.012768083 0.0023867288)
(-0.0029948907 -0.013559414 0.0025077391)
(-0.0046154213 -0.010109454 0.0010043865)
(0.00092181866 0.0055689947 -0.00044211001)
(-0.0023817715 0.0042660595 -0.0023345312)
(0.0030192617 -0.012094338 0.0039731633)
(0.00073321451 -0.012313944 0.0034849145)
(0.00044461851 -0.013445955 0.0036119163)
(-0.00079368359 -0.012580686 0.0049399111)
(-0.00092020939 -0.008116717 0.0020033672)
(0.00019222798 0.00013197958 -0.0025420915)
(-0.00030032277 0.00010486427 -0.0011820444)
(-0.0010827691 -0.010383465 -0.0014841875)
(-0.0018855421 -0.0038355631 0.0016566678)
(0.0014795651 -0.0026200192 0.0016025223)
(0.0013710878 -0.0068469125 -0.0005523314)
(0.00047469578 0.00045528617 -0.00094323559)
(-0.00014366497 -2.590402e-05 -0.0023873094)
(0.001026712 -0.0076967044 0.001832866)
(0.00090194661 -0.012415091 0.0047862363)
(-0.00021799705 -0.013502654 0.0036182917)
(-0.00085850768 -0.012318042 0.0034375424)
(-0.0030924877 -0.011949124 0.0038978675)
(0.002438851 0.0042389747 -0.0023005305)
(-0.00091142398 0.0055793468 -0.00046290484)
(0.004634362 -0.010154496 0.00096491976)
(0.0029749898 -0.013576774 0.0024747786)
(-0.0036529966 -0.012758737 0.002369586)
(-0.0024183651 -0.011111586 0.0017644322)
(0.00052758567 0.001278002 0.0012059055)
(0.0006588883 0.0061159608 0.00038274902)
(-0.0011624793 0.009492661 0.0014092452)
(-0.0051058458 0.0096623697 0.0015746884)
(-0.0023822039 0.0084242108 -0.00030743495)
(-1.4460844e-05 0.0080933003 -0.0014508036)
(0.0030448462 0.0064741087 0.0021525702)
(0.0012860995 0.0021883104 0.0019581244)
(0.002681259 0.0089286777 0.001998137)
(-0.0029824685 0.010809129 0.003306532)
(-0.0038662736 0.0088234341 0.00075533566)
(-0.003138386 0.0070179907 -0.0023424428)
(0.00096567311 0.007122793 -0.0033498244)
(-0.00080295977 0.010155469 -0.0014567543)
(-0.0036946804 0.006414715 -0.00068564924)
(0.0021833541 0.0053802152 -0.00073768223)
(0.00061797068 0.0084354187 -0.0020496141)
(-0.00015413393 0.0072515709 -0.0031503195)
(0.003045239 0.0071013075 -0.0022908155)
(0.0039868489 0.0086453265 0.00071390587)
(0.0032096354 0.010711513 0.0031817606)
(-0.0024413881 0.0090734919 0.0019836265)
(-0.0012254591 0.0021573232 0.0018877207)
(-0.0030117394 0.0060240679 0.0021044678)
(7.7218127e-05 0.0080651433 -0.0014166397)
(0.0023853448 0.0084201835 -0.00032040045)
(0.0051202876 0.009683171 0.0015207486)
(0.0011359294 0.009491375 0.0013415357)
(-0.00064803983 0.0060511684 0.00037346703)
(-0.00052532659 0.0012531445 0.0011930766)
(-0.0028101692 -0.0089297031 0.0048092219)
(-0.0037562654 -0.0074421241 0.0041786664)
(-0.0040353383 -0.0056082908 0.00077729033)
(-0.0035569995 -0.0028664254 0.00011614041)
(-0.0015065845 0.0018887745 -0.00071976476)
(0.0017358276 0.00013023001 -0.00073252056)
(0.0031821173 -0.0095323757 0.00068703616)
(-0.0020629091 -0.0088754351 0.0031401907)
(-0.0031557362 -0.0047666618 0.0033833802)
(-0.0019503662 0.00026779493 0.0035081911)
(0.0012230679 -0.001905334 0.0034798927)
(0.0012917242 -0.0047824412 0.0025392491)
(0.00093620276 -0.0036359143 0.00089641246)
(0.0017930067 -0.0052939957 -9.8401949e-05)
(0.0026089403 -0.0087183661 -0.00016281279)
(-0.0018264614 -0.0088665275 0.00013121519)
(-0.0021402866 -0.0061184037 0.00043532847)
(-0.0011284422 -0.0028947076 0.00081325249)
(-0.0011820016 -0.004387128 0.0024325582)
(-0.0011339124 -0.0019571955 0.0034892048)
(0.0019983072 0.00013926527 0.0034513995)
(0.0030886132 -0.0045777786 0.0033423185)
(0.0022438213 -0.0086905366 0.0031766731)
(-0.0031419277 -0.0094092898 0.00066596028)
(-0.0017564349 0.00013064752 -0.00072641202)
(0.0014819755 0.0019339203 -0.00072590388)
(0.0035617015 -0.0028039657 0.00010508469)
(0.0040600186 -0.005614857 0.00078406103)
(0.003784928 -0.0074388424 0.0041744366)
(0.0028159083 -0.0089463718 0.004818587)
(0.00087235442 -0.010843817 -0.0014651165)
(0.0018423042 -0.012256836 -0.00054356457)
(0.0032764278 -0.012823569 -0.00020274675)
(0.0032551498 -0.015623491 -0.00083308425)
(0.0011601148 -0.017378947 -0.0016150869)
(-0.0026585263 -0.014316416 -0.0020186728)
(-0.0029092751 -0.01043358 -0.0020313605)
(-0.0020123241 -0.01161198 -0.0019617488)
(-0.00010788286 -0.011497516 -0.0019492315)
(0.0014219258 -0.012171381 -0.0015210962)
(0.003230351 -0.010471171 -0.0013407894)
(0.0037266751 -0.011782344 -0.0010552679)
(0.0011839975 -0.014073487 -0.0013939519)
(-0.0011787069 -0.014001901 -0.0012912809)
(-0.003719264 -0.011721502 -0.0010305673)
(-0.003247262 -0.010421943 -0.0013373812)
(-0.001456163 -0.012131933 -0.0015464869)
(3.2092599e-05 -0.011496256 -0.0019472837)
(0.0019891615 -0.011620096 -0.001953359)
(0.0028874247 -0.010435667 -0.0020445574)
(0.0026356304 -0.014343667 -0.0020252888)
(-0.0011696652 -0.017380927 -0.0016233451)
(-0.0032643234 -0.015606616 -0.00083952565)
(-0.0032896583 -0.01281458 -0.00020023617)
(-0.0018543748 -0.012246357 -0.00054324276)
(-0.00087010693 -0.010851793 -0.0014664348)
(0.00073845301 0.00039705631 1.1211379e-05)
(0.0031764491 0.0060238688 2.6377367e-05)
(0.0052008937 0.0077002891 -3.0004531e-05)
(0.0075675773 0.015418792 -0.00066618727)
(0.0055330159 0.018248878 -0.0010079554)
(-0.0058758622 0.013802661 -0.0013163214)
(-0.0030132956 0.0022381355 -0.00039600964)
(-0.0022839608 -0.00023342212 -0.0012002571)
(0.00027778894 -0.00094624161 -0.00041377207)
(0.00097675121 -0.0001696236 0.00022847434)
(0.0011444227 0.00093619295 1.1975216e-05)
(0.0041234689 0.012230075 -0.0005682195)
(0.0021608385 0.015430403 -0.0013687365)
(-0.0021275889 0.015378942 -0.0013800097)
(-0.0040648218 0.012217309 -0.00056529755)
(-0.0011303615 0.0010736826 4.268651e-05)
(-0.0009508819 -8.222559e-05 0.00016536686)
(-0.00029272051 -0.00090499582 -0.00044217973)
(0.0023188442 -0.0001717557 -0.0012280329)
(0.003066626 0.0022582891 -0.00043310713)
(0.0059164047 0.013799363 -0.0013314066)
(-0.0054409504 0.018240756 -0.00099429917)
(-0.0075671738 0.015408983 -0.00064061998)
(-0.0052068627 0.0076961219 -1.0999852e-05)
(-0.003184745 0.0059667249 3.7265934e-05)
(-0.00073973052 0.00037846546 2.0263766e-05)
(0.00015932241 -0.012371067 0.0021046471)
(0.0016378232 -0.011387839 0.00049638062)
(0.0024801476 -0.013066639 -0.00063272069)
(0.00035382376 -0.012697074 -0.0020693851)
(0.003481153 0.0044328069 -0.0011675956)
(0.0017330057 -0.0035470236 -0.00072700375)
(0.0018424259 -0.011893744 0.0017579567)
(-0.00055231878 -0.011941524 0.00071227666)
(0.0010748994 -0.012260496 0.0019327901)
(-0.00088061894 -0.012891094 0.0035408578)
(-0.0043033696 -0.012296352 0.0017928067)
(-0.0042520863 -0.011790512 0.0011996658)
(0.00042244601 -0.0018956785 -0.00085993234)
(-0.00039024843 -0.0019707254 -0.00078670657)
(0.0042596844 -0.011781714 0.0013520197)
(0.0043337136 -0.012243626 0.0019138386)
(0.00097401167 -0.012850606 0.0035101352)
(-0.001066062 -0.012223083 0.0018910377)
(0.00054594091 -0.011913699 0.00066363459)
(-0.0018321527 -0.011869516 0.0017487575)
(-0.0017079946 -0.0036284066 -0.00073479419)
(-0.0034424301 0.0044597479 -0.0011693461)
(-0.00038752118 -0.012569893 -0.0020866647)
(-0.0024415611 -0.013046394 -0.00060261595)
(-0.0016340455 -0.011390822 0.00049125121)
(-0.00016377779 -0.012379237 0.0021036666)
(0.00073531448 -0.0040523986 0.0017477879)
(0.00059484497 -0.00080845908 0.0019903614)
(0.004175105 0.0070829782 0.0016286555)
(-0.0021249988 0.011039138 9.4902395e-05)
(-0.00019193359 0.0080199951 -0.00072170295)
(0.0024050965 0.0073966482 0.0002742434)
(-0.0010320116 0.0061668259 -0.00051978288)
(0.00048214785 -0.0026856368 -0.00010034535)