/*--------------------------------*- C++ -*----------------------------------*\
| =========                 |                                                 |
| \\      /  F ield         | OpenFOAM: The Open Source CFD Toolbox           |
|  \\    /   O peration     | Version:  v2012                                 |
|   \\  /    A nd           | Website:  www.openfoam.com                      |
|    \\/     M anipulation  |                                                 |
\*---------------------------------------------------------------------------*/
FoamFile
{
    version     2.0;
    format      ascii;
    class       volScalarField;
    location    "670/bottomWater";
    object      p;
}
// * * * * * * * * * * * * * * * * * * * * * * * * * * * * * * * * * * * * * //

dimensions      [1 -1 -2 0 0 0 0];


internalField   nonuniform List<scalar> 
1460
(
353.44882
353.45221
353.4473
353.44432
353.47031
353.46192
353.46768
353.45779
353.47615
353.44627
353.47166
353.45221
353.44863
353.45426
353.45501
353.45662
353.4664
353.45337
353.448
353.45537
353.4496
353.46431
353.45903
353.45243
353.45774
353.44954
353.44382
353.46973
353.4608
353.44769
274.4466
274.41189
274.41643
274.43134
274.47332
274.45647
274.4159
274.42263
274.47524
274.41947
274.49121
274.47723
274.43974
274.42197
274.42947
274.47331
274.51627
274.457
274.41939
274.42263
274.42985
274.48179
274.46947
274.43614
274.41954
274.44495
274.45138
274.51134
274.49628
274.45433
196.29415
196.30357
196.27282
196.2737
196.26593
196.26922
196.29274
196.31241
196.26691
196.3095
196.25062
196.26302
196.28612
196.30517
196.28307
196.24204
196.24018
196.23257
196.26969
196.27858
196.26229
196.2304
196.23929
196.29792
196.28019
196.29053
196.25625
196.25651
196.2393
196.29532
117.64653
117.67801
117.67189
117.65166
117.69747
117.67377
117.67575
117.65681
117.67407
117.66457
117.6494
117.66404
117.67123
117.70152
117.67495
117.66315
117.66103
117.65663
117.67066
117.69355
117.66144
117.68165
117.6752
117.68428
117.7171
117.66298
117.67489
117.66675
117.66714
117.69341
39.280469
39.247406
39.234554
39.221923
39.22921
39.223174
39.230041
39.23354
39.215514
39.226723
39.235088
39.224482
39.225399
39.236179
39.225776
39.235532
39.254734
39.249145
39.251981
39.254006
39.251776
39.250444
39.247573
39.237221
39.241076
39.236311
39.223034
39.242408
39.234959
39.233165
353.45153
353.45162
353.44495
353.44813
353.46212
353.46343
353.46018
353.46546
353.45572
353.45842
353.46664
353.45453
353.44938
353.45524
353.45326
353.45942
353.45111
353.44336
353.45179
353.4593
353.45499
353.45385
353.45767
353.46551
353.46116
353.44778
353.44762
353.44949
353.45364
353.44631
274.41249
274.41129
274.42996
274.43311
274.47491
274.46882
274.41472
274.45224
274.43351
274.40355
274.44626
274.44169
274.42075
274.41158
274.4384
274.47966
274.4599
274.42209
274.41543
274.40856
274.41663
274.41511
274.42644
274.46688
274.46101
274.43629
274.42182
274.43648
274.44618
274.4398
196.31266
196.29127
196.27112
196.27158
196.26483
196.24498
196.28338
196.2585
196.27318
196.26623
196.25295
196.2399
196.27753
196.28743
196.27793
196.25823
196.23136
196.24976
196.28725
196.29093
196.29676
196.26334
196.26826
196.23935
196.2469
196.30536
196.2707
196.30011
196.25294
196.28772
117.68736
117.65329
117.62511
117.64563
117.66243
117.63228
117.64428
117.62395
117.61149
117.66401
117.61282
117.6374
117.64463
117.6782
117.66648
117.67217
117.64588
117.64995
117.67371
117.68654
117.66966
117.66943
117.65277
117.64395
117.66732
117.65965
117.67049
117.63263
117.64433
117.65295
39.25882
39.257121
39.259798
39.235025
39.223571
39.227494
39.235494
39.257572
39.244879
39.239443
39.262567
39.24714
39.229842
39.231496
39.225042
39.229886
39.240752
39.249131
39.256059
39.266717
39.257251
39.249244
39.263936
39.250041
39.231434
39.228102
39.231711
39.260106
39.267666
39.250523
353.45548
353.45098
353.4527
353.46348
353.46783
353.46709
353.46161
353.46291
353.46314
353.46402
353.46517
353.45273
353.4605
353.45376
353.46108
353.45953
353.44996
353.45771
353.45045
353.44954
353.44814
353.44886
353.44856
353.44604
353.44798
353.4427
353.44322
353.44864
353.4469
353.44594
274.4152
274.4101
274.43335
274.47195
274.48295
274.45663
274.41097
274.42981
274.41636
274.40077
274.39685
274.41661
274.40539
274.41925
274.45925
274.46299
274.42821
274.42198
274.42158
274.42368
274.41232
274.41019
274.40715
274.40548
274.43124
274.41967
274.41182
274.41263
274.4098
274.42229
196.31349
196.27757
196.25444
196.25009
196.26608
196.24849
196.29247
196.29882
196.29567
196.31385
196.29513
196.29282
196.28459
196.26316
196.24305
196.26359
196.2769
196.29207
196.31091
196.2962
196.30323
196.30597
196.30404
196.2922
196.28346
196.28731
196.28053
196.30836
196.30726
196.31716
117.68088
117.65643
117.63976
117.66603
117.66157
117.62306
117.66152
117.61496
117.6244
117.67573
117.6856
117.6382
117.68274
117.63106
117.65609
117.6635
117.66411
117.66581
117.65566
117.63305
117.66152
117.67782
117.68681
117.67418
117.65248
117.65873
117.66913
117.6838
117.67201
117.67061
39.265429
39.254105
39.25406
39.240654
39.239612
39.254813
39.261607
39.299764
39.281223
39.267248
39.269799
39.25881
39.251082
39.249013
39.232711
39.236337
39.237054
39.240596
39.252836
39.281107
39.249308
39.247151
39.249927
39.241263
39.252344
39.23952
39.247599
39.261273
39.256188
39.258667
353.45044
353.44501
353.44661
353.45532
353.4634
353.46384
353.45792
353.45673
353.45549
353.45053
353.45134
353.44784
353.44936
353.44235
353.43959
353.43797
353.43223
353.43719
353.43996
353.46639
353.45584
353.45105
353.4507
353.45454
353.43807
353.46583
353.44347
353.43855
353.44734
353.44619
274.41753
274.41646
274.43835
274.47541
274.47414
274.43413
274.40829
274.39159
274.40763
274.41776
274.41679
274.4107
274.40738
274.41203
274.42892
274.44704
274.42314
274.43253
274.45155
274.47873
274.4424
274.41903
274.40926
274.42236
274.41888
274.46948
274.44322
274.41487
274.41975
274.42426
196.31022
196.27382
196.2551
196.24361
196.26009
196.23745
196.27177
196.27569
196.31174
196.29362
196.3147
196.30461
196.33071
196.29444
196.29252
196.30471
196.28583
196.31163
196.2725
196.24831
196.25525
196.28265
196.29795
196.29576
196.27426
196.24433
196.24329
196.27271
196.30409
196.31867
117.67974
117.65494
117.63766
117.66409
117.66108
117.62261
117.62398
117.67673
117.68417
117.64343
117.65988
117.67101
117.67746
117.6657
117.6581
117.62422
117.66876
117.65427
117.65752
117.63905
117.64865
117.65464
117.69537
117.67506
117.65598
117.64719
117.64287
117.66346
117.6811
117.67627
39.260998
39.252807
39.247661
39.239142
39.229669
39.248057
39.263022
39.269581
39.262528
39.290152
39.276736
39.256311
39.256057
39.247701
39.226031
39.271441
39.233332
39.237848
39.239627
39.254744
39.245041
39.228907
39.235615
39.22592
39.226491
39.245666
39.258563
39.240977
39.245364
39.247734
353.45721
353.44888
353.46856
353.46934
353.47749
353.46995
353.47037
353.47625
353.45491
353.48116
353.47148
353.45013
353.46097
353.46114
353.46634
353.46269
353.46405
353.45729
353.45665
353.45975
353.45623
353.44959
353.45971
353.43446
353.4364
353.44431
274.41804
274.4256
274.47269
274.481
274.44514
274.38603
274.39883
274.40353
274.39958
274.45973
274.45464
274.414
274.41349
274.44747
274.46351
274.4665
274.46233
274.43616
274.42969
274.4608
274.47942
274.50275
274.51461
274.44732
274.4329
274.43425
196.28483
196.25484
196.23423
196.26713
196.24637
196.25744
196.30852
196.2952
196.25637
196.23405
196.2301
196.25355
196.27665
196.30452
196.28352
196.30166
196.27051
196.29441
196.26936
196.25663
196.25932
196.26435
196.2316
196.23713
196.26206
196.29239
117.67886
117.63075
117.6394
117.66878
117.67599
117.66122
117.69825
117.69666
117.66177
117.66422
117.67332
117.65138
117.69185
117.6482
117.66645
117.67144
117.66718
117.64924
117.64377
117.65776
117.66605
117.64349
117.64896
117.63752
117.64677
117.66617
39.256664
39.254837
39.237732
39.229813
39.231682
39.229547
39.250792
39.256934
39.261408
39.269994
39.27125
39.251296
39.252358
39.253669
39.222276
39.240377
39.221736
39.2308
39.241507
39.23254
39.22884
39.244815
39.263083
39.259475
39.236122
39.232996
353.45161
353.44685
353.45502
353.46031
353.4698
353.46353
353.47071
353.45882
353.47082
353.47647
353.46918
353.4625
353.4628
353.45103
353.46773
353.45235
353.4666
353.4669
353.46731
353.46903
353.45994
353.45835
353.45648
353.42409
353.43497
353.43962
274.42031
274.43156
274.45773
274.47568
274.45356
274.40185
274.40985
274.42761
274.4539
274.48468
274.4571
274.41745
274.42452
274.44189
274.45555
274.43117
274.46121
274.46062
274.40152
274.46756
274.47844
274.49562
274.49402
274.4353
274.43311
274.43306
196.29252
196.26488
196.25546
196.26166
196.23692
196.25949
196.28385
196.25628
196.2492
196.27558
196.26258
196.29393
196.31465
196.2991
196.28156
196.29897
196.25074
196.278
196.27306
196.2537
196.26991
196.26772
196.23189
196.25643
196.28326
196.32158
117.67545
117.6381
117.66704
117.6773
117.6453
117.65747
117.68878
117.65023
117.67051
117.66921
117.6458
117.66309
117.67057
117.64214
117.66181
117.65437
117.63521
117.62094
117.66736
117.62802
117.66402
117.66487
117.65361
117.64214
117.66564
117.69059
39.243362
39.234184
39.220199
39.224675
39.223727
39.235331
39.255629
39.251774
39.237084
39.236913
39.260818
39.231986
39.23749
39.243272
39.221404
39.235655
39.244679
39.25961
39.253776
39.251755
39.244684
39.238219
39.249006
39.246114
39.223116
39.233748
353.45682
353.45628
353.46842
353.45961
353.48138
353.46975
353.47421
353.4699
353.4751
353.47119
353.47415
353.46815
353.47651
353.45712
353.47645
353.46271
353.46026
353.4695
353.46238
353.46789
353.47222
353.47006
353.4699
353.47021
353.47058
353.45506
353.44162
353.43491
353.44093
353.44361
274.42369
274.42983
274.46572
274.46967
274.48144
274.41431
274.3905
274.41329
274.43554
274.40954
274.40646
274.44407
274.47049
274.46165
274.49054
274.44014
274.40985
274.40496
274.40927
274.45649
274.45775
274.41137
274.39629
274.41354
274.46952
274.48853
274.43553
274.43946
274.42834
274.43078
196.29669
196.29002
196.26093
196.24499
196.23681
196.24133
196.26114
196.31342
196.23277
196.30488
196.26612
196.25884
196.24855
196.2728
196.22855
196.24174
196.27046
196.28743
196.28006
196.25997
196.24447
196.29521
196.28343
196.25961
196.24128
196.24793
196.26416
196.27487
196.29653
196.31726
117.66733
117.66089
117.67405
117.64198
117.65009
117.61503
117.68054
117.65838
117.65954
117.66902
117.67551
117.67832
117.70386
117.67036
117.65404
117.65204
117.65663
117.67334
117.65213
117.6555
117.633
117.64766
117.66694
117.6238
117.64718
117.64869
117.65855
117.67655
117.696
117.70885
39.235718
39.228469
39.22097
39.221905
39.246585
39.256323
39.267382
39.268683
39.257392
39.244892
39.222416
39.221981
39.232487
39.217249
39.240328
39.250164
39.247018
39.262962
39.23337
39.244122
39.261909
39.256006
39.270466
39.262709
39.255857
39.236781
39.221023
39.226768
39.229957
39.238143
353.45354
353.46042
353.45624
353.45039
353.46988
353.46331
353.46566
353.46187
353.46556
353.46117
353.46962
353.45656
353.4716
353.46695
353.46707
353.46716
353.47002
353.47468
353.46044
353.48314
353.47012
353.46599
353.47658
353.46535
353.47005
353.46445
353.45023
353.4271
353.43426
353.43842
274.45062
274.47333
274.4774
274.44089
274.4832
274.4426
274.40147
274.40354
274.42518
274.42941
274.46019
274.4667
274.47835
274.45802
274.43019
274.40359
274.396
274.3995
274.40628
274.44739
274.417
274.39876
274.39557
274.39034
274.41024
274.45819
274.4602
274.4397
274.4343
274.43492
196.29404
196.27428
196.26658
196.2558
196.23972
196.24617
196.27029
196.30951
196.28414
196.29841
196.25489
196.28227
196.26663
196.26315
196.24917
196.26694
196.30811
196.316
196.28481
196.24675
196.29253
196.28441
196.33709
196.27681
196.24866
196.2508
196.26227
196.27514
196.27718
196.30978
117.63634
117.65554
117.6647
117.6436
117.65456
117.64449
117.6737
117.67108
117.6294
117.63391
117.62336
117.63945
117.67686
117.65581
117.6364
117.64537
117.66716
117.69814
117.6528
117.66198
117.63795
117.68666
117.69942
117.66244
117.63497
117.63995
117.66154
117.66958
117.66458
117.67518
39.260824
39.23373
39.225837
39.236725
39.255613
39.253766
39.258535
39.272637
39.270306
39.275859
39.253436
39.223319
39.231748
39.230393
39.247412
39.25451
39.262312
39.286024
39.25223
39.274397
39.283637
39.276672
39.293637
39.263417
39.256764
39.235352
39.228869
39.242831
39.243735
39.248792
353.44786
353.45717
353.44652
353.45463
353.44862
353.4737
353.46818
353.46884
353.47165
353.47604
353.48356
353.47324
353.46575
353.46154
353.46351
353.46635
353.46572
353.47474
353.46425
353.46315
353.47678
353.45477
353.46762
353.46748
353.46793
353.46863
353.47041
353.45772
353.4277
353.44328
274.44621
274.45568
274.43506
274.41068
274.43203
274.44612
274.39706
274.39482
274.38459
274.41451
274.47925
274.48116
274.43647
274.41612
274.40524
274.41673
274.39325
274.39279
274.39264
274.41133
274.44806
274.41619
274.40283
274.39825
274.38949
274.39956
274.46942
274.47706
274.44588
274.43887
196.29168
196.26319
196.28646
196.2566
196.267
196.22903
196.26614
196.29281
196.26079
196.23541
196.22726
196.22498
196.27597
196.2883
196.2899
196.29745
196.30775
196.32896
196.2792
196.25082
196.22779
196.26619
196.26466
196.31073
196.26896
196.27207
196.24772
196.2253
196.24262
196.27199
117.63351
117.64866
117.66051
117.68197
117.64511
117.66006
117.65487
117.68867
117.68092
117.63312
117.65423
117.63577
117.67344
117.65494
117.65606
117.63204
117.6658
117.68205
117.67039
117.65475
117.66233
117.6378
117.65706
117.68492
117.70614
117.6543
117.66593
117.64891
117.63489
117.67007
39.256391
39.239507
39.225248
39.220628
39.245032
39.256847
39.263823
39.267394
39.2506
39.247418
39.244282
39.232569
39.21831
39.234556
39.232785
39.27814
39.255539
39.272483
39.256161
39.261378
39.257234
39.261276
39.260209
39.254398
39.247687
39.227441
39.23178
39.237248
39.244756
39.244276
353.44301
353.44222
353.4462
353.45231
353.45345
353.45168
353.47643
353.44897
353.46769
353.45173
353.45233
353.44901
353.45106
353.45186
353.46425
353.48827
353.46618
353.47704
353.46724
353.48031
353.48298
353.46675
353.47307
353.45857
353.46876
353.46564
353.46707
353.45055
353.42213
353.4364
274.42591
274.43189
274.42746
274.4169
274.41792
274.43454
274.44386
274.41363
274.40671
274.40864
274.4244
274.43421
274.43613
274.43677
274.47051
274.47903
274.41711
274.40652
274.42285
274.46319
274.49178
274.47268
274.44865
274.42255
274.40968
274.40015
274.47695
274.48317
274.44849
274.45339
196.32682
196.30459
196.31144
196.32527
196.28213
196.26888
196.22715
196.27299
196.29382
196.3052
196.29767
196.2969
196.30429
196.31074
196.2589
196.23887
196.26901
196.28013
196.27873
196.2514
196.26563
196.26168
196.25129
196.27719
196.28481
196.26667
196.21736
196.24857
196.26364
196.27122
117.67927
117.63606
117.66372
117.70891
117.69144
117.66649
117.67078
117.67042
117.69324
117.6576
117.66016
117.63135
117.66208
117.6672
117.65377
117.64649
117.6376
117.69432
117.64301
117.69019
117.69363
117.67808
117.67979
117.66659
117.71238
117.6708
117.66267
117.68001
117.66148
117.66287
39.254989
39.267793
39.226388
39.245569
39.22694
39.248371
39.259124
39.256012
39.243878
39.236156
39.229937
39.262031
39.231084
39.231166
39.234251
39.253067
39.247708
39.254732
39.246633
39.232139
39.236868
39.236905
39.242969
39.238181
39.247472
39.240958
39.243461
39.227765
39.235525
39.241763
)
;

boundaryField
{
    minX
    {
        type            calculated;
        value           nonuniform List<scalar> 
50
(
353.44882
274.4466
196.29415
117.64653
39.280469
353.45153
274.41249
196.31266
117.68736
39.25882
353.45548
274.4152
196.31349
117.68088
39.265429
353.45044
274.41753
196.31022
117.67974
39.260998
353.45721
274.41804
196.28483
117.67886
39.256664
353.45161
274.42031
196.29252
117.67545
39.243362
353.45682
274.42369
196.29669
117.66733
39.235718
353.45354
274.45062
196.29404
117.63634
39.260824
353.44786
274.44621
196.29168
117.63351
39.256391
353.44301
274.42591
196.32682
117.67927
39.254989
)
;
    }
    maxX
    {
        type            calculated;
        value           nonuniform List<scalar> 
50
(
353.44769
274.45433
196.29532
117.69341
39.233165
353.44631
274.4398
196.28772
117.65295
39.250523
353.44594
274.42229
196.31716
117.67061
39.258667
353.44619
274.42426
196.31867
117.67627
39.247734
353.44431
274.43425
196.29239
117.66617
39.232996
353.43962
274.43306
196.32158
117.69059
39.233748
353.44361
274.43078
196.31726
117.70885
39.238143
353.43842
274.43492
196.30978
117.67518
39.248792
353.44328
274.43887
196.27199
117.67007
39.244276
353.4364
274.45339
196.27122
117.66287
39.241763
)
;
    }
    minY
    {
        type            calculated;
        value           nonuniform List<scalar> 
292
(
392.4
392.4
392.4
392.4
392.4
392.4
392.4
392.4
392.4
392.4
392.4
392.4
392.4
392.4
392.4
392.4
392.4
392.4
392.4
392.4
392.4
392.4
392.4
392.4
392.4
392.4
392.4
392.4
392.4
392.4
392.4
392.4
392.4
392.4
392.4
392.4
392.4
392.4
392.4
392.4
392.4
392.4
392.4
392.4
392.4
392.4
392.4
392.4
392.4
392.4
392.4
392.4
392.4
392.4
392.4
392.4
392.4
392.4
392.4
392.4
392.4
392.4
392.4
392.4
392.4
392.4
392.4
392.4
392.4
392.4
392.4
392.4
392.4
392.4
392.4
392.4
392.4
392.4
392.4
392.4
392.4
392.4
392.4
392.4
392.4
392.4
392.4
392.4
392.4
392.4
392.4
392.4
392.4
392.4
392.4
392.4
392.4
392.4
392.4
392.4
392.4
392.4
392.4
392.4
392.4
392.4
392.4
392.4
392.4
392.4
392.4
392.4
392.4
392.4
392.4
392.4
392.4
392.4
392.4
392.4
392.4
392.4
392.4
392.4
392.4
392.4
392.4
392.4
392.4
392.4
392.4
392.4
392.4
392.4
392.4
392.4
392.4
392.4
392.4
392.4
392.4
392.4
392.4
392.4
392.4
392.4
392.4
392.4
392.4
392.4
392.4
392.4
392.4
392.4
392.4
392.4
392.4
392.4
392.4
392.4
392.4
392.4
392.4
392.4
392.4
392.4
392.4
392.4
392.4
392.4
392.4
392.4
392.4
392.4
392.4
392.4
392.4
392.4
392.4
392.4
392.4
392.4
392.4
392.4
392.4
392.4
392.4
392.4
392.4
392.4
392.4
392.4
392.4
392.4
392.4
392.4
392.4
392.4
392.4
392.4
392.4
392.4
392.4
392.4
392.4
392.4
392.4
392.4
392.4
392.4
392.4
392.4
392.4
392.4
392.4
392.4
392.4
392.4
392.4
392.4
392.4
392.4
392.4
392.4
392.4
392.4
392.4
392.4
392.4
392.4
392.4
392.4
392.4
392.4
392.4
392.4
392.4
392.4
392.4
392.4
392.4
392.4
392.4
392.4
392.4
392.4
392.4
392.4
392.4
392.4
392.4
392.4
392.4
392.4
392.4
392.4
392.4
392.4
392.4
392.4
392.4
392.4
392.4
392.4
392.4
392.4
392.4
392.4
392.4
392.4
392.4
392.4
392.4
392.4
392.4
392.4
392.4
392.4
392.4
392.4
392.4
392.4
392.4
392.4
392.4
392.4
392.4
392.4
392.4
392.4
392.4
392.4
)
;
    }
    minZ
    {
        type            calculated;
        value           nonuniform List<scalar> 
150
(
353.44882
274.4466
196.29415
117.64653
39.280469
353.45221
274.41189
196.30357
117.67801
39.247406
353.4473
274.41643
196.27282
117.67189
39.234554
353.44432
274.43134
196.2737
117.65166
39.221923
353.47031
274.47332
196.26593
117.69747
39.22921
353.46192
274.45647
196.26922
117.67377
39.223174
353.46768
274.4159
196.29274
117.67575
39.230041
353.45779
274.42263
196.31241
117.65681
39.23354
353.47615
274.47524
196.26691
117.67407
39.215514
353.44627
274.41947
196.3095
117.66457
39.226723
353.47166
274.49121
196.25062
117.6494
39.235088
353.45221
274.47723
196.26302
117.66404
39.224482
353.44863
274.43974
196.28612
117.67123
39.225399
353.45426
274.42197
196.30517
117.70152
39.236179
353.45501
274.42947
196.28307
117.67495
39.225776
353.45662
274.47331
196.24204
117.66315
39.235532
353.4664
274.51627
196.24018
117.66103
39.254734
353.45337
274.457
196.23257
117.65663
39.249145
353.448
274.41939
196.26969
117.67066
39.251981
353.45537
274.42263
196.27858
117.69355
39.254006
353.4496
274.42985
196.26229
117.66144
39.251776
353.46431
274.48179
196.2304
117.68165
39.250444
353.45903
274.46947
196.23929
117.6752
39.247573
353.45243
274.43614
196.29792
117.68428
39.237221
353.45774
274.41954
196.28019
117.7171
39.241076
353.44954
274.44495
196.29053
117.66298
39.236311
353.44382
274.45138
196.25625
117.67489
39.223034
353.46973
274.51134
196.25651
117.66675
39.242408
353.4608
274.49628
196.2393
117.66714
39.234959
353.44769
274.45433
196.29532
117.69341
39.233165
)
;
    }
    maxZ
    {
        type            calculated;
        value           nonuniform List<scalar> 
150
(
353.44301
274.42591
196.32682
117.67927
39.254989
353.44222
274.43189
196.30459
117.63606
39.267793
353.4462
274.42746
196.31144
117.66372
39.226388
353.45231
274.4169
196.32527
117.70891
39.245569
353.45345
274.41792
196.28213
117.69144
39.22694
353.45168
274.43454
196.26888
117.66649
39.248371
353.47643
274.44386
196.22715
117.67078
39.259124
353.44897
274.41363
196.27299
117.67042
39.256012
353.46769
274.40671
196.29382
117.69324
39.243878
353.45173
274.40864
196.3052
117.6576
39.236156
353.45233
274.4244
196.29767
117.66016
39.229937
353.44901
274.43421
196.2969
117.63135
39.262031
353.45106
274.43613
196.30429
117.66208
39.231084
353.45186
274.43677
196.31074
117.6672
39.231166
353.46425
274.47051
196.2589
117.65377
39.234251
353.48827
274.47903
196.23887
117.64649
39.253067
353.46618
274.41711
196.26901
117.6376
39.247708
353.47704
274.40652
196.28013
117.69432
39.254732
353.46724
274.42285
196.27873
117.64301
39.246633
353.48031
274.46319
196.2514
117.69019
39.232139
353.48298
274.49178
196.26563
117.69363
39.236868
353.46675
274.47268
196.26168
117.67808
39.236905
353.47307
274.44865
196.25129
117.67979
39.242969
353.45857
274.42255
196.27719
117.66659
39.238181
353.46876
274.40968
196.28481
117.71238
39.247472
353.46564
274.40015
196.26667
117.6708
39.240958
353.46707
274.47695
196.21736
117.66267
39.243461
353.45055
274.48317
196.24857
117.68001
39.227765
353.42213
274.44849
196.26364
117.66148
39.235525
353.4364
274.45339
196.27122
117.66287
39.241763
)
;
    }
    bottomWater_to_rightSolid
    {
        type            calculated;
        value           nonuniform List<scalar> 
130
(
0.0091449311
0.011980981
0.014005739
0.011776389
0.010443856
0.0075727882
-0.0027789404
0.001075733
-0.0036887097
-0.016966483
0.0024075608
-0.0050411281
-0.0068345556
0.0091306858
0.01605867
0.026717057
0.017251476
0.00924364
0.023935527
0.010040888
-0.0085658895
-0.011897664
-0.0082888493
0.020106363
0.027666339
0.01052297
0.00059569443
0.012836422
0.041107404
0.0093075957
0.007151432
0.0099267404
0.0012625467
0.012344444
-0.00047963038
0.007598636
0.021273167
0.016187931
0.018667296
-0.0021515087
-0.00037283818
0.014744262
0.0050408566
-0.011092739
-0.004385329
-0.014080209
-0.01350858
0.0056655758
0.018562949
0.00097675027
0.0053643766
0.0077340624
0.013669428
-0.017724131
0.0003767316
-0.018264101
-0.0092000746
0.0015071066
-0.0074604773
-0.011159743
0.004815012
0.023083305
0.019474769
-0.0038781943
-0.0070044908
0.0032720937
-0.018595781
-0.0043449112
0.0046791533
0.019609764
0.013775963
0.011755082
0.0046841825
-0.0017814563
0.0090062325
0.0061140951
-0.016883582
-0.0062515242
0.022961558
-0.0066302604
0.0041215169
0.02190911
0.016005726
0.030465896
0.022708948
0.015857195
-0.0032187049
-0.018977098
-0.01323185
-0.010043044
-0.0018566182
0.04602442
0.012229668
0.034397446
0.043636512
0.03667166
0.053636817
0.02341745
0.016764287
-0.0046476131
-0.011131313
0.0028312921
0.0037352769
0.0087922994
0.032483077
0.016161265
0.021377906
0.017233884
0.02127573
0.020208861
0.014397748
0.0076874225
-0.012559287
-0.0082199083
-0.0027521793
0.0047563481
0.0042762439
0.014732233
0.0066328351
-0.0078607912
-0.0031322701
-0.0030950149
0.0029691352
-0.0018192109
0.0074716576
0.00095779657
0.0034605565
-0.012235089
-0.0044751929
0.001762732
)
;
    }
    bottomWater_to_leftSolid
    {
        type            calculated;
        value           nonuniform List<scalar> 
130
(
0.0404691
0.0074061483
-0.0054463306
-0.0180766
-0.010789771
-0.016826257
-0.0099586605
-0.0064602508
-0.024485975
-0.013277077
-0.004911508
-0.01551831
-0.014601447
0.018819777
0.017120838
0.019797513
-0.0049745947
-0.016429381
-0.012506251
-0.0045062703
0.017572281
0.0048785319
-0.00055678702
0.022566689
0.0071397584
-0.010158246
0.025429449
0.014105474
0.014060405
0.00065402931
-0.000387836
0.014812901
0.021606817
0.059763978
0.041223055
0.02724849
0.029798771
0.0188097
0.011081884
0.02099834
0.012807247
0.0076608442
-0.00085786394
-0.010331017
0.0080570876
0.02302244
0.029580767
0.022528053
0.050152234
0.036735896
0.016310664
0.016056789
0.016664292
0.014837073
-0.0022679853
-0.01018722
-0.0083183228
-0.010452992
0.010792439
0.016933623
0.021408075
0.029993756
0.031249969
0.011296066
0.012357643
0.0033622854
-0.0058156981
-0.019801354
-0.015324657
-0.016273439
-0.0046688528
0.015629388
0.011774084
-0.0029155078
-0.0030872465
0.020818437
-0.0080141298
-0.002510125
-0.0042821051
-0.011531181
-0.01902986
-0.018095468
0.0065848646
0.016322896
0.027382295
0.028682513
0.017391506
0.004892075
-0.017584417
-0.018018935
-0.0075132632
0.020823751
-0.0062696809
-0.014162596
-0.0032751428
0.015612849
0.013765549
0.018535062
0.032636861
0.03030628
0.035858857
0.013435521
-0.016681166
-0.0082518991
0.016391385
-0.00049317777
-0.014751625
-0.019371891
0.0050317781
0.016846608
0.023823021
0.027393523
0.010599802
0.0074179853
0.0042817916
-0.0074313371
-0.021690345
0.014989111
0.027792895
-0.013611693
0.0055690237
-0.013059821
0.0083705598
0.019124469
0.01601233
0.0038778513
-0.0038435957
-0.010063183
0.022030699
-0.0089157986
)
;
    }
    bottomWater_to_heater
    {
        type            calculated;
        value           nonuniform List<scalar> 
92
(
-0.0038207826
-0.014223798
-0.0044684101
0.014733786
-0.008504043
-0.01495819
-0.010113779
0.00075234132
0.0090128639
-0.007288812
-0.0036628366
-0.0029460615
353.44235
353.43959
353.43797
353.43223
274.41203
274.42892
274.44704
274.42314
196.29444
196.29252
196.30471
196.28583
117.6657
117.6581
117.62422
117.66876
0.0077008507
39.247701
-0.013969
39.226031
0.031441003
39.271441
-0.0066677168
39.233332
353.46097
353.46114
274.41349
274.44747
196.27665
196.30452
117.69185
117.6482
39.252358
39.253669
353.4628
353.45712
353.47645
353.46271
353.45103
353.46026
274.42452
274.46165
274.49054
274.44014
274.44189
274.40985
196.31465
196.2728
196.22855
196.24174
196.2991
196.27046
117.67057
117.67036
117.65404
117.65204
117.64214
117.65663
39.23749
39.217249
39.240328
39.250164
39.243272
39.247018
-0.022751098
0.00032833016
0.010164373
0.0070176429
-0.0096073968
0.0074115738
0.014509582
0.022311976
-0.0054444657
-0.0072151437
0.038140202
0.01553865
-0.008833885
-0.0057489341
0.013067123
0.0077079106
)
;
    }
}


// ************************************************************************* //
