/*--------------------------------*- C++ -*----------------------------------*\
| =========                 |                                                 |
| \\      /  F ield         | OpenFOAM: The Open Source CFD Toolbox           |
|  \\    /   O peration     | Version:  v2012                                 |
|   \\  /    A nd           | Website:  www.openfoam.com                      |
|    \\/     M anipulation  |                                                 |
\*---------------------------------------------------------------------------*/
FoamFile
{
    version     2.0;
    format      ascii;
    class       surfaceScalarField;
    location    "670/bottomWater";
    object      phi;
}
// * * * * * * * * * * * * * * * * * * * * * * * * * * * * * * * * * * * * * //

dimensions      [1 0 -1 0 0 0 0];
oriented        oriented;


internalField   nonuniform List<scalar> 
3858
(
6.496944e-06
-3.5380967e-05
3.0650698e-05
-0.00011900168
0.0001460372
-1.9371967e-05
-0.00024647689
0.00017144637
-4.1470434e-05
-0.00023824771
3.3916309e-05
-3.8994635e-05
2.8404355e-05
-0.00030288007
3.3605453e-05
0.00010190623
-0.00013817887
6.3699813e-05
-5.0612802e-05
5.3881993e-05
9.6343313e-05
-6.3447647e-05
3.280919e-06
9.3299171e-06
0.00010409746
-0.00026994149
9.8411666e-05
-7.0508385e-05
0.00012465951
5.2494245e-05
-1.8286863e-05
-0.00021418531
0.00015891743
0.00010184688
-0.00024848121
0.00012968606
4.8245706e-06
-2.6138569e-05
0.00012510451
-0.00015329961
0.00011587089
4.298217e-05
-0.00020624501
7.1020281e-05
-1.740586e-05
-1.7286386e-05
-0.0001364487
-5.2231156e-05
0.00028749865
-0.00035421161
4.7769526e-05
0.00034780378
-0.00011833269
5.936543e-05
0.0001876187
0.00010097915
6.164797e-05
-4.5816281e-05
0.00014173965
9.2299818e-05
-0.00017644367
3.5967367e-05
9.6464518e-05
-3.2272195e-06
-0.00027841178
0.00010387898
0.00014316996
-0.00020008424
5.3415415e-05
7.4981378e-05
7.6862013e-05
-7.5467402e-06
-6.988301e-05
0.00012150669
2.3283342e-05
-0.00023301677
0.00011001877
5.502614e-05
-0.0002111482
-5.9090257e-05
4.0475488e-05
4.2374371e-05
-0.00036455657
0.00010864812
0.00019811555
-0.00030663648
0.00015048002
7.0709671e-05
0.00012969368
9.1303698e-05
-0.00021482765
8.814298e-05
-0.00021659418
0.00050488612
-5.0951048e-05
-0.00039683461
0.00045417844
-0.00010249163
-0.00018047055
-0.00011739011
-6.5057653e-05
0.00017218907
-0.00066839457
1.2854889e-05
0.00031482156
-0.00036590457
8.5093218e-05
-6.2780344e-05
0.00033964298
9.1840917e-05
-0.00027409244
0.0002698591
-5.5266074e-05
-3.3436602e-05
-0.00059641652
8.5819197e-05
-0.00011797718
3.3005086e-05
0.000176195
-1.9847439e-05
-0.00049117095
0.0001788559
0.00012775177
-0.00056058833
0.00016450791
6.0029841e-05
-0.00015033248
0.00019191584
-0.00028772175
0.00043214346
3.1479016e-05
-0.0003461057
0.00019866336
-6.9259139e-05
-1.6814123e-05
-0.00037006566
-9.5674623e-05
0.00031638028
-0.00066281527
-2.4590747e-05
0.00050331707
-0.00032163397
1.6364491e-05
0.00022877656
0.00037318056
2.3391067e-06
-0.0002249947
0.00055707533
3.843558e-05
-0.0002832706
-3.5396011e-05
0.00012963928
-6.3913623e-05
-0.00064746351
0.00014969476
0.00017367802
-0.00054592161
0.00010824572
0.00012357032
0.00019219814
-6.5228423e-05
-0.000295284
0.00061133721
-7.0976198e-05
-0.00028551814
5.9615964e-05
4.0636949e-05
-0.00012748535
-0.00027320088
5.6077834e-05
-1.1416757e-05
-0.00066968368
0.00018905853
0.00017882198
-0.00064139311
0.00014451791
3.823615e-05
0.0002112955
-9.8517818e-05
-6.3957547e-05
-5.2352285e-05
-5.6407176e-05
0.00041462817
4.8147305e-05
6.2256937e-06
0.00033963304
5.1912535e-05
0.00021713555
-0.00034381441
1.5514444e-05
1.4869745e-05
-0.00048414861
1.8019851e-05
-0.00015936125
-0.00035713848
0.00016546492
-0.00014782327
0.00021816131
0.0001099437
-5.1854038e-05
9.0254932e-05
8.3634947e-05
3.8498103e-05
-0.0005696204
-0.00011714826
0.00029441543
-0.0003196663
9.6754065e-05
4.2275282e-05
-0.00013714084
-0.00010188996
-0.00032575419
-0.00022925799
3.6699131e-05
-0.0002518791
-0.00030739519
8.3187612e-05
8.3955319e-05
-2.0191888e-05
0.00011650092
0.00037579204
-0.00012112024
2.7946865e-05
0.00022745848
-0.00011539966
-0.00010633245
-0.00012617412
-9.073304e-05
-0.00021844963
-0.00010887792
-0.00010076168
-0.00023816849
6.5114436e-05
0.00028924381
-9.0055594e-05
0.0001946822
0.00042676606
7.4150934e-07
0.0002940308
-5.7630512e-05
-7.7114091e-05
-9.9451839e-05
-0.00010856782
-0.00014541306
-0.00032008763
-0.00010759234
-0.00021769348
-0.0001174517
-4.4763857e-05
3.4326059e-05
4.1326575e-05
0.00046271383
-1.0154883e-05
0.00030961618
-0.0001004353
-0.00010823833
0.0003322961
-0.00025018867
-4.5692116e-05
-1.0162273e-05
-0.00013487437
-0.00019235092
-0.00037282272
-0.00017187461
-0.00010685804
-0.00039440561
5.9819049e-05
-0.00025711767
0.00027191909
-7.8758979e-05
-6.5880296e-05
0.00013594268
8.7448122e-05
0.00010824556
1.8689135e-05
0.00014681804
0.00010724205
-0.00028927468
-5.353621e-05
6.5416768e-05
-0.00043679753
-5.5257955e-06
-3.7859063e-05
-0.00041136872
0.00015750608
-6.47147e-06
6.5218788e-06
0.00018025185
1.9153449e-05
-0.00010788695
0.00017251697
1.3157807e-05
-0.00059623766
3.2612912e-05
8.1614335e-05
-0.00034037804
-4.7744789e-05
-2.447447e-05
-4.7249424e-05
1.6197388e-05
-0.00016028249
-0.00015946583
6.6015857e-05
-0.00018314901
-0.0003267243
4.219562e-05
-1.3368027e-05
-0.00030329429
0.0001133214
0.00011410018
-0.00024107376
-7.5147074e-06
2.934131e-05
4.329073e-05
-7.393153e-05
-0.00016458208
0.00019282834
-8.9637992e-05
-0.00021992681
4.5726865e-05
-9.1143819e-05
-4.5315554e-05
0.00014862103
-3.3988458e-05
0.00018944354
0.00012594499
6.6061989e-05
0.00012738259
2.1798956e-06
2.2505509e-06
-1.8987437e-05
5.8347034e-05
-2.0544826e-05
-0.00012695587
4.5757911e-06
-4.1996954e-06
-3.4995114e-05
-0.00016690076
3.0176148e-05
0.00034887496
-4.3871391e-05
0.00012271515
0.0003639926
-0.0001152045
-3.4843485e-07
0.00036461619
-0.00027467605
2.3863811e-05
0.00022311177
-4.0087291e-05
4.6717353e-05
3.5724441e-05
-7.6297665e-05
9.1810407e-05
-0.00039572758
3.704642e-05
0.00023820704
3.3712049e-05
0.00040613962
-3.1989908e-05
0.00050464675
-7.9817992e-05
0.00033880018
-0.0001234281
3.0200571e-05
-0.00012819791
-0.00019939798
-0.00018177016
-2.757671e-05
-0.00016529938
0.00011760693
-0.00025307057
-9.8522213e-05
-0.00038010852
-0.00013285788
-0.00030604237
8.1013138e-05
-0.00026112044
0.00012852928
-0.00020698198
-1.6974489e-05
-0.00018122053
-0.00020389555
-0.00011637323
-0.00038314347
-6.1825853e-05
-0.00034740493
7.5521902e-06
-0.00018446722
2.9890623e-05
-0.000135529
-3.211351e-06
1.1992106e-05
1.0999311e-06
0.00015935964
-2.1422541e-05
0.0001893558
-2.7816262e-05
0.00025941879
-1.1715953e-05
0.00036555213
-0.00010155755
0.00031219479
-0.00011354342
0.00032241334
-5.4089937e-05
0.00023676991
-2.9561068e-05
3.632013e-05
-7.4226258e-05
0.00011975826
-0.0001235254
0.00021279744
-0.00016933684
-0.00018293014
-7.9785925e-05
0.00015808428
-4.629782e-05
-0.00018898374
0.0001547592
-6.3465456e-05
-0.00028038199
0.00014475198
-9.167097e-05
-0.00024248583
1.5303839e-06
-7.606459e-05
3.0477397e-05
-0.00023642863
-3.7759295e-06
0.00017865713
-0.00014195279
5.6268626e-05
0.00011312288
8.1543066e-05
7.9924561e-05
0.0001619248
-0.00012532105
8.4210366e-05
7.6668121e-05
8.0698748e-05
0.00010353175
-8.8961979e-05
0.00014833916
6.967134e-05
-3.2349389e-05
-7.2638322e-05
0.00017306494
6.5796399e-05
-0.0001468564
0.0001792547
-5.5171836e-05
0.00016264404
8.5388912e-05
-0.00016733277
0.00011164861
4.4081872e-05
-9.8173678e-05
-6.6153294e-05
-1.9425548e-05
0.00013894435
-0.00025105152
-3.8514385e-05
0.00026059485
-0.00013585472
6.3671106e-05
0.00015396657
0.00013815731
3.1262379e-05
4.1816158e-05
0.0001665721
8.5968008e-06
-2.7211088e-05
0.00015025291
1.0668318e-05
-0.00012355327
0.00014611766
4.7348787e-05
-0.00019234898
0.00012514934
4.8565752e-05
-0.00019381007
4.6840534e-05
8.1401935e-06
-2.6739299e-06
-0.00018783522
-1.2575071e-05
0.00021320967
-0.00023037584
3.7109383e-05
0.00019186348
0.00010654793
-2.7776127e-05
8.2799583e-05
0.00017370207
-2.179598e-05
4.254019e-05
4.6638353e-05
0.00010411434
0.00012464761
-9.1745656e-05
0.00016118644
0.00013741692
0.00011960302
-0.00028370587
0.00052843893
1.4941994e-06
-0.00041554679
0.00029102259
-5.5373515e-05
-0.0003284167
1.6890891e-05
-6.176064e-05
-0.00015976728
-0.00015500499
-7.7171696e-05
0.0001528504
-0.00053731116
1.1197456e-06
0.00035417228
-0.00036990314
0.00011172169
0.00014909781
0.00025041074
0.00012804771
0.00020027928
-0.00040658969
0.0001748211
0.0001530979
-2.4355089e-05
0.00023805441
-0.00022790598
0.00054175399
0.00016378405
-0.00022289431
-0.00020439318
0.0003055991
2.075296e-05
-0.00046032689
0.00023433113
-5.0810047e-05
0.00022177738
0.00020434551
-0.00036596236
0.00045674503
1.5349127e-06
-0.000193348
-0.00022979112
-7.8235677e-05
0.00014220339
-0.00057417015
-0.0001081074
0.00037627921
-0.00041755955
2.3038264e-05
0.00039775771
0.00011857001
1.4473293e-05
0.00018463579
0.00047669653
-9.46634e-05
-0.00016908169
0.00069888133
-0.00015647535
-0.00032342164
0.00037740939
5.2687503e-05
-0.00040132697
0.00024415959
0.00010858985
-0.00035304899
2.4449528e-05
8.2358747e-05
-0.00011880011
-0.00048962966
2.3171316e-06
0.0001538073
-0.00058872917
1.4769719e-05
0.000305841
3.0531163e-06
-7.9019429e-06
6.2564492e-05
0.00048231536
-9.2589404e-06
-8.2760438e-05
0.00011084933
0.00027017249
7.6447874e-05
-0.00033035683
0.00022392078
0.00018451974
0.00024064057
8.1954926e-06
0.00048163152
-1.3740369e-05
0.0001254105
0.00014925085
7.2704028e-05
0.00011952929
-7.2342492e-05
0.00014702713
0.00018963839
-0.00028715689
7.7557248e-05
7.9190537e-05
-0.00041204312
3.1996682e-06
-3.4630255e-05
-0.00016248881
7.1871388e-05
6.3709528e-05
0.00015839131
0.00010362335
-0.00010396943
-8.8574134e-05
-6.670164e-05
-9.9300906e-05
-6.4183471e-05
-8.1988389e-05
4.4776614e-05
0.00040353098
9.0899557e-05
-0.000164578
-7.2762336e-05
-2.4166188e-05
-0.00047111302
-8.0379629e-05
-3.6713109e-05
-0.00033559966
9.2281352e-05
7.7170278e-05
-2.9817262e-05
0.00020228908
6.5174458e-05
0.0002018288
-0.0004325932
-8.9713362e-07
3.5489295e-05
-0.0003589566
-0.00015520651
-0.0001963814
-9.8342633e-05
-0.00030579585
-0.00011531503
4.0627118e-05
-0.00024129196
-3.933468e-06
0.00038305902
-0.00010779964
-6.3115674e-05
0.00063532186
0.0001234832
-3.2630733e-05
0.0002430846
2.6725757e-05
6.8185535e-05
0.0001044345
-0.00010650424
0.00013970493
-3.1603753e-05
-0.0002331596
-9.8348313e-05
-6.7072713e-05
-0.00015017765
-0.00026395822
-0.00034425179
-8.902235e-05
1.6716492e-05
-0.00046853048
8.2670554e-05
0.00017943652
0.00029354501
-1.9641785e-05
8.1188253e-05
1.3799202e-05
2.9474844e-06
-0.00018986517
-8.9669656e-05
-7.6491782e-05
-1.2522651e-05
6.6996271e-05
0.00031370572
0.00012597907
-3.681225e-05
0.00036046018
0.00018567517
4.2693328e-06
0.00013477609
0.00026506547
3.5094174e-05
4.3275937e-05
-0.00016365155
-8.5541393e-05
8.3781113e-05
-0.00041918321
-3.889087e-05
4.4019293e-05
-6.6535355e-05
0.00010131446
0.00010816498
0.00014023551
0.00013426198
-8.8055779e-05
0.00021714434
6.3019269e-05
-0.00024325626
4.4825694e-05
7.8804233e-05
5.8208559e-06
2.1435593e-05
8.527349e-05
-0.00027615339
0.00026669359
-4.1284293e-05
-0.00046176306
0.00018012728
-8.88138e-06
-0.00039659463
8.2007876e-05
-1.269934e-05
-9.9645861e-05
-7.0004102e-05
8.8665797e-05
-7.9967289e-05
-0.00041462974
-4.5156756e-05
-0.00013081162
-0.00032733996
-5.4703857e-05
-0.00022210252
6.8395397e-05
-0.00016508512
-0.00025863292
0.00014238524
-0.00015637154
-0.00010504508
0.00021043513
-1.4952401e-05
6.880215e-05
0.0003552135
0.00017232313
0.00010773258
0.00017215571
3.4249018e-05
0.00020321874
4.8487359e-05
-6.0083842e-05
0.00014915669
0.00022454447
-0.00020628587
7.8372458e-05
0.00020428909
-0.00017040143
6.0194293e-05
-0.00024038168
3.7023204e-05
0.00010766532
-0.0004973551
-1.8994831e-05
0.00041138605
2.6206295e-06
1.1067479e-05
0.00013953808
0.00035205607
-1.9691532e-05
-8.8398919e-05
0.00026234968
-3.2271912e-05
-6.6899643e-05
3.0245027e-06
0.00014571154
1.3979568e-05
0.00030208571
-2.6889011e-06
0.00047890088
8.4323081e-06
0.00024524454
-5.342331e-05
-0.00017029328
-0.0001318433
-0.00025660309
-0.00016199569
-0.00014418431
-0.00013748264
2.3990644e-05
-0.00020410119
-4.5291275e-05
-0.0002660009
-9.4746307e-05
-0.00023515174
4.5448863e-05
-0.00013462202
0.00013584758
-0.00011725342
0.00020115725
-0.00016452233
0.00018278196
-0.00016800206
-0.00016392801
-0.00012974563
-0.00040526714
-7.8448644e-05
-0.0003649524
5.7971282e-05
-0.00028050099
5.4722485e-05
-0.00012687853
5.7912609e-05
0.00012101179
8.5900644e-05
0.00019299519
7.2356043e-05
0.00016497319
6.4793408e-05
0.00030062391
-1.2663804e-05
0.00040827477
-1.6905191e-05
0.00016823255
-5.4429397e-05
-0.00022318669
-0.00013549691
-0.00017411663
-0.00012067568
5.613368e-05
-1.7196244e-06
0.00015421497
-5.0684343e-06
-9.5614806e-05
-0.0001260906
0.00015688963
-7.6556463e-05
-0.00026765429
0.00015568215
-7.5823449e-05
-0.00026764935
1.3082368e-07
-9.0406741e-05
-8.1481711e-05
-0.00022752662
-3.5735769e-05
0.00013755417
-0.00023968017
1.4683947e-05
0.00024376732
-0.00010120181
4.9334806e-05
0.00018969879
9.8882815e-05
3.4462009e-05
0.00015013785
8.7245218e-05
3.5501145e-05
9.2005856e-05
0.00011885122
4.170267e-05
4.5413379e-05
0.00013560469
-2.076975e-05
7.0685538e-05
0.00011089623
3.5269995e-05
2.3640962e-05
0.00012652949
0.00010098461
-7.3422735e-05
0.00015791761
2.3895578e-05
-0.00016145115
3.7628351e-05
9.5392254e-05
-3.092595e-06
-0.00028573068
0.00010735821
0.00018057137
-0.00026046261
3.7993527e-05
0.00012819277
0.00010821934
9.6566566e-06
7.0389074e-05
0.00014820127
-5.9087325e-05
6.6116574e-05
0.00011587936
-0.00010139838
0.00011950469
5.7386481e-05
-9.8299399e-05
0.00012852502
0.00014590392
-0.00010529654
0.00012668651
0.00016677616
-0.00011422241
0.00011380456
0.00016944045
-0.00014621932
8.8491433e-05
0.00017580623
-0.00016031634
0.00014674943
6.5493389e-05
-8.4428332e-05
0.00017542571
6.2112608e-05
-0.0001150835
0.00012749114
0.00015759167
-0.0001280233
0.00010786211
0.00015074089
-2.4855768e-05
9.0928786e-05
0.00013122369
4.9447236e-05
0.00015101184
6.2210509e-05
-0.00031578551
0.00056417789
-9.0008554e-05
-0.00041829129
0.00029137975
-8.8565334e-05
-0.00026823968
-0.00015157149
-6.0109933e-05
-1.8609997e-05
-0.00054807593
-6.2520687e-06
0.00021270382
-0.00051404773
4.4173488e-05
0.00040743133
-0.00030670398
0.00012249636
0.00024122061
0.0002647543
0.00012838694
0.00023992892
3.1808819e-05
0.0002315492
0.00027211118
0.00016595812
0.00015876524
-1.5738648e-05
0.00069816538
-0.0001109268
-0.0002185935
0.00062643785
-7.08767e-06
-0.00015154844
0.00016881372
0.00012500184
-0.00029843092
0.0004194156
8.9729996e-05
-0.00028803181
-5.7217957e-05
8.5982101e-05
-4.28595e-05
-0.00069109488
8.1956206e-05
0.00022058713
-0.00062777384
-4.242803e-06
0.00027741005
0.00010365524
-2.9220559e-05
8.4233292e-05
0.00048881187
-0.00013296055
3.6979298e-05
0.00027372311
-0.00020525315
0.00014280186
-3.6236953e-06
-0.00020128773
0.00012922159
0.00034020205
-0.00012803035
4.5791905e-05
0.00047978149
-0.0001209858
-0.00012224962
0.00054363724
-0.00012379653
-0.00022793725
0.00046172358
-0.0001779126
5.6955492e-05
-9.4980836e-05
-0.0001096488
0.00028176314
-0.00010542434
-6.5172645e-05
0.00018262329
0.00041261103
-0.00016513845
2.9753111e-05
0.00059484074
-2.1057167e-05
-1.4493713e-05
0.00037022501
2.9166303e-05
0.00031205997
6.5098732e-05
7.0038972e-05
0.00052779812
-4.7399564e-05
0.00024768161
0.00016508927
2.1351867e-05
0.00024107819
-9.5893003e-05
9.7952066e-05
5.8133002e-05
-0.00034218962
5.4616116e-05
-0.00012878471
-0.00033450685
1.0576508e-05
-0.00019591437
-7.9598631e-05
-8.8104291e-05
-2.84443e-05
0.0001459395
5.4968099e-05
1.7901304e-05
-7.3689647e-05
-7.5487717e-06
7.7770322e-05
1.0787614e-05
1.3313107e-05
4.2956414e-05
0.00062644111
0.00019743774
-6.3689311e-05
0.00055031672
0.00015860068
-3.6373385e-05
9.2609526e-05
1.217516e-05
0.000163484
0.00027343561
2.3292875e-05
0.00024825684
-8.4432569e-05
7.6162191e-06
-3.4224062e-05
-0.00026361227
-0.00014589885
-0.00016637223
-0.00040479197
-0.00024604023
-9.2862188e-05
-7.5423345e-05
-0.0002002273
-1.616662e-05
0.00034774989
-0.00017692554
2.0189786e-05
0.00017675876
-4.7191681e-05
2.842624e-05
-7.0919677e-05
0.00018254273
4.6907052e-05
0.00024766071
0.00010078629
5.3632718e-05
0.00041038511
-4.3833537e-05
-3.9872428e-06
0.00047764894
-0.00010955134
6.0190411e-05
0.00034965049
-0.00010228221
4.2828857e-05
-0.00013660111
-3.0040519e-05
3.0959572e-05
-0.00023603477
0.00022515028
2.9739218e-05
0.00029473993
9.9449687e-05
-6.4591178e-05
0.00055331067
0.00013880797
-0.00010960822
0.00029616009
4.2590193e-05
0.00022009365
4.9354377e-05
0.00027555258
0.00024729281
-3.1859525e-05
0.00036246901
7.8554561e-05
3.8876117e-06
0.00020446028
0.00012536891
-2.8159013e-05
0.00011848228
-0.00031467656
-2.7076446e-05
1.9563144e-05
-0.00026289723
-1.1581347e-05
-2.9153751e-05
0.00020704988
-0.00013661715
5.8132706e-05
0.00018203371
1.0881329e-05
-0.00021741466
0.00036497855
-0.00010010155
-0.00033925706
0.00028233568
-7.090143e-05
-2.0807741e-05
0.00028269921
0.00011056609
0.00010248442
0.00028991261
9.5827654e-05
6.0038678e-05
0.00016951409
-4.3340205e-05
0.0002176739
0.0001533803
-5.0279264e-05
6.0412558e-05
0.00023849279
-7.6998236e-05
-0.00010560138
-0.00010261359
-4.0141522e-05
-0.00017483321
-0.00039086301
5.990063e-07
-9.6181906e-05
-0.00017586027
-0.0001432995
0.00016134682
2.2037685e-05
-8.8188054e-05
9.4562561e-05
0.00022094647
7.6441558e-06
-0.00022716878
0.00034299736
8.0137445e-05
-0.00019678686
0.00014490318
0.00010662462
-2.7729107e-05
8.6557713e-05
9.46858e-05
0.00013450359
0.00016837106
-5.9240695e-05
0.00027268471
9.4172784e-05
-5.3104848e-05
8.2445735e-05
7.8521245e-05
1.2139818e-05
-0.00011326562
-0.00014920717
8.9888927e-05
-8.3421908e-05
0.00011570891
0.00016025481
-1.8500575e-05
0.00030968951
0.00015900831
-1.4946333e-05
0.0002109539
4.9380055e-05
0.00019571036
1.2461474e-05
0.00026052332
7.4906041e-07
0.00031505191
2.1337062e-05
0.00040204739
4.6805735e-05
-3.5821491e-07
3.4305747e-05
-0.00038870059
-6.3981467e-06
-0.00031379085
-2.9855549e-05
-0.00023659584
-3.2643933e-05
-6.2478725e-05
-1.3239748e-05
-2.6221141e-05
-1.99228e-05
5.8582886e-05
-3.7256559e-05
0.00019217971
2.1693771e-05
0.00023889021
5.5501639e-06
0.0002812904
-5.3542225e-05
0.00038626512
-3.4484004e-05
0.00017898968
-2.5083785e-05
-0.00015411252
-0.00013620947
-0.00030356791
3.1566398e-05
-0.00024420741
1.7399677e-05
-0.00014236455
0.00017701622
9.4944592e-05
0.00019158887
0.00014210307
0.00017010075
0.00010998707
0.00018346712
0.00015112998
0.00011456434
0.00016829355
6.0104018e-05
0.00010100853
9.1376868e-05
-0.00017587793
-7.8176201e-06
-0.00021880619
3.7961504e-05
-5.9321849e-05
0.00014848556
-1.4488975e-05
0.00016105261
8.5606588e-05
-0.00012342993
0.00015968735
-0.00011109261
-0.00024453964
0.00016158324
-0.00011317973
-0.00021572411
1.1380211e-05
-0.00012786574
-1.5585538e-05
-0.00021784924
-1.7387184e-05
0.00019478763
-0.00022804621
3.1169535e-05
0.00028040912
-5.7902579e-05
2.0431693e-05
0.00024626315
0.00011418673
-4.5341509e-05
0.00017659197
0.00017941002
-7.3741601e-05
0.00012450496
0.00016190747
-6.7460852e-05
0.000108193
9.8333396e-05
-0.00010112299
0.00013145773
9.7902767e-05
-8.4407637e-05
0.00010451784
0.00017047461
-4.0202389e-05
8.0355408e-05
0.00015274549
-0.00010274942
1.4059827e-06
0.00017777014
-2.8172471e-05
0.00014092428
-0.0001242202
0.00013843218
-0.00029055505
0.00018188335
-0.00028782865
0.00012595868
-0.00018273349
-0.00014072809
-6.207887e-05
-0.00018212998
0.00015883214
-0.00038204081
-1.7407639e-05
0.00025724015
-8.3079e-05
-0.00011992072
0.00018743352
0.00012376744
-0.00016630792
7.8079716e-05
0.00015691557
-0.00019190006
-1.972318e-05
0.00010805882
-0.00016973319
6.0352709e-06
8.2086429e-05
-0.00018787247
0.0002754985
-0.0003252023
-6.0819329e-05
0.00031672146
-7.0622998e-05
-9.5029833e-05
0.00020824732
0.00014012237
-5.1928068e-05
0.00010578571
0.00015637177
-2.0242251e-06
0.00015201329
1.8548626e-05
-0.00032738821
0.00053827638
-0.00014120937
-0.00037266284
0.00028180778
-0.00016351523
-0.00014244468
-0.00012755619
-0.0001513917
0.00015797866
-0.00053685402
1.232937e-05
0.00037470989
-0.00052962126
0.00012901732
0.00048829015
-0.0002273018
0.00017831532
0.00045410944
0.00015513274
0.00012162165
0.00013264465
0.00073779264
-5.3686244e-06
-3.8129224e-05
0.0005281275
-3.6680914e-05
1.7819386e-05
7.0701613e-05
-0.00013924362
9.1560679e-05
0.00014900837
-0.00013193457
-2.8502193e-06
0.00041142311
-2.1535763e-05
-0.00020611705
0.00050441146
-5.8669144e-05
-0.0003195293
0.00037716448
-0.00010001383
3.3650058e-06
1.2912916e-05
2.1262632e-05
-0.00023282425
0.00039839996
-0.0002068872
0.0001885221
-0.00022146101
-2.068213e-05
-0.00027118275
-0.00018235433
0.00017691497
-0.00077798447
-2.941171e-06
0.00032552124
-0.00029036434
-6.9351283e-05
0.00029285451
0.00021416765
-0.00017871928
-6.5349492e-05
0.00056069285
-0.00016936982
-0.00028147332
0.00032140321
-0.00017513317
-9.3905483e-05
-4.4026481e-06
-0.00021072757
0.00028558986
-0.00072109459
-4.8775697e-05
0.00034944978
-0.00024843914
-5.1182217e-05
0.00025613956
0.00029691505
-8.4539617e-05
0.00011392048
0.00041503508
-8.7277913e-05
0.000375029
-4.3996493e-05
7.3712682e-05
0.0004967275
-7.9563374e-05
0.00028413844
0.0001592247
-6.6490818e-05
0.00035574197
-8.5612465e-05
-1.5595185e-05
0.00015892299
-0.00030470343
1.9284508e-05
-2.4783878e-05
-0.0004328646
9.7526713e-05
-0.00015856328
-0.00013666
-4.4966692e-05
5.3136318e-06
3.5907432e-05
1.0316502e-05
-1.7583152e-06
0.00070428999
3.3025822e-05
-4.3222752e-05
0.0004216699
0.00016123514
-7.4493524e-05
8.2757465e-06
0.00029113439
-6.9677481e-05
9.3125783e-05
0.00020966723
-4.6446416e-05
0.00033615337
6.4213831e-05
2.6482164e-06
0.00049599427
-1.7384574e-05
0.00010196065
0.00028546826
0.00016280568
-0.00020337889
4.4432248e-05
-0.00010640418
-3.6193329e-05
0.00027879823
0.00025639131
-0.00016917083
-0.00011181724
0.0002776467
-0.0002502943
-8.9335509e-05
-0.00012483942
-0.00012406025
-6.8895372e-05
-0.00026105169
-0.00010850562
5.5139847e-05
-2.6273559e-05
-8.6215858e-05
2.1771831e-05
8.3222137e-05
0.00035351649
-1.1870682e-05
0.00028124959
-7.1780872e-05
9.2874403e-05
0.00042871298
-0.00024306742
6.1160858e-05
3.304885e-05
-0.00016553093
6.525076e-05
-0.00026261494
-7.2129054e-05
0.00021880341
-0.00018328996
0.00021634444
0.00014005362
-8.8476801e-05
0.00029716302
6.5649114e-05
0.00031082406
2.5082534e-05
0.00028066013
0.00026205606
-7.7848212e-05
0.0003726078
9.2951287e-05
-2.1786642e-05
0.00022720619
0.00011182116
-8.0191026e-05
0.00012778259
-0.00027343462
4.1078347e-05
2.4644755e-05
-0.00040006855
5.8760449e-05
-0.00020132916
0.00011852716
-0.00016583039
-0.00029193988
0.0002918538
-0.0001544543
3.098887e-06
0.00031883419
-9.6845068e-06
0.00014476667
0.00018004378
2.9056915e-05
-0.00010655754
0.00033970831
3.0457741e-05
-0.0002271854
0.00022898696
8.0594347e-05
-9.3088429e-05
0.00013612541
2.2590781e-05
9.788669e-05
0.00028583781
-3.1097932e-05
0.00028135005
2.5006652e-05
0.00024877068
-0.00021094106
-0.00017132332
0.00031428882
-4.7460785e-05
1.1636197e-05
0.00016486594
-0.00038326456
-8.6421048e-05
0.00012032662
-0.00016981741
-2.8293411e-05
-0.00015566755
0.00023658904
-4.5176673e-06
-0.00023104474
2.613934e-05
4.7356848e-05
-9.2112461e-05
-0.00026301432
0.00013255198
0.00018203075
-0.00014218057
0.00016231314
0.00028702447
-0.00038986062
0.00015998117
0.00026349907
-0.0002106412
3.2389952e-06
-2.0285531e-05
0.00017993897
2.8203644e-05
-0.00035840835
0.00026400306
0.00016224553
-0.00028810665
6.7600373e-05
0.0002374507
-0.00010234746
-9.9787687e-06
0.00017076268
0.00013392648
8.7011605e-05
0.00025230969
1.0495425e-05
0.00034219394
2.4404104e-05
0.00042942336
7.1397472e-05
8.3857435e-05
0.00010643705
-0.00042001274
9.7403483e-05
-0.0004338307
0.00010248958
-0.00026156683
8.6946e-05
-0.00012830453
0.00017233215
-0.00011500449
0.00014682095
3.2312301e-05
0.00015513496
0.00013880246
0.00014419057
0.00013272301
0.00014775502
0.00024882717
0.00011619142
0.00023934981
3.3249538e-06
0.0001814043
0.0002246069
-2.6214047e-05
-0.00011504393
-0.00013191866
0.00011290343
0.00013986653
0.00015639271
0.00027540379
6.070283e-05
0.00019976462
-3.9080387e-06
0.00015986283
1.2285551e-05
-7.9151607e-05
-9.0742174e-05
-0.00025599055
5.7574622e-05
-0.00021059578
0.00012672659
-3.8710067e-05
0.00013007886
4.5040557e-05
0.00013233533
-1.7636892e-05
0.00021375131
0.00020189619
-0.00016940282
0.00015814182
-9.9568919e-05
-0.00027652425
0.00010320819
-0.00010697305
-7.4906636e-05
-0.00025630614
-7.523547e-05
0.00013074748
-0.00025999328
3.4465365e-05
0.00028017812
-0.00012671248
4.1891618e-06
0.00021737778
9.3526267e-05
-1.282591e-05
9.404195e-05
0.00013095412
-5.5655328e-05
-6.6503579e-05
0.00012176945
-3.9107886e-05
-0.00016324088
0.00010899053
-7.8999513e-05
7.2359857e-05
-0.00036566721
2.3999618e-05
0.00025659862
-0.00028618197
1.4741491e-05
0.00014104802
0.00015222878
-7.4950502e-05
0.000170176
-0.00013244733
-0.00013506399
5.9629318e-05
-0.00010795817
-3.719076e-05
-0.00019891669
-8.2802202e-05
8.7885165e-05
-0.0001046748
-3.9005513e-05
0.00021047481
-0.00018651803
-5.7171703e-05
0.00010644351
4.7067496e-05
-0.00010903375
-8.0126762e-05
0.0001198442
-0.00012473355
-8.5427472e-05
-0.00012184771
-4.2940643e-05
2.5177997e-05
-0.00022994476
-6.8020685e-05
0.00013550137
-0.00016046869
-8.8446609e-06
0.00033456048
-0.00033929212
4.5233655e-05
0.00031129929
-6.3572271e-05
4.0439903e-05
0.00014196805
0.00015036425
2.1910175e-05
0.00015695914
6.5325177e-06
-0.00040042507
0.0005870079
-0.00016965038
-0.00030153256
1.2534936e-05
-0.00017173449
8.0987129e-06
-0.00060013487
-0.00011719423
0.00027273341
-0.00055003715
3.7738554e-05
0.00055062473
-0.00034260821
6.7021722e-05
0.00041615097
0.00036185891
4.445645e-05
5.2753008e-06
0.00064209765
2.1353782e-05
-0.0003412115
0.00056580476
-0.00010291713
-0.00021816154
1.5056035e-05
-6.5796388e-05
-8.7880182e-06
-0.00076082204
4.6537687e-05
0.00018177416
-0.00068654034
7.7861624e-05
0.00027421436
6.6531463e-05
-2.8278645e-05
0.00056837048
-0.00018264927
-0.00020575308
5.6934832e-05
-1.3013446e-05
-1.9527153e-05
-0.00049729633
-7.020061e-05
0.00012807941
-0.00025992683
4.7042994e-06
0.00033967755
-0.00047928937
1.1821912e-05
0.00018985044
4.1174753e-05
-2.2999436e-05
-0.00014151696
0.00023140042
5.0441352e-05
-0.00017871572
-0.00032297436
6.3192234e-05
-8.3370801e-05
-0.00052560541
-1.0411837e-05
4.3557358e-05
-0.00033186497
-4.307573e-06
0.00022587291
-0.00067046203
9.767215e-05
0.0002767314
-0.0002718797
7.2909332e-05
0.0001945927
9.2350025e-05
5.2875031e-05
0.00026301902
4.4536327e-05
0.00016863371
0.00051084379
-0.00017203298
0.00036891933
-5.9155885e-05
-0.00019508562
5.1648843e-05
-0.00014952279
-0.00014893677
-0.00010394852
-0.00042198416
4.6828881e-05
-1.9588039e-05
-0.0004995484
0.00017010643
8.4231424e-05
0.00016469597
4.8376788e-05
0.00010040713
0.00057486394
6.1374499e-05
0.00028136503
0.00043156203
-1.3689336e-05
0.00037486257
-4.4491078e-05
0.00012728472
-1.4149245e-05
-0.00013610328
5.5427449e-05
-0.0003535329
-0.00013328254
-4.2069247e-06
-0.00016898498
-3.582391e-05
-1.7978714e-05
0.00042890607
-4.690514e-05
5.416172e-05
-7.8765301e-05
-3.0278824e-05
3.7823564e-05
-0.00043528822
-0.00013500547
8.1358607e-05
-0.00030378495
-6.8572299e-05
3.0433009e-05
-0.00041628284
4.3058911e-05
0.00022087728
-0.00022599123
9.8493527e-05
0.00030029022
4.7520366e-05
9.2596419e-05
0.00012368309
-0.00016094138
0.00010744855
0.00012980697
-0.00049536805
2.4799618e-05
3.5344645e-05
-0.0001671662
-4.9856751e-06
-0.00037648836
-0.00010373206
6.390646e-05
-0.00046066184
-9.1362479e-05
4.3709904e-05
-0.00031215261
-2.9405218e-05
3.889515e-05
-3.253478e-05
8.4837414e-06
0.00031164062
0.00024372849
-0.00012237353
0.00015086048
0.00022775154
-0.00014791392
-3.7929787e-05
6.33731e-05
-0.00010429665
-9.7530222e-05
-0.0003962197
7.4914326e-05
-0.00020797084
-0.00047874889
0.00014840155
-0.00014454632
-0.00012089474
5.6335811e-05
0.0001428402
0.0001324094
6.1372925e-07
0.00041305329
1.9550135e-05
0.0001321143
0.00026562274
5.6281126e-05
7.5715271e-05
-9.3404779e-05
0.00019727454
5.6107438e-05
-0.00028860782
0.00015902426
-1.6509402e-05
-0.00034768823
9.1862893e-05
-4.601561e-05
8.691703e-06
4.1428202e-05
-0.00015392181
0.00016435963
-0.00017562416
-3.7218933e-05
-0.00043541827
-0.00014486624
1.1666736e-05
-0.00028681382
-7.037447e-05
2.8254197e-05
-0.00040305544
1.754198e-05
4.4913638e-05
-0.00016634764
5.6248943e-05
3.6247459e-05
0.000115535
0.00010296468
-2.6216791e-05
-0.00013357101
0.00019507505
2.4318192e-05
-0.00049626057
-4.6403464e-05
-5.6325274e-05
-2.2371467e-05
-3.5947618e-05
-0.00024151831
0.00028130022
-3.7593697e-05
-0.00035157281
0.00023996986
1.6172901e-05
-0.00024215625
1.9617433e-05
1.2323501e-05
-0.0002085947
2.0915293e-05
0.00023607468
1.8149231e-05
0.00040510423
8.31261e-05
0.00041621743
0.00012365737
5.5979976e-05
7.045481e-05
-0.00036904063
4.3675202e-05
-0.00045029938
6.2853591e-05
-0.00030185763
7.091365e-05
-0.00020043747
9.0462131e-05
-0.0001227717
0.00012543631
-1.3643914e-06
0.00023100219
0.00011548016
0.00018637028
0.00011114342
0.00024395465
0.00023602654
0.00020106972
-0.00015175402
2.5649618e-05
-0.00014709473
-5.2697494e-05
-5.2073996e-05
-0.00020376288
-0.00019128722
-0.00018263158
-0.00019138699
8.0896164e-05
-0.0001357072
1.7163606e-05
-0.00016058063
-0.00031674197
-0.00010478037
-0.00034698146
0.00013459462
-9.5148834e-05
0.00015954646
0.00015986003
0.00011729634
0.00018357731
0.00020965148
0.0001768788
-0.00012919224
0.00015380917
-0.00012269674
-0.00021401372
0.00012080349
-0.00014025545
-6.4606553e-05
-0.00014683119
-7.7044553e-05
0.00011647977
-0.00022961758
8.2537923e-05
0.00021655145
-0.00010273503
4.1981126e-06
0.00011681771
9.7201813e-05
-1.1534072e-05
-7.79874e-05
0.00014104926
-4.7986865e-06
-0.00024539741
0.00010801473
2.0133147e-05
-0.00011849317
-0.00025054327
4.2011197e-05
0.00014021971
-0.00033104239
9.2413664e-05
0.00025235325
-9.6230353e-05
-3.6234666e-06
0.00013593288
9.1704676e-05