/*--------------------------------*- C++ -*----------------------------------*\
| =========                 |                                                 |
| \\      /  F ield         | OpenFOAM: The Open Source CFD Toolbox           |
|  \\    /   O peration     | Version:  v2012                                 |
|   \\  /    A nd           | Website:  www.openfoam.com                      |
|    \\/     M anipulation  |                                                 |
\*---------------------------------------------------------------------------*/
FoamFile
{
    version     2.0;
    format      ascii;
    class       volScalarField;
    location    "670/bottomWater";
    object      T;
}
// * * * * * * * * * * * * * * * * * * * * * * * * * * * * * * * * * * * * * //

dimensions      [0 0 0 1 0 0 0];


internalField   nonuniform List<scalar> 
1460
(
970.38512
968.65597
965.51089
963.34697
961.07422
957.62401
957.30867
954.47953
949.4286
948.50336
941.64698
939.4671
935.62201
931.14772
925.84756
923.40869
921.10532
922.75786
925.16839
927.00883
925.42785
923.3445
924.27428
928.1701
932.1193
931.43927
928.51411
925.76432
925.96633
930.48753
964.23185
965.20726
963.37836
962.44262
961.6736
957.44817
956.53353
950.78973
950.07782
945.50886
943.39573
937.46053
932.65021
927.02175
923.04368
921.99888
920.5116
920.96196
921.93178
923.50149
922.80912
922.67058
922.52223
923.71798
926.63445
927.03696
925.32709
925.5958
924.37705
926.69898
964.74184
964.83377
963.25335
964.04634
961.97776
955.79835
954.48176
950.76142
950.25378
947.19318
944.20765
936.43817
931.02811
926.72076
923.1675
922.22074
920.33587
920.8644
922.14405
923.38964
923.3561
922.85564
922.70905
923.35705
926.34397
924.61549
924.61232
925.45505
924.28057
923.49201
964.8432
964.44643
963.50102
964.45702
961.54379
956.10116
953.76704
952.06651
950.54997
947.01198
946.15563
938.60322
933.79368
924.64341
920.5755
920.28293
920.74374
921.97656
922.55751
923.40617
923.45224
922.95286
921.08498
920.02294
925.49242
924.19612
922.65081
923.21728
923.42759
923.22509
964.52162
964.54802
964.64645
964.69817
961.85236
955.86589
955.56198
952.72607
950.39238
946.63895
943.26285
939.24258
937.31577
924.322
919.81845
919.37759
920.00897
920.56182
921.47033
921.13664
920.17367
920.22768
919.85753
919.54191
918.96051
918.76311
919.44756
921.82681
922.53209
923.17401
972.47594
968.52006
966.10675
963.64809
961.14872
958.8333
959.31788
955.27259
953.65044
950.14723
941.45948
936.85567
937.59843
931.07809
927.09065
921.96049
922.11264
924.99787
927.61718
928.71604
927.55066
926.06328
924.75045
922.89552
924.06325
928.9673
932.65916
933.22059
931.35595
935.38487
967.11121
965.39424
964.14666
963.12475
960.71752
958.35185
958.29643
953.6062
952.02947
944.95544
936.14614
931.27044
933.15199
925.44804
923.10955
920.28201
918.25658
920.32838
921.88261
923.28354
923.938
922.9874
922.39996
922.38428
921.28565
925.00233
927.75082
927.46459
926.47495
929.65066
966.92251
965.05794
964.17305
964.8521
960.70089
957.3309
957.3383
952.22149
948.65096
945.38096
934.77828
929.0779
928.35636
925.74603
925.13775
920.41319
917.19097
918.98119
921.24612
923.37153
923.50583
922.53582
923.01487
922.90052
921.37197
921.57931
927.55325
927.43023
927.73578
928.0532
966.82501
966.11119
965.23302
965.57645
958.87639
956.15238
956.10971
952.04579
946.9884
945.60199
938.2184
930.94547
928.33836
926.9503
925.50996
918.32116
917.47542
919.64908
921.81837
923.41476
923.19549
922.36719
922.52554
922.59569
921.10048
921.398
925.17538
924.96801
925.23101
925.4516
965.81677
965.99616
965.5004
965.47405
959.38601
956.46853
955.58259
952.89739
950.48692
947.83756
941.79558
936.2934
935.01731
933.41509
926.95261
918.20563
918.54078
919.67136
920.94924
922.22958
921.39743
920.18635
920.63142
920.55094
919.53912
921.38493
923.69001
924.06299
924.41734
925.47247
972.31759
969.32953
967.2707
965.21546
960.41513
960.30566
960.95784
959.07552
956.75497
954.93179
947.2954
942.83726
938.67025
931.70075
928.15426
920.44282
923.69224
923.90926
924.74466
924.42249
925.73611
926.30601
926.82875
927.91353
929.74382
930.54818
932.79007
935.94579
937.00086
940.36511
968.85293
967.05424
966.05317
966.03095
960.39414
960.08436
959.95009
957.07105
954.47865
951.56115
938.40409
934.60164
932.21216
928.00933
926.6065
918.51877
920.08602
919.19662
917.26686
918.36349
921.60685
922.53158
923.83299
925.03349
924.96351
925.44845
927.08563
929.40488
930.2689
933.76334
968.88099
966.89012
965.99532
966.32626
960.57068
960.24384
959.38372
955.95815
953.81502
951.08358
939.51895
934.41595
931.57571
930.04004
926.73893
918.24547
914.75696
916.24707
916.86098
922.28378
922.09244
922.161
923.16936
924.59577
923.06777
922.31428
926.66674
929.30337
930.55708
932.42779
968.88509
968.11245
967.68354
967.20829
960.1496
959.3901
958.89739
954.28881
950.42373
950.12896
940.52448
937.23376
932.70946
930.37713
926.57433
919.10598
913.97016
915.3561
916.99846
921.6764
922.20459
922.15388
922.79122
923.82738
923.0932
922.90821
926.82695
929.15525
930.30908
931.76162
968.40826
968.08693
967.66049
967.07635
958.02115
957.88406
956.5096
953.98431
950.71682
949.98596
943.08816
940.56298
937.29959
933.24056
931.58551
921.01796
915.98715
917.04787
918.18554
920.82427
920.34681
919.56894
920.09825
920.40007
919.52506
921.70917
925.94577
927.8469
928.78638
929.84149
971.49073
970.00925
968.66845
967.74954
962.68868
962.78877
963.52698
961.6997
958.91805
955.89912
950.4143
948.91368
941.7083
932.91212
925.09545
918.22635
916.59724
914.91308
916.76351
916.32844
918.65482
920.62749
922.55624
923.58218
926.44395
922.99011
926.90589
931.19784
936.0462
942.26007
968.70689
967.76967
967.16221
967.40786
963.13062
962.01878
961.86789
960.25552
955.8405
952.04755
943.56181
942.92817
931.86231
924.20131
920.37008
914.22057
911.51291
909.58687
910.78178
915.72554
917.38307
917.63769
919.39162
921.4929
921.70447
921.01552
923.83119
926.26329
929.84786
935.32235
968.63931
967.82771
967.39537
967.48981
962.50908
961.64223
961.65506
959.92608
954.52216
949.12964
942.08848
941.45305
931.79682
923.34038
921.96305
918.38308
910.66127
906.61843
909.28056
915.56596
919.11366
917.93141
919.53995
920.68144
920.16732
920.85506
927.04548
928.17889
930.38148
934.13206
968.59078
968.35534
968.06824
967.93649
961.34949
960.41134
959.9792
959.63936
954.11689
949.15894
940.57474
939.20258
931.48812
924.55893
923.72859
917.37473
909.65748
909.06297
911.85322
916.07176
919.39261
918.50829
918.81895
918.06184
919.17592
920.22724
927.64891
929.12619
930.21001
932.87023
968.4492
968.25644
968.01535
967.76973
959.59527
958.14645
958.03296
956.81078
951.84102
949.3274
941.68863
940.35844
934.39614
929.96184
924.66688
915.38226
912.63613
909.32615
915.73733
916.80956
917.4938
917.4552
917.13161
917.61025
920.15627
921.88628
925.58246
926.23353
926.38997
929.0777
969.40843
968.07701
966.37907
964.6282
963.9465
964.60731
962.22594
953.99053
951.28822
949.31918
939.23694
941.42149
929.80831
905.31655
914.06628
916.9046
916.9962
919.00215
920.88274
920.65535
921.38185
923.45828
925.51895
928.41089
932.2851
937.92816
967.40276
966.7788
966.57183
964.35974
962.62585
963.04239
962.2536
952.77012
951.68857
950.4052
936.11142
938.92323
931.23628
904.47448
911.18026
913.96023
915.53106
916.00604
918.23388
919.15849
919.90909
921.5074
926.33637
926.53883
927.96531
932.30279
967.30986
966.99062
966.68154
964.25034
959.99959
963.46661
962.02928
954.8249
954.83729
950.71524
935.71956
932.86492
928.18464
897.2611
910.27301
913.78719
916.00905
917.1912
917.75189
918.64852
919.81047
921.40448
927.4088
928.95785
929.78846
930.92596
967.27372
967.11755
966.44673
965.33187
958.85223
960.59685
961.33221
956.77264
956.08877
946.17145
931.88901
927.69566
925.1589
906.38377
910.49088
913.53554
916.20541
917.33883
918.3407
918.44258
920.21092
922.60953
927.14528
928.59803
928.5824
927.93113
967.18134
967.11495
967.01
966.94567
957.20146
954.64044
954.42308
952.13993
949.38779
945.75327
937.4133
936.76595
931.75665
901.85198
908.37594
913.21447
916.30822
916.94271
917.28172
917.45699
920.67326
923.69341
925.67284
926.83346
925.76096
926.40515
969.13957
967.9685
966.66661
965.74172
965.0067
964.95609
957.4398
952.86027
951.7506
945.09135
942.40064
941.96396
930.01121
909.90174
915.79083
920.74901
918.45057
918.86104
919.72948
920.5554
922.33969
924.41128
926.65457
930.23516
933.68024
939.19536
966.7799
966.0953
965.66589
965.02262
963.94572
964.22217
959.83265
954.83036
955.88878
946.99727
940.46897
940.88674
931.22351
905.7409
915.16939
919.57864
917.79104
918.07263
919.65275
920.55669
921.78573
924.04999
926.84483
927.00534
928.60757
931.85734
966.72603
966.37929
965.91623
964.77689
962.13528
964.24651
960.49151
959.09852
957.25733
947.6909
937.97716
935.44718
925.08528
900.08467
914.90431
917.85984
917.74638
918.18403
919.28217
919.65221
920.99571
924.06688
927.29411
928.61716
929.67591
931.14333
966.75683
966.47457
966.02904
963.92669
962.15878
963.98513
960.37143
958.85419
956.58052
949.69021
939.36523
934.90129
928.10833
911.36565
916.24937
917.65769
917.65964
918.76166
919.08468
919.38754
920.13482
922.97556
924.39584
925.20445
925.29827
925.01125
966.4746
966.4654
966.12123
963.03764
961.44344
960.57437
958.53245
956.89503
955.01267
946.69068
939.2439
938.42029
932.48118
908.64201
915.43565
917.10764
917.68998
918.0941
918.4015
918.6664
918.47041
922.76489
924.27884
924.97818
924.57153
924.64118
967.75912
966.4326
964.82983
965.3945
963.45015
963.68331
960.16788
950.86403
950.02921
941.40659
939.00509
938.69899
933.18261
926.69311
926.19373
925.53715
924.34009
922.99673
920.58539
918.30492
919.01053
919.27624
920.20201
920.96685
921.90276
924.64607
927.14018
930.13276
933.64641
936.91624
966.00587
965.11782
964.16212
964.25391
963.7241
963.76924
962.64986
952.69829
952.3706
945.51985
943.02921
942.73589
934.10479
924.64702
928.7006
927.50421
925.80546
919.01118
918.03533
918.05227
919.30493
919.03045
920.55645
921.69472
922.2808
923.46607
925.31438
927.09994
928.91599
931.46248
966.42369
965.92601
963.97499
963.85745
963.32876
963.77231
961.92985
956.18867
952.28511
944.44159
943.05567
946.915
934.21699
924.54584
929.91054
927.92722
925.63288
917.65735
918.03334
918.0969
919.57625
918.99561
920.32918
921.2809
921.88698
923.40757
924.75608
927.33862
929.08425
931.00651
966.53037
965.77185
962.83434
963.09244
962.74508
962.36519
961.11174
958.53501
953.79834
947.58588
950.4787
948.63292
933.36143
921.85209
922.50666
923.25854
923.16086
917.92844
918.08622
918.56177
919.91293
919.65441
920.26701
920.87479
921.04304
921.17458
921.7372
924.11317
926.22568
929.12756
966.14331
965.72894
962.26378
961.3202
961.19847
960.48569
959.74741
958.22173
956.43474
954.92496
952.1681
948.15156
931.88586
920.461
920.43775
920.74279
921.16788
917.28876
917.01274
917.82338
918.70888
918.77536
919.53014
919.45859
919.58944
919.09097
919.77176
920.52816
921.33782
921.1003
967.5685
966.03612
964.31341
966.49457
963.614
964.06323
963.29781
959.40208
949.98977
947.20957
949.57918
951.36381
942.83237
940.07198
936.93811
935.57624
933.94858
923.1277
922.00121
919.56359
919.27316
919.23863
918.67966
921.28175
922.12965
922.8828
925.0108
928.03113
931.3994
933.66024
965.82148
965.051
962.46003
964.26334
963.25652
962.76137
962.40959
954.95568
949.21643
947.50121
948.21331
950.24465
945.35485
941.29072
939.42304
937.45647
935.49501
923.39497
920.87225
921.37767
920.68143
920.00777
920.62936
921.81415
922.05354
922.06714
923.02417
925.66531
927.48743
928.85588
967.13999
964.92985
961.89938
962.89948
962.91848
962.41369
961.83024
954.55462
949.47487
946.77156
946.88745
949.83897
946.27563
941.3784
941.03073
938.2018
935.86257
924.10028
922.47516
921.69312
920.22195
919.95636
920.67395
921.67238
921.5395
921.38924
922.67328
926.00086
927.85269
928.81892
966.04712
964.19257
961.22664
961.41371
961.12605
961.02966
961.36624
954.82787
953.52833
951.0983
951.12741
951.62901
947.23385
938.04992
937.84243
936.63988
935.302
923.75291
922.44855
921.69782
920.22843
920.14782
920.6611
921.31562
921.13043
920.37621
920.29152
924.53653
927.28361
928.44742
966.41699
965.44185
960.77255
960.55122
960.22806
959.43939
958.67206
955.06338
954.30026
952.82353
952.5639
952.4656
948.66348
931.55979
932.85045
931.76937
931.67062
921.30918
918.33487
918.35149
919.16025
919.36142
920.00072
920.13191
920.03189
919.43677
918.86369
922.67033
925.1967
926.5571
968.40866
965.38044
966.30873
966.04443
963.20501
960.15536
961.25414
955.72231
949.31901
948.35596
948.15503
949.01254
946.29781
944.56864
942.36827
939.29831
937.71265
928.03126
922.2871
920.5055
919.03375
920.17231
919.96173
920.83529
922.14018
922.51001
923.3826
925.03277
928.17895
929.96223
965.51729
964.05955
963.01299
964.14582
962.4381
959.92504
959.8877
954.77893
949.10474
948.6713
948.30357
948.75375
947.59183
945.6259
942.97916
939.66139
937.36288
928.80784
921.16205
920.43292
920.21795
919.68643
919.60838
920.60884
922.26911
922.4176
922.53081
925.17258
925.44271
926.21826
967.79528
963.82744
962.35217
964.2183
963.79811
959.73904
956.79325
954.19333
949.38499
948.3609
947.75359
948.09756
947.96313
942.88579
942.89918
939.41823
936.59066
929.86197
922.78099
922.55049
920.74081
920.20338
920.15768
920.60755
922.06673
921.09154
921.5857
925.54607
926.13316
925.93215
967.13037
962.85699
960.72671
961.49721
960.44842
957.70772
956.0181
954.36527
950.12108
949.23957
950.10254
951.46083
949.53039
932.91132
940.44471
936.75467
933.56065
929.2649
924.48172
923.52985
920.10984
920.25804
920.36681
920.58408
921.30997
920.57759
921.58561
925.0448
926.2254
926.0882
967.15625
965.4012
959.7607
958.5614
958.33328
957.16657
956.25784
954.87895
951.43809
951.05548
950.87193
950.57224
950.01903
931.69751
933.16453
932.92237
929.35083
925.71935
923.10781
920.5282
918.13613
918.89957
919.23677
919.26457
918.08993
920.1427
921.79959
923.305
924.21041
924.4851
973.10399
971.13463
969.05252
967.20817
964.4962
962.47842
959.07561
960.03074
954.11829
950.49385
947.1611
943.64017
939.55563
935.74026
932.89
929.10858
930.25909
926.80046
919.6344
918.07233
917.3079
918.97705
918.60056
920.45213
921.37424
923.1917
922.85019
923.10587
927.12935
929.40974
969.00209
968.17759
966.49425
965.00959
962.47722
960.82145
957.38254
957.46071
951.9287
945.88061
943.36977
941.02528
937.99256
935.40617
932.81314
931.16629
930.44854
926.85204
919.78487
919.59646
918.35926
918.80246
918.98576
919.41797
920.9355
921.86474
921.58624
921.55271
923.38037
925.07448
968.90424
964.92084
965.4242
965.29324
963.38233
963.36613
956.32977
952.14377
950.41751
945.85808
944.80345
942.54635
939.39874
932.09117
932.63485
931.44295
928.96254
926.86938
920.4397
920.16072
918.25637
918.7165
919.00063
919.40779
920.7274
921.94223
921.49467
921.58167
922.72477
923.88913
969.22087
962.84087
961.92286
962.32552
961.66128
961.47834
956.37565
953.36823
951.52783
947.14662
950.16106
945.00901
938.44042
929.20948
926.55456
926.57814
926.7897
926.00412
921.21613
920.1227
917.86991
918.16609
918.35112
918.81597
920.14499
921.80673
921.33791
920.45309
922.33361
923.64123
967.36088
963.28717
960.18098
957.20724
957.00061
956.71054
956.08137
954.94908
953.23835
951.85306
952.04486
947.39604
949.28905
928.25935
926.62978
926.43863
925.3701
922.59742
921.29044
920.1447
917.69902
917.79021
917.86153
917.54905
917.73223
920.27966
919.35385
920.1783
921.23498
921.6247
)
;

boundaryField
{
    minX
    {
        type            zeroGradient;
    }
    maxX
    {
        type            zeroGradient;
    }
    minY
    {
        type            fixedValue;
        value           uniform 1073;
    }
    minZ
    {
        type            zeroGradient;
    }
    maxZ
    {
        type            zeroGradient;
    }
    bottomWater_to_rightSolid
    {
        type            compressible::turbulentTemperatureCoupledBaffleMixed;
        refValue        nonuniform List<scalar> 
130
(
751.48385
759.55675
767.96553
776.29056
784.21875
791.52548
798.06746
803.75818
808.55101
812.41626
815.3347
817.28455
818.26261
745.70369
755.09604
764.67007
773.92701
782.55583
790.37594
797.28064
803.22323
808.19717
812.18569
815.17543
817.16977
818.17103
734.06787
746.50026
758.57081
769.70655
779.68094
788.43632
795.98108
802.35546
807.61966
811.80631
814.92397
816.99349
818.02968
716.64199
734.84923
750.94871
764.76214
776.47845
786.35612
794.62977
801.48496
807.05038
811.42255
814.65017
816.78166
817.85114
696.05817
723.79582
744.69596
761.08042
774.24407
784.96933
793.75147
800.91987
806.6794
811.16016
814.45071
816.60899
817.68418
696.16045
723.88833
744.75944
761.11355
774.25531
784.96199
793.72301
800.8608
806.59926
811.05952
814.33413
816.48359
817.55113
716.86325
734.99843
751.03637
764.79938
776.47272
786.31013
794.53275
801.32374
806.82136
811.12987
814.3162
816.42107
817.46712
734.35981
746.66895
758.63435
769.6964
779.61178
788.30899
795.79105
802.09712
807.27694
811.37912
814.44837
816.48945
817.50928
746.03989
755.28147
764.71931
773.8703
782.42305
790.17262
797.00844
802.87994
807.78085
811.69835
814.63687
816.59644
817.57684
751.80749
759.7255
767.99783
776.20616
784.04307
791.27359
797.7449
803.36985
808.10132
811.89528
814.75102
816.66197
817.61959
)
;
        refGradient     uniform 0;
        valueFraction   uniform 0.99248593;
        value           nonuniform List<scalar> 
130
(
752.75435
760.77342
769.11647
777.37173
785.24077
792.4898
798.98024
804.62383
809.37917
813.22052
816.1349
818.07539
819.05092
747.01091
756.34228
765.85398
775.03511
783.58999
791.35468
798.20687
804.09721
809.04768
813.02352
815.9936
817.97564
818.9773
735.4428
747.79034
759.78999
770.83846
780.73205
789.42562
796.91598
803.23586
808.47689
812.66392
815.77244
817.83349
818.86982
718.08988
736.20842
752.19496
765.90977
777.53775
787.33875
795.55386
802.37665
807.91323
812.28029
815.48858
817.60523
818.68685
697.60447
725.18274
745.96214
762.2468
775.31633
785.96354
794.68102
801.81964
807.55862
812.02057
815.29514
817.42914
818.50108
697.75699
725.32766
746.05448
762.29008
775.33614
785.96467
794.66186
801.74453
807.47211
811.91025
815.16551
817.29576
818.35581
718.36923
736.36608
752.28962
765.95587
777.542
787.31116
795.47145
802.21239
807.66496
811.94622
815.11431
817.20944
818.24585
735.76448
747.95883
759.83444
770.81948
780.66188
789.29853
796.72536
802.98328
808.11971
812.18676
815.26153
817.30623
818.32862
747.38991
756.54249
765.89008
774.95433
783.44854
791.14241
797.92706
803.74563
808.62517
812.52563
815.45338
817.40502
818.38012
753.09075
760.93949
769.14106
777.26936
785.04806
792.22478
798.64513
804.2292
808.94423
812.70275
815.54317
817.4477
818.40104
)
;
        Tnbr            T;
        thicknessLayers List<scalar> 0();
        kappaLayers     List<scalar> 0();
        kappaMethod     fluidThermo;
        kappa           none;
        alphaAni        none;
        alpha           none;
        field           T;
    }
    bottomWater_to_leftSolid
    {
        type            compressible::turbulentTemperatureCoupledBaffleMixed;
        refValue        nonuniform List<scalar> 
130
(
924.3762
924.32212
924.20477
924.01942
923.76556
923.47727
923.19171
922.8907
922.58902
922.2953
922.03292
921.82567
921.71023
924.46487
924.40895
924.28576
924.09285
923.82514
923.54261
923.25389
922.94901
922.64334
922.34617
922.06756
921.84598
921.72451
924.60808
924.54995
924.42526
924.22758
923.95002
923.66916
923.37476
923.065
922.7515
922.45354
922.16846
921.95118
921.82252
924.74072
924.68562
924.56667
924.3756
924.10205
923.81737
923.52442
923.215
922.89007
922.57746
922.28217
922.06447
921.92547
924.84554
924.79518
924.68518
924.50681
924.24511
923.96588
923.67589
923.36766
923.04697
922.72588
922.42712
922.21086
922.07222
924.93666
924.88963
924.78678
924.62583
924.42021
924.17974
923.90722
923.61703
923.31039
922.98591
922.69074
922.47036
922.32117
925.01958
924.97055
924.86372
924.72131
924.54578
924.33556
924.09643
923.83787
923.57063
923.30656
923.05707
922.83727
922.6569
925.0967
925.04264
924.93033
924.79516
924.63374
924.44374
924.22898
923.99255
923.76113
923.54244
923.34951
923.1894
923.07373
925.15619
925.09487
924.97528
924.83531
924.67916
924.50189
924.30748
924.09921
923.88739
923.702
923.54728
923.42723
923.3554
925.18502
925.11586
924.99975
924.85376
924.69985
924.53361
924.35447
924.16543
923.97642
923.80597
923.66779
923.55332
923.49937
)
;
        refGradient     uniform 0;
        valueFraction   uniform 0.99248593;
        value           nonuniform List<scalar> 
130
(
924.67785
924.62439
924.50867
924.32509
924.05164
923.72061
923.43497
923.11489
922.79796
922.47825
922.19252
921.9566
921.82757
924.77559
924.72146
924.59545
924.40379
924.09221
923.79003
923.49686
923.17405
922.8526
922.53774
922.21596
921.95458
921.8244
924.9372
924.8771
924.75013
924.54953
924.20605
923.92629
923.62378
923.29736
922.96166
922.66043
922.32572
922.09106
921.93884
925.06916
925.01302
924.89315
924.70167
924.36875
924.0753
923.78369
923.46741
923.1076
922.77849
922.428
922.20194
922.01919
925.16366
925.11318
925.00322
924.8257
924.49279
924.19633
923.90683
923.58381
923.24486
922.8988
922.53979
922.32028
922.14506
925.24879
925.20205
925.09735
924.9145
924.69852
924.45332
924.16739
923.86713
923.54866
923.16407
922.81518
922.59027
922.39758
925.32859
925.27684
925.14478
924.99634
924.82121
924.60718
924.36425
924.09622
923.81754
923.54414
923.27583
923.02751
922.72619
925.4072
925.34624
925.19969
925.06386
924.90123
924.70673
924.48781
924.22605
923.99063
923.76251
923.56907
923.40943
923.26589
925.4718
925.39777
925.23673
925.08877
924.93207
924.74737
924.5476
924.33053
924.09438
923.90753
923.75262
923.63125
923.55587
925.50195
925.40272
925.2642
925.09689
924.94258
924.7754
924.59289
924.39677
924.19632
924.01669
923.88106
923.73263
923.69329
)
;
        Tnbr            T;
        thicknessLayers List<scalar> 0();
        kappaLayers     List<scalar> 0();
        kappaMethod     fluidThermo;
        kappa           none;
        alphaAni        none;
        alpha           none;
        field           T;
    }
    bottomWater_to_heater
    {
        type            compressible::turbulentTemperatureCoupledBaffleMixed;
        refValue        nonuniform List<scalar> 
92
(
732.17427
734.26483
738.37645
744.25424
723.02139
725.44606
730.23644
737.16825
703.5647
706.70112
713.00409
722.36314
345.5235
342.79834
342.79491
345.43619
422.19497
418.8574
419.0121
422.4621
487.78636
485.00218
485.6431
489.22747
543.60291
541.92862
543.77521
548.15057
671.71379
589.81531
675.64423
590.02257
684.11701
594.56761
697.85894
602.01962
345.5235
345.43619
422.19497
422.4621
487.78636
489.22747
543.60291
548.15057
589.81531
602.01962
345.5208
345.5208
342.81193
342.82648
345.48635
345.48635
422.21024
422.21024
418.89812
419.07667
422.54504
422.54504
487.79607
487.79607
485.0433
485.7094
489.32777
489.32777
543.62187
543.62187
541.95354
543.83237
548.25594
548.25594
589.81364
589.81364
590.03819
594.62036
602.11974
602.11974
671.83282
675.81161
684.34908
698.11282
703.90746
707.08112
713.43169
722.77301
723.55975
726.01213
730.80472
737.64819
732.86064
734.93035
738.97609
744.73354
)
;
        refGradient     uniform 0;
        valueFraction   nonuniform List<scalar> 
92
(
0.99248593
0.99248593
0.99248593
0.99248593
0.99248593
0.99248593
0.99248593
0.99248593
0.99248593
0.99248593
0.99248593
0.99248593
0.99248593
0.99248593
0.99248593
0.99248593
0.99248593
0.99248593
0.99248593
0.99248593
0.99248593
0.99248593
0.99248593
0.99248593
0.99248593
0.99248593
0.99248593
0.99248593
0.99248593
0.99248593
0.99248593
0.99248593
0.99248593
0.99248593
0.99248593
0.99248593
0.99248593
0.99248593
0.99248593
0.99248593
0.99248593
0.99248593
0.99248593
0.99248593
0.99248593
0.99248593
0.99248593
0.99248593
0.99248593
0.99248593
0.99248593
0.99248593
0.99248593
0.99248593
0.99248593
0.99248593
0.99248593
0.99248593
0.99248593
0.99248593
0.99248593
0.99248593
0.99248593
0.99248593
0.99248593
0.99248593
0.99248593
0.99248593
0.99248593
0.99248593
0.99248593
0.99248593
0.99248593
0.99248593
0.99248593
0.99248593
0.99248593
0.99248593
0.99248593
0.99248593
0.99248593
0.99248593
0.99248593
0.99248593
0.99248593
0.99248593
0.99248593
0.99248593
0.99248593
0.99248593
0.99248593
0.99248593
)
;
        value           nonuniform List<scalar> 
92
(
733.61813
735.65912
739.73654
745.5749
724.60235
726.96022
731.64886
738.53111
705.29054
708.39093
714.56715
723.81804
349.93709
347.17372
347.11873
349.72793
425.9671
422.62584
422.73317
426.13691
491.05919
488.28556
488.8948
492.39418
546.46549
544.79752
546.58252
550.86701
673.65432
592.37123
677.51537
592.53708
685.85482
596.97831
699.47288
604.3537
349.91387
349.64315
426.01992
426.08402
491.09553
492.29349
546.46995
550.8423
592.38476
604.27253
349.91269
349.88783
347.19557
347.20506
349.72729
349.83594
426.03492
425.98573
422.7289
422.89708
426.17581
426.32661
491.08186
491.07797
488.38617
489.03226
492.41424
492.60622
546.511
546.46397
544.81312
546.68345
550.98429
551.07303
592.38854
592.29814
592.52082
597.07083
604.42291
604.51709
673.70101
677.64973
686.12533
699.78887
705.61806
708.77757
715.07228
724.34269
725.1237
727.56863
732.32341
739.08859
734.32902
736.37078
740.38466
746.09082
)
;
        Tnbr            T;
        thicknessLayers List<scalar> 0();
        kappaLayers     List<scalar> 0();
        kappaMethod     fluidThermo;
        kappa           none;
        alphaAni        none;
        alpha           none;
        field           T;
    }
}


// ************************************************************************* //
