/*--------------------------------*- C++ -*----------------------------------*\
| =========                 |                                                 |
| \\      /  F ield         | OpenFOAM: The Open Source CFD Toolbox           |
|  \\    /   O peration     | Version:  v2012                                 |
|   \\  /    A nd           | Website:  www.openfoam.com                      |
|    \\/     M anipulation  |                                                 |
\*---------------------------------------------------------------------------*/
FoamFile
{
    version     2.0;
    format      ascii;
    class       volVectorField;
    location    "670/bottomWater";
    object      U;
}
// * * * * * * * * * * * * * * * * * * * * * * * * * * * * * * * * * * * * * //

dimensions      [0 1 -1 0 0 0 0];


internalField   nonuniform List<vector> 
1460
(
(0.00093663745 -0.013377236 0.0017181841)
(-0.00072975746 -0.016219599 0.00059505259)
(-0.0024053271 -0.01427107 0.0001564624)
(-0.0041426722 -0.013175748 5.3588016e-05)
(-0.0012213093 -0.011398456 0.00069799796)
(0.0017485589 -0.011672776 0.0010477906)
(0.0010677135 -0.018844002 0.0016174641)
(-0.0025681111 -0.019106099 -0.00045828925)
(0.0013283548 -0.012178123 0.0011220951)
(0.00076071448 -0.01451251 0.0012244972)
(-0.0021055974 -0.01334993 0.0024498831)
(0.001478747 -0.011278841 0.0020184755)
(0.0012018209 -0.011765666 0.0027236284)
(-0.0010375758 -0.018008804 0.0016606799)
(-0.0028709915 -0.01641673 0.00055776914)
(-0.0024694531 -0.012169981 -0.00074819246)
(0.0021510828 -0.013351691 0.00078889029)
(0.004600108 -0.01248505 0.001307081)
(0.0040257471 -0.014118728 0.0014384194)
(0.000986355 -0.016476217 0.0014250866)
(-0.0023249266 -0.014247151 0.0011824667)
(-0.0016838047 -0.011703164 0.0010433579)
(0.0015654833 -0.010839345 0.0003678814)
(0.0018070038 -0.015675574 -0.0010656579)
(0.00028008308 -0.017730998 6.7368456e-05)
(-0.0022038532 -0.016166793 0.00089390229)
(-0.0039231225 -0.012528583 0.0003268274)
(-0.00083567601 -0.013212267 0.00031991302)
(0.0017265141 -0.011972482 0.0018615883)
(0.0029589609 -0.015484302 0.0022146203)
(0.0017444502 0.010676024 0.0019957652)
(0.0001356492 0.017848816 -6.0140723e-05)
(-0.0051899661 0.016490649 -0.0010969094)
(-0.0050857359 0.012555776 -0.00052677948)
(0.0011666676 -0.0014723488 -6.4860234e-05)
(0.0027828198 0.0049352603 0.0010922352)
(0.0043858963 0.018687525 0.0010116103)
(-0.0059355507 0.017461216 -0.0028793182)
(7.2502638e-05 0.00047933487 -0.0013465888)
(-0.0013489819 0.015728361 0.0022600232)
(-0.00081560722 0.0037786932 0.0012785655)
(0.00014324928 0.00046068946 0.0022285661)
(0.0026987405 0.0093347057 0.0023077618)
(-0.0012959202 0.019042734 0.0013833581)
(-0.0061182239 0.016653171 -0.00088500199)
(-0.002016553 0.005566256 -0.0016791018)
(0.001797124 -0.0011720441 -0.00056650795)
(0.0051796979 0.0065907419 -0.00062112223)
(0.007029017 0.014903287 9.6103966e-06)
(-0.00090029639 0.018051751 0.000945704)
(-0.0051601776 0.013673651 0.0002401703)
(-0.0010930218 -0.0001973141 -0.00020339078)
(-0.00075690395 0.0017924615 0.00024543511)
(0.004722748 0.016014663 -0.0022818575)
(-0.0018940126 0.018879566 -0.0022347196)
(-0.0048319008 0.017145617 -0.00036305158)
(-0.0030768078 0.0089743063 -0.00093275849)
(0.00054840378 -0.0017297508 -0.001133049)
(-0.00095217509 -0.00089807711 0.0014699289)
(0.0048879983 0.015754992 0.0030398854)
(-0.0028833381 -0.01443383 -0.0017757529)
(0.00076262184 0.001491896 0.00043653813)
(-0.0024856138 0.00096466309 -0.00070589725)
(0.002720108 -0.014115768 -0.00053992443)
(0.0024084082 -0.014349064 -0.00018889179)
(-0.002097009 -0.01262 0.0023287376)
(-0.0015936157 -0.0050674442 0.001735363)
(-0.0016402913 -0.0062310777 0.0013577295)
(-9.5336332e-05 -0.014309418 -0.0035443393)
(0.0014809579 -0.013522274 1.6277921e-05)
(0.0047899485 -0.014922308 -0.00083544012)
(-0.0034806069 -0.01337801 0.00070640079)
(-0.0044633091 -0.011613021 0.00040656458)
(-0.0013746752 -0.0022491429 0.00201184)
(0.0032704286 -0.0081322878 -2.3899961e-05)
(0.0054331482 -0.013534149 -0.0016565269)
(0.00072044557 -0.01484007 -0.0029023422)
(-0.0042569186 -0.013288943 -0.0039294734)
(0.0019668485 -0.00023824511 -0.0011496609)
(-0.00034180801 0.0028537843 0.00015654942)
(0.0049827342 -0.013656291 -0.0027270586)
(0.0017908965 -0.01529865 -0.0031848978)
(-0.0044250703 -0.014413101 -0.0015525563)
(-0.0026156864 -0.0077081833 0.0027138137)
(-0.00085748168 0.0038341908 -0.00084791511)
(0.0021574636 -0.013966862 -0.0024595872)
(0.0048402833 -0.014349726 -0.0020508695)
(0.0040738292 -0.014336064 -0.0035799081)
(-0.0044824255 -0.014430786 -0.00028073976)
(-0.0037978738 -0.013496726 0.00080128629)
(-0.0038178518 0.011400693 -0.0012053176)
(-0.0019773912 0.0083056637 0.0022805543)
(0.00014023984 0.0069718182 0.0022589513)
(0.0021135681 0.0014633779 -0.00092883641)
(0.0011566894 -0.0024308904 -0.00040698135)
(9.1856334e-05 -0.00024790739 0.00052881176)
(-0.00082743024 0.0097344058 0.0034854497)
(0.00056740591 0.0076171621 0.0010419127)
(8.3390326e-05 -0.0053673181 -0.0040856463)
(0.00016413137 0.0015365459 -0.0038501109)
(0.0016104651 0.0094507632 0.0017420996)
(-0.002076122 0.0047692622 -3.9306318e-05)
(-0.0022586004 0.00024122755 -0.00090950711)
(-0.0017382689 0.0010733495 0.00050684804)
(0.0012488 0.0031348263 0.00069508079)
(0.0016743011 0.0088851405 -0.0012924238)
(-0.00084738448 0.011090868 -0.00057004651)
(-0.0035534625 0.0091306789 -0.0011011886)
(-0.0017022062 0.0068091012 -0.00073405565)
(0.00082995206 0.0075264812 0.00047581983)
(0.0032097472 0.010977606 -8.6924194e-06)
(0.00047146188 0.010993237 0.00023484981)
(-0.001085493 0.010072019 0.0031992518)
(-0.0022308163 0.0055142473 0.0026725605)
(0.0016611454 0.0077085529 0.0017426002)
(0.0059494008 0.0096645343 0.0014748028)
(0.0039797747 0.0051020454 0.0014205903)
(0.0046776625 0.0090162405 0.0031900556)
(0.0006287862 0.0079017524 0.0034730862)
(0.00047774289 -0.00068320642 0.00037767428)
(0.00093277534 -0.0016305994 0.0001431741)
(0.0044827198 -0.0033391119 -0.00071773315)
(0.0060695575 -0.0061059146 -0.0024135361)
(0.0061392066 -0.0088674553 -0.0028749161)
(0.0027979386 -0.0096508476 -0.0025363785)
(-0.0021763669 -0.010831117 -0.0035283924)
(-0.0025513847 -0.0093611223 -0.0034115106)
(0.0019719252 -0.0099735107 -0.00564126)
(0.00059768657 -0.011131843 -0.0072743458)
(-0.002797106 -0.01034193 -0.005879624)
(-0.00030378021 -0.010323768 -0.0054839844)
(0.0020875687 -0.0086800749 -0.0049842514)
(0.0010996333 -0.0088053153 -0.0040835605)
(-0.0014122499 -0.0091288329 -0.0012714613)
(-0.0041199625 -0.0093251834 -9.4246359e-05)
(-0.0051990381 -0.0071195923 0.0005138084)
(-0.0029790671 -0.0042354926 0.00057888509)
(-0.0020098922 -0.0072328454 -3.0807175e-05)
(-0.0012017285 -0.0014091026 -9.6611575e-05)
(0.001524582 -0.0029962376 -0.00094448696)
(0.0023301274 -0.010692578 -0.0011455597)
(0.0025179077 -0.0087508197 -0.00058709853)
(0.0041392115 -0.0097762039 -0.0016474012)
(0.0045889917 -0.009621824 -0.0020714169)
(0.0036030358 -0.0087158633 -0.00030749309)
(0.0044536808 -0.012284179 0.0012077955)
(0.00099404733 -0.012356724 0.00060056231)
(0.00014563942 -0.0097579966 -0.0016255601)
(0.0025361336 -0.0095979379 -0.0033864311)
(0.002934554 -0.0099854214 -0.0032966544)
(-8.3213493e-05 -0.01547896 -0.00055989728)
(-0.0017981702 -0.017163913 -0.0013144927)
(-0.0031871794 -0.01551687 -0.0018194181)
(-0.0039133929 -0.013817052 -0.001599256)
(-0.0017915657 -0.011575278 0.00043140446)
(0.0024776691 -0.01287917 0.0013590705)
(0.0017566824 -0.016735434 0.0018068707)
(0.0013224036 -0.01337391 0.00087216792)
(0.0024038115 -0.015630415 0.0022340229)
(-0.00035709812 -0.016691962 0.00089318068)
(-0.0016753133 -0.016274718 0.0032705854)
(0.00074125404 -0.010421141 0.0029730365)
(0.00079587655 -0.014210584 0.0017794612)
(-0.0020208419 -0.017459634 1.3461866e-05)
(-0.0023928703 -0.014185351 -0.0012699748)
(0.00015697315 -0.011264177 -0.0011314044)
(0.0031084991 -0.01104938 0.00082138417)
(0.0031132933 -0.012480202 0.00070215792)
(0.0009808272 -0.01505648 0.00097642453)
(0.00016862177 -0.017571791 0.0022280059)
(-0.00094761951 -0.016557531 0.0026255272)
(-0.0021984386 -0.015582601 0.0026662537)
(-0.0025581891 -0.01549422 0.0017258503)
(-0.002021535 -0.011829886 0.00087527429)
(0.0019408515 -0.010817416 0.00091089855)
(0.0030657863 -0.01474382 0.0011471321)
(0.0019476705 -0.015298395 0.0012074585)
(8.4442838e-05 -0.017229258 0.0034337886)
(0.0010967961 -0.013353719 0.0036171701)
(0.0017943356 -0.015796211 0.0025678468)
(-0.0024305984 0.017356873 0.00092700313)
(-0.0049757524 0.018990187 -0.0018045537)
(-0.0048887142 0.017204076 -0.0025250663)
(-0.0039463246 0.012219625 -0.0021411609)
(0.00051961029 0.0011578809 0.0005185184)
(0.0033605432 0.0060337651 0.002362739)
(0.0044385443 0.017122077 0.0024885925)
(8.7923215e-06 0.0071352792 0.0011337429)
(0.0045491878 0.016042488 0.0042083716)
(-0.001268754 0.018367401 0.0040538369)
(-0.0036138894 0.012281224 0.0051214635)
(-0.002392328 0.003350517 0.003555674)
(0.002800067 0.016233011 0.0045723691)
(-0.0042311609 0.018401583 -0.00035028056)
(-0.0046823071 0.010370299 -0.0018291172)
(0.00043656823 0.00034568986 -0.0016819357)
(0.0027552348 0.0044697605 -0.00057235384)
(0.0060247639 0.014031159 0.0010703968)
(0.004409502 0.01714251 5.1505375e-05)
(-2.0116211e-05 0.019275127 0.00030347212)
(-0.0039112192 0.018198785 0.0043754911)
(-0.0045497167 0.016821828 0.0051676567)
(-0.0058094946 0.01521053 0.0034165219)
(-0.0022568325 0.0032177707 0.00026987792)
(-0.00098152867 0.00060872329 2.090717e-06)
(0.0045191344 0.015636335 0.0019081587)
(0.0027622405 0.017572223 0.002826069)
(-0.00096807379 0.016961903 0.0075107265)
(-0.00097486593 0.0085073355 0.0035091035)
(0.0026880934 0.017330219 0.0046643773)
(-0.0012876308 0.0028096539 2.1413734e-05)
(0.0014255819 -0.0070696591 0.0012650906)
(0.0014714537 -0.015576039 0.0027778247)
(0.0017949482 -0.014623188 0.0012019365)
(0.0030060283 -0.013413021 0.00082911821)
(-0.0013940701 -0.013911882 0.0034447827)
(0.00085182679 -0.0066525477 0.002132062)
(0.00034208298 -0.015808993 0.0012343976)
(-0.0025499719 -0.015632355 -0.00099436734)
(-0.00012135059 0.0020961155 0.0030652379)
(0.0012460976 -0.01589907 -0.0032518055)
(-0.0058031818 -0.013513118 0.00038236457)
(-0.0050993579 -0.0068518955 0.0025237407)
(-0.0034815783 -0.00076875733 0.0022282398)
(0.0026754049 -0.014561165 0.0011986104)
(0.0022030495 -0.013686255 -0.00209101)
(-0.0015265587 -0.013651634 -0.0058121774)
(-0.0030616536 -0.0085404696 -0.0051626559)
(0.00055319015 0.0011438831 -0.0020860907)
(-0.00071171455 0.0065042674 -0.00010893368)
(-0.00062108337 -0.0032692818 0.00017478421)
(-0.0004445778 -0.0066803347 -0.0020110308)
(0.0024919342 -0.013367091 -0.0063059941)
(0.00052384685 -0.01425694 -0.0018058557)
(-0.0031448148 -0.014276534 0.0003078658)
(-0.0025262852 -0.01437802 -0.0012429444)
(0.0026894382 0.00081349822 0.00049681616)
(0.0025695783 -0.011666979 -0.0030415915)
(-0.0010951278 -0.015280408 -0.0039427593)
(-0.0029261396 -0.0093207417 0.0011957301)
(0.0016620329 0.0087744952 -0.0013488169)
(0.0056482665 0.0098857163 0.00067267726)
(0.0028265849 0.012232555 0.0026425292)
(0.00094117927 0.0038264817 -0.00127829)
(0.00035044495 -0.0012602364 0.00010430314)
(0.0013221495 0.0075024039 0.0048621214)
(5.9496439e-05 0.0097076275 0.0027032317)
(0.0023233062 0.011904778 0.0049508571)
(-0.004868469 0.01257724 0.0049791535)
(-0.00022470495 0.0075319125 0.0019415703)
(0.00019018248 0.012561221 -0.0013757951)
(-0.006331026 0.010002931 0.0022297708)
(-0.0058654378 0.0083601894 0.0021904044)
(-0.0032605747 0.0050642975 0.0036926445)
(0.00038632412 -0.00094087653 -0.001011939)
(-0.0020822893 0.00085632282 -0.0012703967)
(-0.0016223255 0.0095654671 -0.0031081381)
(-0.0037430088 0.0089639348 -0.0025583113)
(-0.0023077136 0.0078593684 -0.00040510816)
(-0.00011921484 0.0094524168 0.0022391074)
(0.0015646522 0.008496895 0.00013008577)
(0.0014210472 0.0085487229 -0.0011357262)
(0.0033224612 0.011684746 -0.0034503088)
(0.0001243955 0.011273265 -0.0018277314)
(0.0021773925 0.001917947 0.0023768158)
(-0.00093752334 -0.0025222672 -0.0014954533)
(0.0040377848 0.0059233992 -0.00058490489)
(0.0053037261 0.011390115 -0.0018008211)
(-0.0014091266 0.011392914 -0.00042957361)
(-0.00068372182 0.0083449285 0.00071293922)
(0.0001556154 -0.0041264084 0.00092042584)
(0.0034065946 -0.0031047862 -0.00034688929)
(0.0045954966 -0.0027062589 -0.00025903946)
(0.0067409272 -0.0076698493 -0.00154783)
(-0.00056032156 -0.0099328143 -0.0025359192)
(-0.0034856061 -0.0088299789 -0.003497203)
(-0.0031645544 -0.0044906092 -0.0029916151)
(-4.3461375e-05 -0.0039802833 -0.0037707789)
(0.0004861422 -0.010558079 -0.0066036227)
(-0.0017699842 -0.0065389118 -0.0056803936)
(-0.00020911211 -0.002916467 -0.0037877722)
(0.0011474685 -0.0034547835 -0.0023781152)
(0.0019935576 -0.0051456255 -0.0028757058)
(0.0033789473 -0.0065872212 -0.00335291)
(0.00092342557 -0.010101306 -0.0023245772)
(-0.0049165749 -0.0095156721 -0.00028681947)
(-0.0049734643 -0.0068605994 0.00041234998)
(-0.0042257105 -0.0037171297 -6.5164337e-05)
(-0.0029348276 -0.00041064955 0.00015736959)
(2.1214229e-05 0.0026092471 0.00021420898)
(0.0027639067 -0.0022447266 0.00021458622)
(0.0017539806 -0.0065636672 0.00013375123)
(0.0028162608 -0.0036411825 -0.0018353207)
(0.0043140152 -0.0039622439 -0.0019006231)
(0.0054959269 -0.0080971253 -0.0019409878)
(-0.0011204879 -0.010685867 -0.0024493562)
(-0.0047585109 -0.005675474 -0.0033626171)
(0.0008399543 0.0010070446 -0.0026986819)
(0.00058162198 -0.0020669278 -0.0024187833)
(0.0028834901 -0.0096281937 -0.0032559114)
(-0.00036267123 -0.015623383 -0.0010714937)
(-0.0029597738 -0.015182151 -0.00098287847)
(-0.0038457842 -0.01470825 -0.0013984138)
(-0.0025557016 -0.011444939 -0.0010053763)
(0.00049620045 -0.012132769 -0.00052497692)
(0.0028964019 -0.013636436 0.00085196552)
(0.0029595018 -0.016034987 0.0013460308)
(0.001955036 -0.018893575 0.0021743861)
(0.0017311726 -0.019666609 0.0019697945)
(0.00060281881 -0.018848911 0.0018649943)
(0.00065416244 -0.017900681 0.0035222983)
(0.00087478098 -0.014216383 0.0036823143)
(-0.00014176934 -0.016147068 0.0016826689)
(-0.0019188777 -0.015069737 0.0017243242)
(-0.0018231758 -0.010480459 0.00067242205)
(0.001736924 -0.010482591 -0.00018475542)
(0.0024565785 -0.013498713 0.0017796013)
(0.0010589917 -0.016438972 0.00068121006)
(0.00051519878 -0.016192421 -0.00067038895)
(0.0012312353 -0.016487629 -0.0019318272)
(0.0016879164 -0.015434901 -0.0010202431)
(0.0016126635 -0.015454433 -0.00088470069)
(0.0015980044 -0.015698203 -0.001481907)
(0.0011188695 -0.015451952 -0.0014834386)
(0.001251561 -0.017153136 0.00035318553)
(0.0022024045 -0.015697628 -0.0023325045)
(0.0022463878 -0.015109517 -0.0020892001)
(0.0011253675 -0.016387151 0.00073789178)
(0.0014338192 -0.015162077 0.0023836258)
(0.00082300045 -0.01528185 0.0019701575)
(-0.0030013505 0.017472878 -0.00083252897)
(-0.00534366 0.017039626 -0.00036753836)
(-0.004823527 0.013070897 8.7868757e-05)
(-0.0013905783 0.0013620399 -0.00039521387)
(0.00099005959 0.0015914968 -0.00045026856)
(0.0040404904 0.0083859608 0.0016400775)
(0.0053008914 0.016722391 0.0022027805)
(0.0014493895 0.019390211 0.0050592234)
(0.0041725103 0.020738342 0.0049897504)
(0.0023675371 0.020211853 0.0019393161)
(-0.0028230567 0.01877934 0.0056135828)
(-0.002143033 0.015465962 0.005002967)
(-0.0020781108 0.018004975 0.0028837221)
(-0.0054850921 0.014505739 0.0004456468)
(-0.0010949913 -0.0017513564 -0.000762929)
(7.2727748e-05 -0.00083688386 -0.0025806475)
(0.0048651412 0.014421938 0.0014034997)
(0.0024322081 0.018128186 -0.00043614016)
(-0.00033307985 0.017229193 -0.0037051219)
(0.0013798533 0.016497918 -0.0063259715)
(0.001923989 0.017074294 -0.0025764269)
(0.0014639725 0.017527055 -0.00076303374)
(-0.0003599384 0.017823494 -0.00028985703)
(-0.0029588507 0.017727792 -0.0002963284)
(-0.0021616743 0.017311997 0.00037296691)
(0.0033463933 0.015790249 -0.002326976)
(0.003522467 0.017026458 -0.0032483317)
(0.0012556837 0.018127189 0.0029472759)
(-0.00062720292 0.016495882 0.0045051308)
(0.00036396981 0.017042284 0.0040507761)
(-0.00057410899 0.0039005368 -0.00060092908)
(0.0020442998 -0.005154163 0.0013286219)
(0.0039752475 -0.015433697 0.0024141931)
(0.0020200424 -0.013973708 0.0014625658)
(-0.00029785393 -0.013239174 -0.00068149271)
(-0.0034602805 -0.014578718 -0.00049252836)
(-0.00076306387 -0.0057154971 0.0020875537)
(-8.6443824e-05 -0.017218912 -0.00322683)
(0.00041659381 -0.013299781 -0.001872075)
(0.0018529314 0.0057163741 0.00091285544)
(-0.0010088197 0.0046834648 0.0025309371)
(-0.00040248233 -0.0079372951 -0.0014385227)
(-0.00043811325 -0.001642403 0.00017272784)
(0.0043122987 -0.014830516 -9.197224e-05)
(0.0014367009 -0.014675849 -0.0013080824)
(-0.0020966145 -0.013808929 -0.0041028451)
(-0.0022289731 -0.0094600203 -0.0049007566)
(-0.00011677521 0.00058227011 -0.0034103086)
(-0.00016642208 -0.0058720406 -0.0015472973)
(0.0005063857 -0.015404463 0.0050924058)
(0.00033824633 -0.0033802597 0.0009515241)
(0.00086774664 0.00097215623 -0.0015594089)
(0.00053352696 0.002823564 -0.0019677834)
(-0.00066931134 0.00011060348 -0.0030841119)
(0.0020575832 -0.018366645 -0.0031605433)
(-0.00083336545 -0.017046593 0.0042160109)
(0.0014221127 -0.00093443185 -0.0010928991)
(-0.00046458449 0.0042422714 0.0031713299)
(-0.0013925757 -0.0017404492 0.0014889118)
(-0.0011232034 -0.0043333776 0.0016367394)
(0.0013315936 0.0088970058 -0.00024201156)
(0.0051259164 0.0084177627 -0.00045699205)
(0.0034265534 0.01130451 -0.0010712901)
(0.0022651686 0.0016662737 -0.0016238503)
(0.00079514638 0.0010696846 -0.0013909062)
(-0.00053394115 0.011037434 -0.00082662917)
(0.00015116558 0.0084489657 0.0028977692)
(0.00085180872 0.013706917 -0.002846323)
(-0.0060348051 0.012887448 -0.0018020134)
(-0.0016662064 0.009755654 0.0015813487)
(0.0012329467 0.0088370648 0.00028621099)
(0.00072274673 0.0093427403 -0.0025774645)
(0.0013084708 0.0077710701 -0.0024821772)
(0.0031849731 0.01106281 -0.00083231633)
(-0.0013019279 0.0049331312 -0.0007972206)
(-0.0014972118 -0.00064829964 -0.0006570943)
(-0.0030228505 0.0060995462 -0.0026732441)
(0.0007802478 0.0074519032 -0.0028945445)
(0.0033202442 0.009309176 -0.00027623213)
(-0.0013329523 0.01205273 0.0035936391)
(-0.0037776749 0.0086662501 0.0010794179)
(-0.0012743346 0.0086847032 -0.00084656696)
(0.00067627459 0.0087279404 -0.0036774335)
(0.002507483 0.0079840875 -0.0039412161)
(0.0038415539 0.012710526 -0.00086651827)
(-0.0015681162 0.0079462263 0.00085676945)
(-0.0012570893 0.0075894456 0.001084403)
(-0.00058916583 0.009314852 0.0013407242)
(-1.8406072e-06 0.0082946168 -0.0005487216)
(-0.00031699571 0.0088844553 -0.00052778956)
(0.0023533095 -0.00019450594 -0.00028011723)
(0.0038019781 -0.005305749 0.00021433627)
(0.0044812015 -0.0065506578 0.00049838214)
(0.0051032796 -0.0098651467 -0.00041204418)
(-0.0051193631 -0.0077358213 -0.0020406879)
(-0.0041527405 -0.003468437 -0.0021385951)
(-0.0042116864 -0.0018186032 -0.0018037816)
(-0.0010121282 -0.00060089142 -0.0032402286)
(-0.0008505821 -0.0026425675 -0.0027715883)
(0.00010857469 0.00012858738 -0.0028411166)
(0.0015613042 0.0011832418 -0.0015019143)
(0.0029725834 -0.0030105036 -0.0020885266)
(0.0029978946 -0.0022742917 -0.0029654015)
(0.0043653003 -0.002502215 -0.0025671798)
(0.0047729125 -0.0072698762 -0.0022998735)
(-3.3286748e-06 -0.0096643265 -0.0028196193)
(-0.0039737952 -0.010373703 0.0018734179)
(-0.0037948879 -0.0064168877 0.0019882904)
(-0.0024978179 -0.0013585916 0.0020745146)
(-0.00055831505 0.00012545324 0.0032932201)
(0.0024798109 -0.0032993778 0.002331224)
(0.001357258 -0.0053659462 0.0024461559)
(0.0015905213 -0.0027316636 0.0012645482)
(0.0018613317 -0.0044301193 0.0011907748)
(0.0027590478 -0.0095807514 0.00021647032)
(-0.00056197254 -0.011430934 -0.0023707211)
(-0.0035968642 -0.0032850789 -0.0010106405)
(-0.0015300919 0.0013396616 0.0026471862)
(-0.00014627368 -0.00075956263 0.0021540466)
(-0.00015644382 -0.0018075271 -0.00017679779)
(-0.00041138941 -0.015222542 -0.0019915749)
(-0.0028577991 -0.014467619 -0.0020193642)
(-0.0032986937 -0.014018051 -0.002286277)
(-0.0019115427 -0.011162603 -0.00053274517)
(0.0015732573 -0.01146982 0.00097453521)
(0.0032215829 -0.014157163 0.00086912436)
(0.0035333914 -0.016769747 -0.00018234528)
(0.0027706418 -0.016991484 -0.00099865077)
(0.0017347922 -0.016755289 -0.00055121472)
(0.0012201071 -0.015800893 -0.0028248141)
(0.0016388681 -0.015167289 -0.0024017402)
(0.0014912713 -0.014732844 -4.4102126e-05)
(0.0012980932 -0.015491191 -0.00094844607)
(0.00055654001 -0.0143264 0.0016354504)
(-0.00051214683 -0.014728087 0.0029976125)
(-0.00013503617 -0.017318339 0.0014104874)
(-0.0031771876 -0.014508575 -0.0015076712)
(-0.0038867635 -0.015166822 -0.0032271216)
(-0.0035018234 -0.011862555 -0.0033795102)
(0.00036280998 -0.011966963 -0.0014213914)
(0.0032255397 -0.012320899 -0.0027791033)
(0.0033549095 -0.014993227 -0.0033364384)
(0.0013270251 -0.016460187 -0.0038648192)
(0.00083581837 -0.016033407 -0.0042023132)
(-0.0015056378 -0.013490761 -0.0037448358)
(0.0017780028 -0.011614065 -0.0015560781)
(0.004460547 -0.012532607 -0.0028814048)
(0.0036225255 -0.014250068 -0.0017681856)
(0.0019090442 -0.015859541 -0.00038825483)
(0.00057418788 -0.015084932 0.00041312127)
(-0.0033623356 0.017155225 -0.0025198472)
(-0.0052013485 0.016484351 -0.0028834375)
(-0.0039117129 0.012749383 -0.0025338919)
(0.00076810469 0.0014758151 8.6223204e-05)
(0.0031767678 0.0013655525 0.0021587748)
(0.0055483875 0.01071597 0.0031225529)
(0.0069206492 0.01776697 0.0027517802)
(0.0040160869 0.019307372 0.0030834299)
(-0.00037576853 0.0186975 0.0010656447)
(-0.00051040935 0.016505697 -0.0062122006)
(0.00090697174 0.015848363 -0.0057826628)
(0.0012543862 0.016886147 -0.00013587008)
(-0.0013445944 0.017241963 0.00063660183)
(-0.0039345057 0.016665231 0.0025811603)
(-0.0038020179 0.016323263 0.0034434017)
(0.0016257026 0.018889455 0.0023806684)
(-0.0014610818 0.016997766 -0.002382458)
(-0.0039840983 0.016466135 -0.0045985773)
(-0.0014884008 0.0081251437 -0.0037764649)
(0.0011801336 -0.0036708129 -0.00056048667)
(0.002691178 0.0078395523 -0.0018706898)
(0.0054035319 0.016208556 -0.0036449739)
(0.0017105487 0.018329765 -0.0042916906)
(-0.0031022503 0.016925478 -0.0059201749)
(-0.0045979005 0.013939487 -0.0048590696)
(0.0027896715 -0.0020228408 0.00023661365)
(0.0036702423 0.0085897258 -0.0030017785)
(0.004591019 0.015826584 -0.0037510805)
(0.0022301885 0.017736794 -0.0032417176)
(0.00070792591 0.016866575 -0.0014930077)
(-0.0007067678 0.0033015661 -0.0010437772)
(0.0022454699 -0.0049758262 -0.00041368025)
(0.0050854016 -0.014582907 0.0015478009)
(0.0034449561 -0.013852174 0.00046017849)
(0.0010100555 -0.013449234 0.0010887646)
(-0.0018735117 -0.014907923 -0.0031185502)
(-0.0015142431 -0.010773945 -0.00036399316)
(0.0015563376 0.0077686087 0.0028017551)
(-0.0015143178 0.0014817732 0.0025131447)
(0.00012003349 -0.012793493 0.00617078)
(-0.0016260001 -0.0090306412 0.0039514067)
(-0.00045114594 -0.00071852928 0.0019761053)
(-0.00037772081 0.0022228281 0.00098205144)
(0.00034718449 -0.0017366772 0.00050635797)
(0.0024211881 -0.015073533 -0.0034977367)
(0.0020630648 -0.017087166 -0.0044983592)
(-0.0012374627 -0.0014225899 -0.0029353312)
(0.00064391499 -0.0082438191 -0.0032164575)
(0.0050754989 -0.013371299 -0.00058471714)
(0.0016318368 -0.015163134 0.00094879677)
(-0.0045829519 -0.013590128 0.0023023887)
(-0.0015200139 -0.0070818927 -0.00041098147)
(0.00091310222 0.0028426395 -0.0023267275)
(0.0011732636 -0.003978842 -0.00081950225)
(0.005657945 -0.012946175 0.0018688967)
(0.0045071835 -0.015261442 0.0035806562)
(-0.0036857423 -0.013351986 0.0044204435)
(-0.0024932087 -0.0038030816 0.0016884397)
(-0.0018214147 -0.0015152831 -2.0357975e-05)
(-0.0004615608 -0.001964632 0.00024110086)
(0.0013391435 0.0086799682 -0.00089840639)
(0.0052508553 0.0081079876 0.00064228014)
(0.0035289358 0.010833166 -0.00010195108)
(0.0027643647 0.0028184621 0.00047357807)
(0.00055524468 -0.001899557 0.00089450321)
(-0.00015225528 0.009318872 -0.0046166258)
(-0.005001505 0.010999316 -0.0027001542)
(-0.0015130595 0.01008914 -0.00040114799)
(0.0016067632 0.0084508931 -0.00039142065)
(0.0014098924 0.012353338 0.0020711358)
(-0.0036757678 0.010445087 0.0027515462)
(-0.0020223001 0.0083431779 0.0012444867)
(-0.00014116725 0.0095763079 0.00032465649)
(0.0023694673 0.0080610265 -0.0015920821)
(0.0050895128 0.0071071512 -0.0005960589)
(0.00035153746 0.012381737 0.00063294476)
(-0.0038815626 0.0076702244 -0.0028453994)
(0.0023975763 0.0013785055 -0.00066746349)
(0.0021073682 0.0039066395 0.00060948159)
(0.00052435391 0.01009253 -0.00035090926)
(-0.0040826371 0.0090455495 0.0026230676)
(-0.0021333622 0.0032767807 0.0040732156)
(0.00028552854 0.0054593048 0.0016688436)
(0.0037563095 0.00073702832 0.0018325145)
(0.0032526709 0.0036866262 0.0013787067)
(0.0034813357 0.0087940708 0.0023078085)
(-0.0040850819 0.010140745 0.0044690553)
(-0.004433001 0.0084567255 0.0041495469)
(-0.002446749 0.0082101703 0.0025646264)
(-0.00036434981 0.0089088685 0.0010278662)
(0.0020563487 0.00047967985 0.00029301356)
(0.0040100531 -0.0045032277 0.0005865038)
(0.004739741 -0.006551028 0.0012997854)
(0.0059095844 -0.0098727459 0.0017080194)
(-0.0040491097 -0.0087044412 0.0017254482)
(-0.0059393711 -0.0047670639 0.00089794388)
(-0.0047685926 -0.00057351524 0.00049654331)
(-0.0016083913 0.00086273225 0.002573081)
(-0.0019801606 -0.0019810032 0.0018362679)
(-0.00043685918 -0.00030306689 0.0016294386)
(0.0010829038 -0.0021469908 0.0023946145)
(0.0020957656 -0.0032884213 0.0022569651)
(0.0015123215 0.00039303522 0.00087179784)
(0.0048681473 -0.0069012164 0.0011490661)
(0.00044167413 -0.012313971 0.001247293)
(-0.00020716447 -0.0010965499 -0.0018468035)
(0.0039982537 -0.007065025 -0.00074153636)
(0.0021015733 -0.011226464 -0.0014089192)
(-0.0028571157 -0.0079731011 0.0044225863)
(-0.00010163882 -0.0016463993 0.0034260226)
(0.0033655826 -0.0078339139 0.0043342574)
(0.0030998881 -0.0099074227 0.0040578344)
(0.0023148678 -0.0089803421 0.0028122935)
(0.0013691201 -0.011092979 0.00086325919)
(-0.0034565721 -0.0089149188 0.0028117259)
(-0.0025814824 -0.0023021339 0.0021004734)
(-0.0023392731 -0.00081660524 0.0024889568)
(0.0011512343 -0.0057953743 0.0024673437)
(0.00014114662 -0.0082643573 0.0037984267)
(-0.00057238838 -0.0039609137 0.00321184)
(-0.00087083485 -0.015818834 -0.0019271817)
(-0.0037392817 -0.0141724 -0.002029754)
(-0.0026375804 -0.011732848 -0.0020780623)
(0.00055258939 -0.012175584 1.9601866e-05)
(0.0029797241 -0.013670657 0.00036770741)
(0.0036454552 -0.01538285 -3.3764482e-06)
(0.0019017216 -0.018239461 -0.0013445751)
(0.00071659918 -0.017946963 -0.0014353975)
(-0.0027308896 -0.012726271 -0.0021019859)
(-0.00077726173 -0.012122269 -0.00053080107)
(0.0023814982 -0.010986937 -0.00042784829)
(0.0035328512 -0.013607691 -0.0014907856)
(0.00036905237 -0.016139858 -0.0026263473)
(-0.0017643376 -0.018591704 -0.0030653291)
(-0.0014061548 -0.011906793 -0.0030449282)
(0.00036196619 -0.014298369 0.00068660933)
(0.001999974 -0.011786632 -0.0015748024)
(0.0030003099 -0.016234577 -0.0028959501)
(-0.00025961423 -0.018065932 -0.003368839)
(-0.0016041932 -0.012622833 -0.0022131155)
(-0.00062182514 -0.011519879 -0.002873658)
(0.0011392833 -0.013192916 -0.0010320567)
(0.0026525127 -0.012849992 -0.00041058824)
(0.0050531009 -0.013485166 -4.4635465e-05)
(0.0030594544 -0.015345118 0.00027817182)
(0.00070632698 -0.015782121 0.00029787637)
(-0.004460295 0.01772234 -0.0028488495)
(-0.0060433075 0.015017225 -0.0031292741)
(-0.00078192689 0.00059420411 -0.0026359539)
(0.0010173542 0.00087967822 0.00043685007)
(0.005455312 0.0073507197 0.0022863765)
(0.0073007718 0.015935109 0.0030026273)
(0.0039169863 0.019494386 0.001559857)
(-0.0037826513 0.019018656 -0.0032117587)
(-0.0054850414 0.013616918 -0.0026746575)
(0.00083436213 -0.003051836 0.0013485677)
(-0.0011320531 -0.0013019012 0.0012276275)
(0.0051181202 0.015411405 -0.00060764955)
(0.002215974 0.018281604 -0.0028778322)
(-0.0033150263 0.018644616 -0.003330499)
(-0.0014847132 0.0028395123 -0.0027315795)
(0.00097461178 0.0088982907 0.00039153577)
(0.0024328346 0.0031982485 -0.00062163002)
(0.0054678008 0.015961481 -0.0032134888)
(-0.00092954861 0.019210903 -0.0015744035)
(-0.0022106212 0.0065527458 -0.00020050941)
(-0.0025187978 0.0013817307 -0.0022490444)
(0.00061118692 0.0057229268 -0.001904042)
(0.00074615799 -0.0011000842 0.0014815867)
(0.0040627265 0.009847454 0.00094730723)
(0.0033569474 0.017181777 0.00014273677)
(0.0017486273 0.017711878 -1.6370527e-05)
(-0.0020490413 0.0042423321 -0.0022460129)
(0.0058881056 -0.013553611 -0.0023359222)
(0.0027576574 -0.014644525 -0.00228422)
(-0.0011051623 -0.013489188 0.00042728461)
(-0.0019522767 -0.014495164 0.0024438554)
(0.0014031384 -0.0015457225 0.0016623098)
(0.0011598943 0.0045347873 0.00092298757)
(0.0010573994 0.0023751638 -0.0012875722)
(0.0054848466 -0.012026842 0.002880057)
(0.0037744164 -0.015316547 0.0038141939)
(-0.0041816782 -0.015058449 0.002884501)
(-0.0042210289 -0.011935286 -5.5007164e-05)
(0.00027980399 0.0030493167 -0.0019200598)
(0.0012547961 -0.015531894 -0.0012315029)
(-0.00018042435 -0.013896042 -0.0023965549)
(0.001411109 -0.013807511 -0.0030267663)
(0.00017285332 -0.013831266 0.00012661523)
(0.00086650009 -0.013472657 0.0014198615)
(0.0040667056 -0.009518906 0.0017582905)
(0.0032818956 -0.013184572 0.0038877639)
(3.1225679e-06 -0.013403061 0.00021626032)
(0.0035843909 -0.012694545 -0.00078783582)
(-0.0029544195 -0.015160244 0.0038217945)
(-0.0060794585 -0.015236449 0.0031648958)
(-0.0051606368 -0.012703458 0.0020847722)
(-0.0021590302 -0.0068636643 0.00047347249)
(0.0016107801 0.0083111874 -0.0019782471)
(0.0053259797 0.010763922 -0.0016275396)
(-0.0012017534 0.0087467997 -0.0030981821)
(0.00045160374 -0.001484161 0.0011179929)
(-0.0029648912 -0.0028698373 0.0015924625)
(-0.0028080029 0.0048808265 -0.0010380484)
(-0.00026314209 0.0097106073 -0.0022566827)
(0.003698218 0.0080269044 0.00011085378)
(0.0058455825 0.0098443863 0.0012001458)
(0.0012018271 0.0099281246 -0.00070471144)