/*--------------------------------*- C++ -*----------------------------------*\
| =========                 |                                                 |
| \\      /  F ield         | OpenFOAM: The Open Source CFD Toolbox           |
|  \\    /   O peration     | Version:  v2012                                 |
|   \\  /    A nd           | Website:  www.openfoam.com                      |
|    \\/     M anipulation  |                                                 |
\*---------------------------------------------------------------------------*/
FoamFile
{
    version     2.0;
    format      ascii;
    class       volScalarField;
    location    "170/heater";
    object      T;
}
// * * * * * * * * * * * * * * * * * * * * * * * * * * * * * * * * * * * * * //

dimensions      [0 0 0 1 0 0 0];


internalField   nonuniform List<scalar> 
80
(
648.11186
649.56712
652.42693
656.49845
641.19612
642.91298
646.30369
651.19388
626.50787
628.75694
633.29573
640.03221
602.36934
605.20075
611.38813
621.48233
340.83809
337.97681
338.03796
340.99734
407.46532
403.79042
404.01006
407.9826
462.30906
459.02196
459.61029
463.7371
506.9782
504.57183
506.04701
510.6713
542.01229
541.20463
544.64716
551.32182
566.65695
569.09519
576.08344
590.48508
340.85866
337.97063
338.02587
340.99021
407.51026
403.80106
404.02
408.00679
462.34027
459.04117
459.64407
463.79631
507.06788
504.605
506.08096
510.73805
542.18662
541.27381
544.7057
551.40176
566.75813
569.17425
576.15733
590.56299
602.69905
605.47489
611.65542
621.74005
626.97877
629.19569
633.70595
640.39828
641.70308
643.38645
646.74032
651.55457
648.62715
650.03741
652.84105
656.83128
)
;

boundaryField
{
    minY
    {
        type            fixedValue;
        value           uniform 300;
    }
    minZ
    {
        type            zeroGradient;
    }
    maxZ
    {
        type            zeroGradient;
    }
    heater_to_topAir
    {
        type            compressible::turbulentTemperatureCoupledBaffleMixed;
        refValue        nonuniform List<scalar> 
40
(
452.23314
453.84234
454.01824
452.85222
431.4204
428.59884
424.72733
420.49185
439.33442
438.04533
434.7845
429.47697
449.43997
452.1781
454.16706
454.79854
448.9097
450.94409
452.41388
452.96097
448.96711
451.07678
452.81286
453.70229
449.60434
452.40581
454.49997
455.26438
439.52651
438.27494
435.06047
429.79268
431.58387
428.78147
424.9125
420.64762
452.36232
453.99303
454.18806
453.03017
)
;
        refGradient     uniform 0;
        valueFraction   nonuniform List<scalar> 
40
(
0.00032132529
0.00032132529
0.00032132529
0.00032132529
0.00032132529
0.00032132529
0.00032132529
0.00032132529
0.00032132529
0.00032132529
0.00032132529
0.00032132529
0.00032132529
0.00032132529
0.00032132529
0.00032132529
0.00032132529
0.00032132529
0.00032132529
0.00032132529
0.00032132529
0.00032132529
0.00032132529
0.00032132529
0.00032132529
0.00032132529
0.00032132529
0.00032132529
0.00032132529
0.00032132529
0.00032132529
0.00032132529
0.00032132529
0.00032132529
0.00032132529
0.00032132529
0.00032132529
0.00032132529
0.00032132529
0.00032132529
)
;
        value           nonuniform List<scalar> 
40
(
648.0354
649.49059
652.34934
656.41883
641.11554
642.83081
646.21895
651.10582
626.43532
628.68309
633.21907
639.9512
602.30894
605.14014
611.32578
621.41642
566.60945
569.04743
576.03357
590.43009
566.71029
569.12629
576.10741
590.50804
602.63784
605.41377
611.59274
621.6738
626.90542
629.12132
633.62891
640.31697
641.62185
643.30373
646.65511
651.4661
648.55003
649.96027
652.76288
656.75115
)
;
        Tnbr            T;
        thicknessLayers List<scalar> 0();
        kappaLayers     List<scalar> 0();
        kappaMethod     solidThermo;
        kappa           none;
        alphaAni        none;
        alpha           none;
        field           T;
    }
    heater_to_rightSolid
    {
        type            compressible::turbulentTemperatureCoupledBaffleMixed;
        refValue        nonuniform List<scalar> 10(661.44195 657.15596 648.43456 635.22392 619.66835 619.75942 635.47849 648.70869 657.43103 661.70331);
        refGradient     uniform 0;
        valueFraction   nonuniform List<scalar> 10(0.49999997 0.49999997 0.49999997 0.49999997 0.49999997 0.49999997 0.49999997 0.49999997 0.49999997 0.49999997);
        value           nonuniform List<scalar> 10(658.96311 654.16795 644.2267 628.34695 605.07131 605.15571 628.60289 644.54667 654.48566 659.25997);
        Tnbr            T;
        thicknessLayers List<scalar> 0();
        kappaLayers     List<scalar> 0();
        kappaMethod     solidThermo;
        kappa           none;
        alphaAni        none;
        alpha           none;
        field           T;
    }
    heater_to_leftSolid
    {
        type            compressible::turbulentTemperatureCoupledBaffleMixed;
        refValue        nonuniform List<scalar> 10(713.80368 713.68883 713.48441 713.23497 713.13029 713.50989 714.00764 714.29154 714.39857 714.43421);
        refGradient     uniform 0;
        valueFraction   nonuniform List<scalar> 10(2.0832898e-05 2.0832898e-05 2.0832898e-05 2.0832898e-05 2.0832898e-05 2.0832898e-05 2.0832898e-05 2.0832898e-05 2.0832898e-05 2.0832898e-05);
        value           nonuniform List<scalar> 10(648.0997 641.18445 626.49727 602.36039 566.65034 566.75119 602.68935 626.96747 641.69088 648.61446);
        Tnbr            T;
        thicknessLayers List<scalar> 1(0.001);
        kappaLayers     List<scalar> 1(0.0005);
        kappaMethod     solidThermo;
        kappa           none;
        alphaAni        none;
        alpha           none;
        field           T;
    }
    heater_to_bottomWater
    {
        type            compressible::turbulentTemperatureCoupledBaffleMixed;
        refValue        nonuniform List<scalar> 
92
(
971.4073
968.21974
969.43061
975.45441
972.33958
968.70177
965.63093
972.73081
968.07935
966.62737
962.5446
962.21
970.22692
970.93485
970.76247
971.59617
969.17197
967.87119
967.10988
967.25685
967.82395
965.56077
961.03943
958.47478
966.96439
964.80356
963.15386
962.11124
963.32365
963.32365
960.08251
960.08251
954.32941
954.32941
955.45616
955.45616
953.6858
957.84936
966.33578
962.53913
961.65245
959.50904
956.94165
956.86045
949.84891
950.12737
959.49293
966.0155
963.84346
962.7408
960.80781
960.94252
972.78081
971.32554
965.54644
965.83043
965.79441
964.79695
960.71311
974.25143
965.48107
966.53611
962.82769
965.54211
964.18623
977.82428
962.26476
961.81529
961.73925
965.90542
971.28038
981.7033
962.8562
961.18057
955.69624
962.94184
981.7033
962.8562
961.18057
962.94184
984.47028
977.73628
973.47044
975.29842
983.61633
976.5758
976.6068
979.11033
982.87293
975.60488
977.23126
979.19444
)
;
        refGradient     uniform 0;
        valueFraction   nonuniform List<scalar> 
92
(
0.0075140686
0.0075140686
0.0075140686
0.0075140686
0.0075140686
0.0075140686
0.0075140686
0.0075140686
0.0075140686
0.0075140686
0.0075140686
0.0075140686
0.0075140686
0.0075140686
0.0075140686
0.0075140686
0.0075140686
0.0075140686
0.0075140686
0.0075140686
0.0075140686
0.0075140686
0.0075140686
0.0075140686
0.0075140686
0.0075140686
0.0075140686
0.0075140686
0.0075140686
0.0075140686
0.0075140686
0.0075140686
0.0075140686
0.0075140686
0.0075140686
0.0075140686
0.0075140679
0.0075140679
0.0075140679
0.0075140679
0.0075140679
0.0075140679
0.0075140679
0.0075140679
0.0075140679
0.0075140679
0.0075140679
0.0075140686
0.0075140686
0.0075140686
0.0075140679
0.0075140686
0.0075140679
0.0075140686
0.0075140686
0.0075140686
0.0075140679
0.0075140686
0.0075140679
0.0075140686
0.0075140686
0.0075140686
0.0075140679
0.0075140686
0.0075140679
0.0075140686
0.0075140686
0.0075140686
0.0075140679
0.0075140686
0.0075140679
0.0075140686
0.0075140686
0.0075140686
0.0075140679
0.0075140686
0.0075140686
0.0075140686
0.0075140686
0.0075140686
0.0075140686
0.0075140686
0.0075140686
0.0075140686
0.0075140686
0.0075140686
0.0075140686
0.0075140686
0.0075140686
0.0075140686
0.0075140686
0.0075140686
)
;
        value           nonuniform List<scalar> 
92
(
650.5277
651.94796
654.79518
658.88103
643.67128
645.34777
648.68969
653.5961
629.06214
631.28325
635.75695
642.43981
345.56647
342.73206
342.79147
345.73493
411.68351
408.0264
408.23869
412.18254
466.10318
462.82376
463.37373
467.45034
510.42832
508.02379
509.47551
514.05733
605.0704
545.17003
607.856
544.34401
613.95327
547.71735
623.97957
554.35031
345.44218
345.63164
411.6622
412.14709
466.05681
467.45811
510.35301
514.01787
545.06878
554.31027
345.50622
345.55523
342.67264
342.7192
345.64673
345.64774
411.75516
411.74422
408.01947
408.23896
412.19558
412.18808
466.08041
466.18214
462.84213
463.44856
467.54183
467.56223
510.49596
510.59844
508.03743
509.49908
514.1207
514.15201
545.40227
545.48059
544.43325
547.82678
554.43122
554.48566
605.53499
608.14843
614.26969
624.2912
629.65196
631.80172
636.24585
642.90121
644.25863
645.87639
649.20512
654.00167
651.12474
652.46971
655.26431
659.239
)
;
        Tnbr            T;
        thicknessLayers List<scalar> 0();
        kappaLayers     List<scalar> 0();
        kappaMethod     solidThermo;
        kappa           none;
        alphaAni        none;
        alpha           none;
        field           T;
    }
}


// ************************************************************************* //
