/*--------------------------------*- C++ -*----------------------------------*\
| =========                 |                                                 |
| \\      /  F ield         | OpenFOAM: The Open Source CFD Toolbox           |
|  \\    /   O peration     | Version:  v2012                                 |
|   \\  /    A nd           | Website:  www.openfoam.com                      |
|    \\/     M anipulation  |                                                 |
\*---------------------------------------------------------------------------*/
FoamFile
{
    version     2.0;
    format      ascii;
    class       volScalarField;
    location    "770/leftSolid";
    object      T;
}
// * * * * * * * * * * * * * * * * * * * * * * * * * * * * * * * * * * * * * //

dimensions      [0 0 0 1 0 0 0];


internalField   nonuniform List<scalar> 
130
(
929.73855
929.73576
929.71548
929.66455
929.57394
929.43442
929.24175
928.97866
928.64568
928.32402
928.04182
927.82158
927.69529
929.68456
929.67924
929.65361
929.59441
929.49452
929.34207
929.14532
928.88439
928.56795
928.23905
927.92772
927.66539
927.50213
929.58087
929.57071
929.53346
929.4598
929.3422
929.16464
928.94795
928.68355
928.36586
928.01902
927.68008
927.37833
927.14877
929.44321
929.42754
929.37358
929.27285
929.12954
928.93734
928.69996
928.41591
928.08187
927.71212
927.33373
926.97712
926.69558
929.29059
929.26567
929.19974
929.08079
928.90244
928.67997
928.41058
928.09393
927.72854
927.3111
926.88778
926.54039
926.29645
929.17038
929.13317
929.04951
928.90656
928.69036
928.41803
928.10269
927.759
927.3901
927.00031
926.62293
926.30501
926.10631
929.06328
929.02125
928.92852
928.77332
928.5437
928.23795
927.91621
927.58116
927.22527
926.85753
926.50368
926.2137
926.04164
928.95494
928.91132
928.81513
928.65408
928.41303
928.10183
927.78052
927.44276
927.08733
926.74888
926.43957
926.18013
926.01464
928.86408
928.82249
928.72945
928.57216
928.33576
928.0323
927.70309
927.37414
927.05022
926.74824
926.47841
926.25245
926.10451
928.81894
928.77983
928.69
928.53428
928.29469
928.00018
927.68885
927.35853
927.04177
926.75374
926.50372
926.30536
926.1803
)
;

boundaryField
{
    minX
    {
        type            zeroGradient;
    }
    minZ
    {
        type            zeroGradient;
    }
    maxZ
    {
        type            zeroGradient;
    }
    leftSolid_to_bottomWater
    {
        type            compressible::turbulentTemperatureCoupledBaffleMixed;
        refValue        nonuniform List<scalar> 
130
(
966.06168
966.74479
967.42591
967.73132
968.02293
967.94606
968.52779
966.40939
956.20827
952.86419
951.56662
950.20902
949.28013
966.44858
967.09944
967.81053
967.81848
968.3273
967.19187
968.90245
966.98037
962.12271
958.77699
955.42677
950.4578
946.65265
966.49161
967.1957
967.32185
967.6472
968.55072
965.54055
965.47097
965.8106
963.59112
959.28451
956.15724
953.61681
939.68933
966.45896
967.84498
967.27593
965.37289
965.16728
964.55846
964.32229
964.42233
963.15477
960.92556
957.53711
949.89104
927.66866
965.19652
965.82256
965.98014
965.38541
962.57045
962.65472
962.46369
961.57223
960.19371
952.28307
939.82438
935.31433
922.20147
967.32318
966.80842
966.31343
965.44179
960.69557
957.53847
954.07116
952.04816
950.16158
946.13007
941.39653
933.75153
927.93972
968.21052
967.7415
967.315
966.64561
964.95883
956.50708
955.47027
955.87544
954.43597
950.61613
944.13322
936.84593
932.93413
967.03687
966.54018
966.08818
965.54358
961.99459
954.76051
954.89652
953.3084
947.16004
944.72981
942.17025
937.05665
930.8032
965.03937
964.74875
964.61984
964.5297
961.82326
956.34657
951.96328
951.06666
949.73717
949.04932
948.4173
945.36809
940.07286
964.62098
964.57006
964.68909
964.70003
959.65574
954.78008
954.03789
950.10814
948.8298
948.34302
947.83452
947.19302
944.57294
)
;
        refGradient     uniform 0;
        valueFraction   nonuniform List<scalar> 
130
(
0.0075140686
0.0075140686
0.0075140686
0.0075140686
0.0075140686
0.0075140686
0.0075140686
0.0075140686
0.0075140686
0.0075140686
0.0075140686
0.0075140686
0.0075140686
0.0075140686
0.0075140686
0.0075140686
0.0075140686
0.0075140686
0.0075140686
0.0075140686
0.0075140686
0.0075140686
0.0075140686
0.0075140686
0.0075140686
0.0075140686
0.0075140686
0.0075140686
0.0075140686
0.0075140686
0.0075140686
0.0075140686
0.0075140686
0.0075140686
0.0075140686
0.0075140686
0.0075140686
0.0075140686
0.0075140686
0.0075140686
0.0075140686
0.0075140686
0.0075140686
0.0075140686
0.0075140686
0.0075140686
0.0075140686
0.0075140686
0.0075140686
0.0075140686
0.0075140686
0.0075140686
0.0075140686
0.0075140686
0.0075140686
0.0075140686
0.0075140686
0.0075140686
0.0075140686
0.0075140686
0.0075140686
0.0075140686
0.0075140686
0.0075140686
0.0075140686
0.0075140686
0.0075140686
0.0075140686
0.0075140686
0.0075140686
0.0075140686
0.0075140686
0.0075140686
0.0075140686
0.0075140686
0.0075140686
0.0075140686
0.0075140686
0.0075140686
0.0075140686
0.0075140686
0.0075140686
0.0075140686
0.0075140686
0.0075140686
0.0075140686
0.0075140686
0.0075140686
0.0075140686
0.0075140686
0.0075140686
0.0075140686
0.0075140686
0.0075140686
0.0075140686
0.0075140686
0.0075140686
0.0075140686
0.0075140686
0.0075140686
0.0075140686
0.0075140686
0.0075140686
0.0075140686
0.0075140686
0.0075140686
0.0075140686
0.0075140686
0.0075140686
0.0075140686
0.0075140686
0.0075140686
0.0075140686
0.0075140686
0.0075140686
0.0075140686
0.0075140686
0.0075140686
0.0075140686
0.0075140686
0.0075140686
0.0075140686
0.0075140686
0.0075140686
0.0075140686
0.0075140686
0.0075140686
0.0075140686
0.0075140686
0.0075140686
)
;
        value           nonuniform List<scalar> 
130
(
930.01092
930.01328
929.99826
929.95001
929.86227
929.72324
929.53641
929.25944
928.85237
928.508
928.21814
927.98931
927.85697
929.96022
929.95983
929.93972
929.88104
929.78573
929.62589
929.44347
929.17009
928.81957
928.46801
928.13382
927.83609
927.64543
929.85761
929.85281
929.81679
929.74614
929.63621
929.43735
929.22177
928.9619
928.6299
928.2533
927.89342
927.57479
927.24221
929.72071
929.71557
929.65776
929.54349
929.39974
929.20441
928.96703
928.68586
928.34477
927.96103
927.56001
927.14855
926.70208
929.55975
929.53972
929.47549
929.353
929.15488
928.93472
928.66591
928.34492
927.97189
927.49809
926.98432
926.60567
926.26503
929.4564
929.41561
929.32888
929.18051
928.93035
928.63636
928.29729
927.94092
927.5606
927.14346
926.73336
926.36047
926.11957
929.35678
929.31155
929.21634
929.05731
928.81679
928.44987
928.12272
927.79322
927.42919
927.03552
926.63561
926.29314
926.09298
929.24047
929.19346
929.09462
928.93072
928.66489
928.30166
927.98377
927.63663
927.23772
926.88355
926.55734
926.26143
926.05015
929.13532
929.09187
928.99858
928.84185
928.58694
928.24465
927.88496
927.55173
927.22025
926.91537
926.64279
926.39559
926.20889
929.08738
929.0482
928.95997
928.80556
928.52994
928.20105
927.88653
927.52914
927.20509
926.91552
926.66351
926.46175
926.31787
)
;
        Tnbr            T;
        thicknessLayers List<scalar> 0();
        kappaLayers     List<scalar> 0();
        kappaMethod     solidThermo;
        kappa           none;
        alphaAni        none;
        alpha           none;
        field           T;
    }
    leftSolid_to_heater
    {
        type            compressible::turbulentTemperatureCoupledBaffleMixed;
        refValue        nonuniform List<scalar> 10(729.803 720.40186 700.61819 668.69822 622.30253 622.45847 669.16377 701.02818 720.63463 729.98639);
        refGradient     uniform 0;
        valueFraction   nonuniform List<scalar> 10(2.08329e-05 2.08329e-05 2.08329e-05 2.08329e-05 2.08329e-05 2.08329e-05 2.08329e-05 2.08329e-05 2.08329e-05 2.08329e-05);
        value           nonuniform List<scalar> 10(927.69065 927.49721 927.14326 926.68939 926.28946 926.09947 926.03584 926.00948 926.09965 926.17557);
        Tnbr            T;
        thicknessLayers List<scalar> 1(0.001);
        kappaLayers     List<scalar> 1(0.0005);
        kappaMethod     solidThermo;
        kappa           none;
        alphaAni        none;
        alpha           none;
        field           T;
    }
    leftSolid_to_topAir
    {
        type            compressible::turbulentTemperatureCoupledBaffleMixed;
        refValue        nonuniform List<scalar> 
130
(
325.59174
349.25148
370.66634
390.45654
409.13551
427.00272
444.15087
460.40863
475.48218
489.32541
501.8007
512.65018
521.30325
325.58308
348.98507
369.89745
388.94005
406.58896
423.08428
438.47335
452.6792
465.47205
476.47468
485.15814
490.88293
492.79599
325.57547
349.01567
369.98499
389.10118
406.84765
423.47912
439.1075
453.74559
467.30467
479.56169
490.09509
498.1845
502.55156
325.56959
349.01972
370.02223
389.20166
407.06164
423.89363
439.85786
455.03946
469.45585
483.02218
495.44828
506.03519
513.48433
325.56252
349.01073
370.01707
389.20511
407.07863
423.93062
439.92108
455.13198
469.5644
483.08004
495.24821
505.12149
511.52654
325.55769
349.00118
370.00273
389.18562
407.05317
423.89813
439.88145
455.08866
469.53022
483.08504
495.35895
505.4516
512.02208
325.55425
348.98969
369.97774
389.14201
406.9847
423.79618
439.73784
454.8964
469.29204
482.85266
495.31581
506.03108
513.66343
325.55016
348.9663
369.91195
389.00324
406.72236
423.32396
438.91576
453.52018
467.05093
479.28481
489.80967
497.9303
502.38166
325.54982
348.92004
369.80127
388.81132
406.42423
422.88085
438.23708
452.41173
465.17318
476.1455
484.79952
490.50759
492.45293
325.55445
349.17877
370.55882
390.3127
408.95231
426.77874
443.89242
460.13304
475.1933
489.02537
501.48815
512.32271
520.96122
)
;
        refGradient     uniform 0;
        valueFraction   nonuniform List<scalar> 
130
(
0.00032132529
0.00032132529
0.00032132529
0.00032132529
0.00032132529
0.00032132529
0.00032132529
0.00032132529
0.00032132529
0.00032132529
0.00032132529
0.00032132529
0.00032132529
0.00032132529
0.00032132529
0.00032132529
0.00032132529
0.00032132529
0.00032132529
0.00032132529
0.00032132529
0.00032132529
0.00032132529
0.00032132529
0.00032132529
0.00032132529
0.00032132529
0.00032132529
0.00032132529
0.00032132529
0.00032132529
0.00032132529
0.00032132529
0.00032132529
0.00032132529
0.00032132529
0.00032132529
0.00032132529
0.00032132529
0.00032132529
0.00032132529
0.00032132529
0.00032132529
0.00032132529
0.00032132529
0.00032132529
0.00032132529
0.00032132529
0.00032132529
0.00032132529
0.00032132529
0.00032132529
0.00032132529
0.00032132529
0.00032132529
0.00032132529
0.00032132529
0.00032132529
0.00032132529
0.00032132529
0.00032132529
0.00032132529
0.00032132529
0.00032132529
0.00032132529
0.00032132529
0.00032132529
0.00032132529
0.00032132529
0.00032132529
0.00032132529
0.00032132529
0.00032132529
0.00032132529
0.00032132529
0.00032132529
0.00032132529
0.00032132529
0.00032132529
0.00032132529
0.00032132529
0.00032132529
0.00032132529
0.00032132529
0.00032132529
0.00032132529
0.00032132529
0.00032132529
0.00032132529
0.00032132529
0.00032132529
0.00032132529
0.00032132529
0.00032132529
0.00032132529
0.00032132529
0.00032132529
0.00032132529
0.00032132529
0.00032132529
0.00032132529
0.00032132529
0.00032132529
0.00032132529
0.00032132529
0.00032132529
0.00032132529
0.00032132529
0.00032132529
0.00032132529
0.00032132529
0.00032132529
0.00032132529
0.00032132529
0.00032132529
0.00032132529
0.00032132529
0.00032132529
0.00032132529
0.00032132529
0.00032132529
0.00032132529
0.00032132529
0.00032132529
0.00032132529
0.00032132529
0.00032132529
0.00032132529
0.00032132529
0.00032132529
)
;
        value           nonuniform List<scalar> 
130
(
929.54386
929.54867
929.53526
929.49071
929.40613
929.27241
929.08534
928.82762
928.49965
928.18254
927.9044
927.68768
927.56419
929.48985
929.49205
929.47314
929.42009
929.32591
929.17881
928.98706
928.73082
928.41863
928.09338
927.78491
927.52447
927.36184
929.38617
929.38354
929.35305
929.28556
929.1737
929.00152
928.78993
928.53031
928.21706
927.87427
927.53883
927.23971
927.01154
929.24853
929.24039
929.19322
929.09869
928.96119
928.77446
928.54228
928.26319
927.93385
927.56857
927.19428
926.84111
926.56199
929.09596
929.07858
929.01944
928.90672
928.73422
928.51724
928.25306
927.94138
927.58072
927.16771
926.74842
926.40432
926.16252
928.97576
928.9461
928.86924
928.73255
928.52224
928.25543
927.94527
927.60653
927.24237
926.85707
926.48377
926.16928
925.97274
928.8687
928.83422
928.74829
928.59933
928.37557
928.07536
927.75881
927.42873
927.07758
926.71433
926.36459
926.07823
925.90868
928.76042
928.72436
928.63495
928.48013
928.24492
927.93914
927.62293
927.28999
926.93906
926.60465
926.29883
926.04209
925.87805
928.66963
928.63557
928.5493
928.39822
928.16761
927.86957
927.54538
927.22108
926.90136
926.603
926.33602
926.11193
925.96459
928.62451
928.59302
928.51012
928.36086
928.12741
927.83876
927.53308
927.20806
926.89618
926.61264
926.36665
926.17177
926.04945
)
;
        Tnbr            T;
        thicknessLayers List<scalar> 0();
        kappaLayers     List<scalar> 0();
        kappaMethod     solidThermo;
        kappa           none;
        alphaAni        none;
        alpha           none;
        field           T;
    }
}


// ************************************************************************* //
