/*--------------------------------*- C++ -*----------------------------------*\
| =========                 |                                                 |
| \\      /  F ield         | OpenFOAM: The Open Source CFD Toolbox           |
|  \\    /   O peration     | Version:  v2012                                 |
|   \\  /    A nd           | Website:  www.openfoam.com                      |
|    \\/     M anipulation  |                                                 |
\*---------------------------------------------------------------------------*/
FoamFile
{
    version     2.0;
    format      ascii;
    class       volScalarField;
    location    "240/bottomWater";
    object      p;
}
// * * * * * * * * * * * * * * * * * * * * * * * * * * * * * * * * * * * * * //

dimensions      [1 -1 -2 0 0 0 0];


internalField   nonuniform List<scalar> 
1460
(
353.40196
353.41562
353.40805
353.40573
353.4016
353.4089
353.38884
353.41122
353.40754
353.41128
353.41349
353.41642
353.41353
353.41289
353.41135
353.43594
353.43636
353.43893
353.4312
353.43358
353.43837
353.44022
353.44138
353.44282
353.44315
353.44682
353.4462
353.43157
353.42913
353.42692
274.48254
274.49727
274.48291
274.469
274.45798
274.46447
274.46836
274.49787
274.49783
274.49662
274.4738
274.45068
274.4509
274.45706
274.46822
274.48723
274.46648
274.43247
274.4496
274.46699
274.50008
274.48665
274.47268
274.43288
274.44912
274.48286
274.50947
274.49076
274.47601
274.46709
196.28706
196.25054
196.2679
196.27302
196.28994
196.28601
196.27957
196.24498
196.27802
196.25917
196.26814
196.28762
196.29437
196.27548
196.26522
196.25161
196.25958
196.26497
196.26785
196.24403
196.25113
196.25506
196.24544
196.26742
196.26801
196.25336
196.25401
196.25154
196.24893
196.26518
117.70175
117.694
117.67994
117.67835
117.69772
117.69369
117.67196
117.65999
117.64805
117.67305
117.67991
117.68967
117.6852
117.67509
117.66771
117.68193
117.65765
117.67947
117.6639
117.68185
117.68666
117.66505
117.62952
117.66861
117.63736
117.66738
117.69913
117.67466
117.64971
117.64028
39.237783
39.224629
39.231174
39.233702
39.237209
39.241399
39.238769
39.238086
39.262529
39.23704
39.241983
39.246413
39.256807
39.245724
39.238496
39.230249
39.2244
39.232811
39.24169
39.238807
39.228683
39.219821
39.246612
39.245718
39.238541
39.225003
39.232755
39.226146
39.239661
39.262497
353.41168
353.4153
353.42616
353.41559
353.40008
353.40971
353.409
353.40988
353.41075
353.41078
353.40677
353.42288
353.4094
353.41032
353.4239
353.43171
353.4358
353.43542
353.43472
353.42731
353.43579
353.44594
353.4455
353.44834
353.44693
353.44074
353.44432
353.41523
353.4271
353.42694
274.47358
274.49214
274.54285
274.49129
274.45791
274.45533
274.45165
274.44746
274.44892
274.45631
274.47274
274.48574
274.45204
274.46844
274.48976
274.50343
274.47812
274.44079
274.43348
274.44638
274.46459
274.46928
274.43218
274.41279
274.41811
274.46657
274.47489
274.44787
274.43758
274.43634
196.26961
196.23627
196.23125
196.2226
196.23709
196.26589
196.27463
196.26666
196.28017
196.25979
196.26527
196.24959
196.25773
196.27669
196.24508
196.25608
196.22538
196.26761
196.26161
196.25805
196.24559
196.23808
196.25158
196.27593
196.26881
196.2289
196.24464
196.24566
196.25775
196.28657
117.67975
117.66371
117.66052
117.65895
117.65887
117.68809
117.69071
117.68495
117.67765
117.67508
117.65148
117.66227
117.67144
117.66618
117.6803
117.65727
117.64438
117.64886
117.66964
117.66106
117.64799
117.63453
117.6155
117.66951
117.67067
117.62794
117.67227
117.6565
117.67023
117.68067
39.229109
39.226728
39.244377
39.244851
39.244893
39.244785
39.244578
39.247079
39.252467
39.238618
39.259599
39.250598
39.236095
39.227221
39.227744
39.22242
39.234077
39.244525
39.243322
39.239631
39.224273
39.233689
39.256379
39.257919
39.247946
39.241917
39.230095
39.247259
39.244788
39.254397
353.41153
353.40324
353.43385
353.40943
353.41132
353.40936
353.40262
353.40371
353.40462
353.40776
353.40828
353.4136
353.40752
353.41247
353.41925
353.43692
353.43047
353.43147
353.43313
353.43217
353.42235
353.44676
353.43978
353.44415
353.43912
353.43669
353.4427
353.42338
353.43651
353.43005
274.46043
274.46499
274.49853
274.46327
274.45046
274.44767
274.46096
274.4625
274.45923
274.45547
274.45111
274.45251
274.45868
274.47024
274.50289
274.49291
274.43747
274.42411
274.42591
274.43064
274.43445
274.43788
274.40901
274.4145
274.41309
274.43661
274.45247
274.43814
274.43249
274.43581
196.27053
196.25305
196.22482
196.26758
196.28298
196.28594
196.26788
196.27899
196.27764
196.28087
196.28135
196.28502
196.26429
196.2472
196.25367
196.22738
196.23809
196.26309
196.29669
196.26702
196.25798
196.2406
196.26165
196.32359
196.27679
196.26336
196.23481
196.26614
196.29147
196.31795
117.68342
117.6559
117.66835
117.64981
117.69425
117.68975
117.65325
117.65642
117.66886
117.67898
117.6921
117.68906
117.66378
117.67434
117.6688
117.64489
117.6433
117.66842
117.68257
117.68588
117.65673
117.64445
117.66327
117.69057
117.68842
117.64177
117.67203
117.66879
117.68099
117.68304
39.23965
39.247169
39.264111
39.26894
39.259952
39.264307
39.261419
39.277604
39.26308
39.246985
39.255276
39.252661
39.259346
39.248085
39.237329
39.247958
39.253399
39.256762
39.266472
39.250394
39.248564
39.255941
39.261725
39.283457
39.267536
39.268874
39.252309
39.255689
39.256426
39.258554
353.40671
353.40492
353.40046
353.40764
353.40476
353.40319
353.41484
353.4159
353.41308
353.40716
353.40073
353.4086
353.41412
353.40466
353.42208
353.42834
353.4237
353.43182
353.42898
353.42907
353.41959
353.4495
353.44724
353.45082
353.44899
353.45007
353.44788
353.4151
353.42206
353.42095
274.45494
274.44989
274.46203
274.4534
274.45325
274.45769
274.49501
274.5015
274.47288
274.47259
274.46117
274.44512
274.44815
274.45688
274.46157
274.45041
274.4285
274.43181
274.42941
274.43077
274.439
274.45488
274.43045
274.41249
274.41485
274.46434
274.48476
274.44762
274.45148
274.44891
196.30383
196.28159
196.27003
196.28893
196.26219
196.23583
196.22119
196.22216
196.23809
196.23675
196.24358
196.25488
196.27724
196.26808
196.2407
196.26641
196.26206
196.31387
196.29211
196.25968
196.25971
196.23822
196.25753
196.26125
196.27486
196.23422
196.22857
196.26133
196.27849
196.29277
117.68618
117.68484
117.64548
117.67946
117.67688
117.65012
117.65984
117.65967
117.6635
117.66581
117.65444
117.67856
117.69714
117.66252
117.65283
117.63949
117.68022
117.68831
117.68048
117.6744
117.64602
117.65427
117.61397
117.68537
117.68262
117.63088
117.6468
117.64767
117.66462
117.66954
39.253311
39.23808
39.259283
39.257626
39.244596
39.249689
39.243872
39.239479
39.236528
39.231914
39.246235
39.237442
39.254349
39.235513
39.243216
39.262297
39.262195
39.27268
39.262242
39.255101
39.240336
39.246749
39.25965
39.274389
39.263501
39.261426
39.248568
39.231226
39.233308
39.236282
353.40827
353.39776
353.42166
353.41698
353.41458
353.41526
353.41892
353.41895
353.4227
353.4227
353.42615
353.42263
353.42311
353.43076
353.42417
353.42512
353.43423
353.43699
353.4412
353.44155
353.44077
353.44053
353.44539
353.43735
353.44329
353.42797
274.45922
274.4578
274.48161
274.47513
274.46326
274.48741
274.51431
274.52323
274.52067
274.5116
274.4958
274.47088
274.44789
274.43383
274.43106
274.44505
274.47054
274.48607
274.46877
274.44077
274.41955
274.44125
274.4746
274.48613
274.47347
274.45719
196.28133
196.27538
196.23999
196.29507
196.25072
196.23605
196.25303
196.25349
196.25431
196.25477
196.24293
196.23914
196.27047
196.28318
196.25486
196.24092
196.24149
196.2565
196.2322
196.25548
196.2538
196.25954
196.22806
196.2536
196.25012
196.29836
117.69224
117.67252
117.67387
117.63995
117.6907
117.64893
117.67893
117.68293
117.69738
117.68638
117.67671
117.65377
117.68182
117.66887
117.64838
117.64057
117.66852
117.64922
117.636
117.62043
117.67882
117.62521
117.65831
117.65699
117.69548
117.70294
39.247563
39.242272
39.236284
39.260402
39.242422
39.235903
39.222391
39.223257
39.231354
39.224905
39.229657
39.242925
39.244556
39.253072
39.246695
39.247294
39.23193
39.22789
39.24073
39.264177
39.258871
39.261011
39.233612
39.215961
39.222306
39.237426
353.40997
353.40314
353.42508
353.40767
353.40612
353.41994
353.428
353.42916
353.42964
353.41817
353.4229
353.42834
353.4137
353.44324
353.44179
353.44335
353.44464
353.4502
353.44443
353.44899
353.44463
353.45022
353.44786
353.43659
353.43114
353.42186
274.4574
274.46467
274.49607
274.46322
274.46849
274.49967
274.51893
274.51636
274.50342
274.48563
274.44799
274.49284
274.46882
274.43586
274.45835
274.49206
274.50699
274.50688
274.49197
274.46716
274.43425
274.42155
274.46163
274.48426
274.47424
274.46089
196.28398
196.26686
196.25495
196.28823
196.26278
196.25051
196.25688
196.25506
196.25669
196.26225
196.27186
196.25168
196.26868
196.26177
196.2288
196.23218
196.25444
196.24463
196.25774
196.22603
196.27333
196.26996
196.22253
196.24166
196.26645
196.3008
117.68351
117.64667
117.67381
117.68197
117.67448
117.67776
117.69961
117.69121
117.68612
117.66173
117.6814
117.64764
117.64477
117.67178
117.65712
117.66785
117.68808
117.69466
117.65628
117.6486
117.67128
117.6615
117.63711
117.65117
117.65075
117.68271
39.250681
39.253864
39.238176
39.232476
39.222289
39.217819
39.221653
39.22384
39.223321
39.224156
39.234609
39.252851
39.273394
39.239947
39.241785
39.233561
39.229279
39.228963
39.223319
39.246447
39.242178
39.249277
39.243746
39.237163
39.220117
39.234213
353.40998
353.40947
353.41248
353.40391
353.43041
353.43933
353.42443
353.42207
353.42355
353.41955
353.43436
353.42341
353.42842
353.42888
353.42615
353.42664
353.42651
353.4266
353.42868
353.43905
353.44648
353.4464
353.44569
353.43964
353.43839
353.44447
353.44025
353.44231
353.45003
353.43735
274.44723
274.44394
274.45064
274.45312
274.49428
274.52278
274.4511
274.45345
274.4525
274.44824
274.48418
274.45736
274.43837
274.43529
274.42828
274.45014
274.45802
274.45168
274.44714
274.47983
274.50792
274.50288
274.47723
274.44044
274.42023
274.41864
274.41503
274.43098
274.47888
274.46671
196.28418
196.27231
196.25783
196.24396
196.22072
196.22313
196.26728
196.27194
196.27474
196.27352
196.25518
196.27069
196.28283
196.30507
196.28253
196.26501
196.27353
196.25886
196.26782
196.24912
196.2578
196.25234
196.23998
196.23705
196.26607
196.3073
196.24627
196.25366
196.21652
196.24691
117.69035
117.6894
117.68472
117.6566
117.67315
117.67529
117.68
117.66437
117.65751
117.66081
117.66729
117.65887
117.68466
117.68503
117.67153
117.62557
117.63309
117.63002
117.64399
117.66804
117.69199
117.67877
117.65406
117.63611
117.663
117.67485
117.65838
117.63196
117.63495
117.66156
39.252064
39.246929
39.24118
39.235134
39.236615
39.239698
39.224878
39.227897
39.234215
39.248031
39.261639
39.260664
39.258419
39.269491
39.261779
39.261835
39.271672
39.26017
39.223279
39.219301
39.233353
39.227455
39.229629
39.252407
39.251807
39.273028
39.250898
39.255354
39.247738
39.233503
353.40796
353.41103
353.41303
353.41422
353.41607
353.41892
353.42486
353.41871
353.42265
353.42305
353.42368
353.42196
353.41743
353.42083
353.42366
353.4416
353.44863
353.44853
353.44949
353.44306
353.44581
353.44147
353.43639
353.43902
353.43998
353.4407
353.43552
353.42754
353.42673
353.42654
274.4685
274.46233
274.45033
274.44874
274.46252
274.48109
274.49091
274.45992
274.44027
274.43305
274.44872
274.4487
274.44404
274.44105
274.45273
274.4889
274.47612
274.41855
274.41391
274.43006
274.46844
274.46647
274.44213
274.42395
274.41399
274.41597
274.42018
274.41921
274.4416
274.43996
196.28986
196.27573
196.28654
196.28854
196.26669
196.26161
196.25987
196.27408
196.28175
196.31034
196.29835
196.29495
196.27693
196.25267
196.24514
196.23468
196.25326
196.27605
196.26578
196.2412
196.2413
196.26646
196.25879
196.27215
196.30241
196.32636
196.31293
196.28367
196.28429
196.28694
117.63779
117.62962
117.67106
117.67625
117.6475
117.6694
117.6657
117.64168
117.67256
117.68101
117.6592
117.67717
117.6695
117.65
117.63409
117.65799
117.6541
117.68446
117.67615
117.62914
117.65399
117.66213
117.63729
117.65588
117.67141
117.68805
117.67744
117.66324
117.63689
117.65018
39.286157
39.260231
39.260368
39.257605
39.258096
39.238798
39.235531
39.254373
39.255532
39.262723
39.271945
39.248863
39.244278
39.244095
39.245264
39.242405
39.227461
39.246023
39.250884
39.24836
39.236897
39.226454
39.262155
39.248433
39.263125
39.277393
39.272039
39.263259
39.270615
39.263984
353.40654
353.42528
353.42713
353.42485
353.42981
353.42705
353.43209
353.41797
353.42352
353.42268
353.42237
353.41387
353.41597
353.43383
353.43709
353.44154
353.44476
353.43775
353.44706
353.43659
353.4432
353.4311
353.43776
353.43738
353.43726
353.44233
353.4355
353.43384
353.42729
353.4319
274.48458
274.4961
274.48247
274.45295
274.44081
274.45441
274.47364
274.44976
274.4353
274.435
274.43904
274.44094
274.44603
274.49005
274.49343
274.48525
274.46032
274.42155
274.41352
274.41407
274.43219
274.43378
274.42175
274.42929
274.43274
274.41947
274.41736
274.44362
274.43993
274.43614
196.26713
196.2418
196.22746
196.25984
196.24898
196.28494
196.21551
196.27441
196.26179
196.30771
196.27955
196.2507
196.23835
196.23158
196.25126
196.26314
196.25489
196.26944
196.3162
196.2811
196.27813
196.28491
196.2997
196.30134
196.29224
196.29773
196.27121
196.25243
196.2681
196.285
117.64456
117.65782
117.65755
117.66325
117.68958
117.66204
117.66541
117.65867
117.68762
117.68681
117.68635
117.67044
117.66519
117.66623
117.6771
117.6685
117.64981
117.64622
117.68089
117.66835
117.61918
117.62886
117.66204
117.6474
117.60577
117.65894
117.64658
117.64
117.6382
117.6735
39.243511
39.224594
39.228235
39.229798
39.238425
39.247864
39.254407
39.268244
39.237163
39.269567
39.253344
39.241221
39.230732
39.230743
39.235996
39.228638
39.241986
39.248566
39.272351
39.259294
39.256846
39.252854
39.228348
39.243214
39.254046
39.253751
39.237954
39.25785
39.231698
39.225001
353.40774
353.41528
353.41827
353.41823
353.42405
353.41882
353.42232
353.41788
353.42537
353.41961
353.41522
353.41277
353.42694
353.43347
353.44041
353.43274
353.45196
353.44081
353.44746
353.43975
353.44253
353.45882
353.42831
353.45138
353.44017
353.43976
353.44861
353.44735
353.4325
353.4294
274.47882
274.49529
274.50179
274.48986
274.48734
274.45461
274.44146
274.46275
274.47609
274.4598
274.45703
274.46603
274.49783
274.5068
274.48678
274.45951
274.4902
274.42579
274.41551
274.42122
274.44755
274.4925
274.44977
274.48637
274.48313
274.44589
274.5031
274.5311
274.47374
274.45936
196.29789
196.27208
196.25908
196.25956
196.24047
196.2816
196.25333
196.30233
196.23146
196.2937
196.25309
196.26188
196.2513
196.26156
196.26864
196.28262
196.2495
196.26711
196.29251
196.27647
196.25713
196.23468
196.29988
196.25025
196.26584
196.26108
196.22802
196.22629
196.25371
196.29479
117.68403
117.69352
117.68152
117.64799
117.64857
117.63415
117.69724
117.66689
117.67285
117.6469
117.67236
117.66362
117.69764
117.69431
117.66733
117.65348
117.65753
117.63339
117.69351
117.68067
117.61514
117.63963
117.64315
117.68317
117.66021
117.65676
117.65391
117.65084
117.66208
117.69115
39.230699
39.225985
39.222358
39.225151
39.252862
39.267546
39.256219
39.257794
39.262079
39.279954
39.245538
39.230189
39.232276
39.233706
39.223269
39.249701
39.265003
39.27148
39.279682
39.268044
39.263255
39.250466
39.225181
39.229516
39.232075
39.244116
39.24419
39.249596
39.21076
39.234153
)
;

boundaryField
{
    minX
    {
        type            calculated;
        value           nonuniform List<scalar> 
50
(
353.40196
274.48254
196.28706
117.70175
39.237783
353.41168
274.47358
196.26961
117.67975
39.229109
353.41153
274.46043
196.27053
117.68342
39.23965
353.40671
274.45494
196.30383
117.68618
39.253311
353.40827
274.45922
196.28133
117.69224
39.247563
353.40997
274.4574
196.28398
117.68351
39.250681
353.40998
274.44723
196.28418
117.69035
39.252064
353.40796
274.4685
196.28986
117.63779
39.286157
353.40654
274.48458
196.26713
117.64456
39.243511
353.40774
274.47882
196.29789
117.68403
39.230699
)
;
    }
    maxX
    {
        type            calculated;
        value           nonuniform List<scalar> 
50
(
353.42692
274.46709
196.26518
117.64028
39.262497
353.42694
274.43634
196.28657
117.68067
39.254397
353.43005
274.43581
196.31795
117.68304
39.258554
353.42095
274.44891
196.29277
117.66954
39.236282
353.42797
274.45719
196.29836
117.70294
39.237426
353.42186
274.46089
196.3008
117.68271
39.234213
353.43735
274.46671
196.24691
117.66156
39.233503
353.42654
274.43996
196.28694
117.65018
39.263984
353.4319
274.43614
196.285
117.6735
39.225001
353.4294
274.45936
196.29479
117.69115
39.234153
)
;
    }
    minY
    {
        type            calculated;
        value           nonuniform List<scalar> 
292
(
392.4
392.4
392.4
392.4
392.4
392.4
392.4
392.4
392.4
392.4
392.4
392.4
392.4
392.4
392.4
392.4
392.4
392.4
392.4
392.4
392.4
392.4
392.4
392.4
392.4
392.4
392.4
392.4
392.4
392.4
392.4
392.4
392.4
392.4
392.4
392.4
392.4
392.4
392.4
392.4
392.4
392.4
392.4
392.4
392.4
392.4
392.4
392.4
392.4
392.4
392.4
392.4
392.4
392.4
392.4
392.4
392.4
392.4
392.4
392.4
392.4
392.4
392.4
392.4
392.4
392.4
392.4
392.4
392.4
392.4
392.4
392.4
392.4
392.4
392.4
392.4
392.4
392.4
392.4
392.4
392.4
392.4
392.4
392.4
392.4
392.4
392.4
392.4
392.4
392.4
392.4
392.4
392.4
392.4
392.4
392.4
392.4
392.4
392.4
392.4
392.4
392.4
392.4
392.4
392.4
392.4
392.4
392.4
392.4
392.4
392.4
392.4
392.4
392.4
392.4
392.4
392.4
392.4
392.4
392.4
392.4
392.4
392.4
392.4
392.4
392.4
392.4
392.4
392.4
392.4
392.4
392.4
392.4
392.4
392.4
392.4
392.4
392.4
392.4
392.4
392.4
392.4
392.4
392.4
392.4
392.4
392.4
392.4
392.4
392.4
392.4
392.4
392.4
392.4
392.4
392.4
392.4
392.4
392.4
392.4
392.4
392.4
392.4
392.4
392.4
392.4
392.4
392.4
392.4
392.4
392.4
392.4
392.4
392.4
392.4
392.4
392.4
392.4
392.4
392.4
392.4
392.4
392.4
392.4
392.4
392.4
392.4
392.4
392.4
392.4
392.4
392.4
392.4
392.4
392.4
392.4
392.4
392.4
392.4
392.4
392.4
392.4
392.4
392.4
392.4
392.4
392.4
392.4
392.4
392.4
392.4
392.4
392.4
392.4
392.4
392.4
392.4
392.4
392.4
392.4
392.4
392.4
392.4
392.4
392.4
392.4
392.4
392.4
392.4
392.4
392.4
392.4
392.4
392.4
392.4
392.4
392.4
392.4
392.4
392.4
392.4
392.4
392.4
392.4
392.4
392.4
392.4
392.4
392.4
392.4
392.4
392.4
392.4
392.4
392.4
392.4
392.4
392.4
392.4
392.4
392.4
392.4
392.4
392.4
392.4
392.4
392.4
392.4
392.4
392.4
392.4
392.4
392.4
392.4
392.4
392.4
392.4
392.4
392.4
392.4
392.4
392.4
392.4
392.4
392.4
392.4
392.4
392.4
392.4
392.4
392.4
392.4
)
;
    }
    minZ
    {
        type            calculated;
        value           nonuniform List<scalar> 
150
(
353.40196
274.48254
196.28706
117.70175
39.237783
353.41562
274.49727
196.25054
117.694
39.224629
353.40805
274.48291
196.2679
117.67994
39.231174
353.40573
274.469
196.27302
117.67835
39.233702
353.4016
274.45798
196.28994
117.69772
39.237209
353.4089
274.46447
196.28601
117.69369
39.241399
353.38884
274.46836
196.27957
117.67196
39.238769
353.41122
274.49787
196.24498
117.65999
39.238086
353.40754
274.49783
196.27802
117.64805
39.262529
353.41128
274.49662
196.25917
117.67305
39.23704
353.41349
274.4738
196.26814
117.67991
39.241983
353.41642
274.45068
196.28762
117.68967
39.246413
353.41353
274.4509
196.29437
117.6852
39.256807
353.41289
274.45706
196.27548
117.67509
39.245724
353.41135
274.46822
196.26522
117.66771
39.238496
353.43594
274.48723
196.25161
117.68193
39.230249
353.43636
274.46648
196.25958
117.65765
39.2244
353.43893
274.43247
196.26497
117.67947
39.232811
353.4312
274.4496
196.26785
117.6639
39.24169
353.43358
274.46699
196.24403
117.68185
39.238807
353.43837
274.50008
196.25113
117.68666
39.228683
353.44022
274.48665
196.25506
117.66505
39.219821
353.44138
274.47268
196.24544
117.62952
39.246612
353.44282
274.43288
196.26742
117.66861
39.245718
353.44315
274.44912
196.26801
117.63736
39.238541
353.44682
274.48286
196.25336
117.66738
39.225003
353.4462
274.50947
196.25401
117.69913
39.232755
353.43157
274.49076
196.25154
117.67466
39.226146
353.42913
274.47601
196.24893
117.64971
39.239661
353.42692
274.46709
196.26518
117.64028
39.262497
)
;
    }
    maxZ
    {
        type            calculated;
        value           nonuniform List<scalar> 
150
(
353.40774
274.47882
196.29789
117.68403
39.230699
353.41528
274.49529
196.27208
117.69352
39.225985
353.41827
274.50179
196.25908
117.68152
39.222358
353.41823
274.48986
196.25956
117.64799
39.225151
353.42405
274.48734
196.24047
117.64857
39.252862
353.41882
274.45461
196.2816
117.63415
39.267546
353.42232
274.44146
196.25333
117.69724
39.256219
353.41788
274.46275
196.30233
117.66689
39.257794
353.42537
274.47609
196.23146
117.67285
39.262079
353.41961
274.4598
196.2937
117.6469
39.279954
353.41522
274.45703
196.25309
117.67236
39.245538
353.41277
274.46603
196.26188
117.66362
39.230189
353.42694
274.49783
196.2513
117.69764
39.232276
353.43347
274.5068
196.26156
117.69431
39.233706
353.44041
274.48678
196.26864
117.66733
39.223269
353.43274
274.45951
196.28262
117.65348
39.249701
353.45196
274.4902
196.2495
117.65753
39.265003
353.44081
274.42579
196.26711
117.63339
39.27148
353.44746
274.41551
196.29251
117.69351
39.279682
353.43975
274.42122
196.27647
117.68067
39.268044
353.44253
274.44755
196.25713
117.61514
39.263255
353.45882
274.4925
196.23468
117.63963
39.250466
353.42831
274.44977
196.29988
117.64315
39.225181
353.45138
274.48637
196.25025
117.68317
39.229516
353.44017
274.48313
196.26584
117.66021
39.232075
353.43976
274.44589
196.26108
117.65676
39.244116
353.44861
274.5031
196.22802
117.65391
39.24419
353.44735
274.5311
196.22629
117.65084
39.249596
353.4325
274.47374
196.25371
117.66208
39.21076
353.4294
274.45936
196.29479
117.69115
39.234153
)
;
    }
    bottomWater_to_rightSolid
    {
        type            calculated;
        value           nonuniform List<scalar> 
130
(
-0.0071888772
0.0016901365
-0.0011931163
-0.011316531
-0.020178851
0.0066117662
0.0057180013
-0.0014594667
-0.01499697
-0.0072451322
-0.013854285
-0.00033934246
0.022496611
0.0045245295
0.0033217431
-0.00036940338
-0.01572718
-0.0063107503
0.01637887
0.01791926
0.0079464351
0.0019174584
-0.0099046928
0.0072587806
0.0047877661
0.014397216
0.016762476
0.026472234
0.010394096
0.0085642727
0.015940927
0.021724563
0.043457309
0.027536216
0.028874206
0.012309004
0.015688746
0.016425628
0.018554366
0.032680211
0.022241558
0.015101042
0.00033599765
0.0067489828
0.019649831
0.034389227
0.023500932
0.021426299
0.0085678441
-0.0087744295
-0.0066918939
-0.0037177673
0.013071856
0.0066946072
0.0072938837
-0.00807033
-0.012109995
0.00072994021
0.024177121
0.018870603
0.021010762
-0.0063882817
-0.02403934
-0.01769403
-0.0025741516
-5.2910536e-05
0.001785358
-0.0064392785
-0.010721023
-0.01103674
-0.01668089
0.0064472099
0.0021776489
0.0092768531
0.0037463562
-0.0028365577
-0.019883439
-0.0057871094
0.020170466
-0.016720874
-0.020699382
-0.0066471474
-0.012544758
-0.010371021
0.012406984
0.011807403
0.033028136
0.010897636
0.015353837
0.0077375252
-0.0064972984
0.0060232223
0.010883832
0.0083598625
-0.0031027137
-0.013546467
0.02215528
0.0084329227
0.023124947
0.037392706
0.032039323
0.023259159
0.030615207
0.023984264
0.0085660057
0.03235073
0.019293822
0.016846058
0.012853665
-0.011652382
0.0032138216
0.014045825
0.013751164
-0.0020455475
0.017850271
-0.0083022897
-0.014999093
0.031480119
0.039682487
0.028044024
0.02325467
0.010465679
-0.014819371
-0.010483789
-0.0079251488
0.0041159343
0.0041895673
0.0095962246
-0.029239963
-0.0058469947
)
;
    }
    bottomWater_to_leftSolid
    {
        type            calculated;
        value           nonuniform List<scalar> 
130
(
-0.0022173616
-0.015370765
-0.0088264943
-0.0062977102
-0.0027909999
0.0013985907
-0.0012307189
-0.0019142686
0.02252927
-0.0029599873
0.0019831332
0.0064132531
0.016806839
-0.010890757
-0.013271511
0.0043773652
0.0048508122
0.0048929067
0.0047847642
0.0045776761
0.0070794684
0.012467054
-0.0013819733
0.019599438
0.010597965
-0.0039052934
-0.00035038709
0.007168635
0.024110756
0.028939556
0.019952272
0.024306869
0.021419186
0.037604335
0.023079513
0.0069852903
0.015276245
0.012660876
0.019345599
0.01331059
-0.0019195867
0.019283181
0.017626338
0.0045956383
0.0096889064
0.0038715557
-0.00052123935
-0.0034717037
-0.0080860685
0.0062354624
-0.0025583807
0.014349258
0.0075634678
0.0022721737
-0.0037162567
0.020401794
0.0024224082
-0.0040967803
-0.017608539
-0.016742575
-0.0086455664
-0.015095321
-0.010343429
0.0029250826
0.0045564101
0.010681101
0.013863635
-0.001823991
-0.0075235717
-0.017710997
-0.022181439
-0.018346545
-0.016159726
-0.016678651
-0.015843619
-0.005390691
0.012851385
0.033394268
0.012063862
0.0069290078
0.0011796771
-0.0048656206
-0.0033852866
-0.0003020995
-0.015122133
-0.012103465
-0.0057847985
0.0080310541
0.021638822
0.020664365
0.018419465
0.046156908
0.020231351
0.020367819
0.017604612
0.018095812
-0.0012021512
-0.0044694428
0.01437307
0.01553226
0.022723078
0.031944788
0.0088626267
0.0042775498
0.0035107295
-0.015405773
-0.01176547
-0.010201693
-0.0015750417
0.0078640063
0.014407225
0.028244283
-0.002836592
0.029567193
0.013344282
0.0012207959
-0.0092680852
-0.0093006571
-0.014015208
-0.017641716
-0.014849109
0.012862358
0.027546143
0.016219135
0.017793762
0.022078552
0.039954281
0.0055384212
-0.0098107789
-0.0077237836
)
;
    }
    bottomWater_to_heater
    {
        type            calculated;
        value           nonuniform List<scalar> 
92
(
0.0057242436
-0.0015038501
-0.0097505361
-0.015599659
-0.012778888
-0.01225616
-0.017579895
-0.005922799
0.0080849514
-0.0026708726
0.0079582442
0.013399256
353.40466
353.42208
353.42834
353.4237
274.45688
274.46157
274.45041
274.4285
196.26808
196.2407
196.26641
196.26206
117.66252
117.65283
117.63949
117.68022
-0.0044866881
39.235513
0.0032158081
39.243216
0.022296879
39.262297
0.022194828
39.262195
353.42311
353.43076
274.44789
274.43383
196.27047
196.28318
117.68182
117.66887
39.244556
39.253072
353.4137
353.42888
353.42615
353.42664
353.44324
353.42651
274.46882
274.43529
274.42828
274.45014
274.43586
274.45802
196.26868
196.30507
196.28253
196.26501
196.26177
196.27353
117.64477
117.68503
117.67153
117.62557
117.67178
117.63309
39.273394
39.269491
39.261779
39.261835
39.239947
39.271672
0.029490718
0.021778616
0.021834629
0.031672137
0.0040952736
0.0052644713
0.0024047508
-0.012539175
-0.0092570568
-0.0040038001
-0.011362268
0.0019856266
-0.0062937705
-0.01673078
0.0097007647
0.025003483
)
;
    }
}


// ************************************************************************* //
