/*--------------------------------*- C++ -*----------------------------------*\
| =========                 |                                                 |
| \\      /  F ield         | OpenFOAM: The Open Source CFD Toolbox           |
|  \\    /   O peration     | Version:  v2012                                 |
|   \\  /    A nd           | Website:  www.openfoam.com                      |
|    \\/     M anipulation  |                                                 |
\*---------------------------------------------------------------------------*/
FoamFile
{
    version     2.0;
    format      ascii;
    class       volScalarField;
    location    "240/bottomWater";
    object      T;
}
// * * * * * * * * * * * * * * * * * * * * * * * * * * * * * * * * * * * * * //

dimensions      [0 0 0 1 0 0 0];


internalField   nonuniform List<scalar> 
1460
(
993.14631
986.93173
991.62304
995.07135
999.03056
999.24249
994.67702
990.73599
983.03232
978.31864
976.07938
973.09134
968.20965
965.7047
963.91925
961.69493
963.78607
966.54874
967.33243
966.33251
967.10339
972.70555
973.76433
975.42701
976.83225
976.5156
976.05457
977.96333
979.19326
980.58042
990.45802
985.41755
986.15772
988.9017
992.13968
993.73349
989.87354
988.59019
983.94185
975.00754
973.05186
972.8358
965.56995
963.07928
961.63172
961.22419
960.91927
962.80847
965.50092
964.5794
967.25851
972.69293
975.17731
976.27715
977.37145
976.91653
976.3892
977.94496
979.30701
979.96899
985.08336
985.42985
986.86422
988.62654
991.82923
992.61243
989.91011
988.72233
983.06906
974.34658
972.44366
971.26653
965.60411
963.51621
962.40714
961.05842
958.72529
962.6984
964.42083
963.4059
967.69294
973.63087
977.50164
977.05452
978.19938
976.76432
976.22335
977.8359
979.88679
980.76746
984.70438
985.30714
986.04452
986.96356
989.60623
988.29122
986.2289
986.2024
982.87475
975.15753
972.38866
969.32799
965.82808
964.43161
961.45151
959.58006
957.97636
962.60697
963.48987
961.83051
968.85006
973.86915
977.63872
977.96242
977.83232
975.913
975.47638
976.9291
978.89454
980.25649
984.32498
985.18749
985.43908
985.36287
984.6121
984.43782
983.52718
982.56576
980.2058
977.28799
973.18977
966.78134
964.87449
962.83979
960.28816
958.1136
957.23428
958.72951
961.44091
960.29303
969.64851
974.16636
975.13554
976.01155
975.98853
975.40597
974.73957
976.05367
977.15336
978.44793
992.9574
989.537
989.49792
992.06643
994.7094
997.59817
996.06589
991.23479
983.5125
979.25537
976.09591
971.1995
966.95073
963.76007
961.15884
959.92648
960.52826
962.59001
966.86223
968.68206
968.9131
972.52278
973.46189
975.4497
977.53773
977.69813
977.95534
979.93091
980.91153
982.15799
989.837
987.40625
988.78406
991.68758
992.63947
993.99457
993.10457
989.1537
981.16144
975.6119
974.0839
970.47377
965.41431
963.27295
960.12924
959.00533
959.77542
960.61954
964.99587
967.12928
968.53997
972.9688
973.95044
975.55524
978.60243
978.93327
978.5656
979.26623
979.90575
980.66074
988.20536
987.54943
988.83104
992.11782
992.81793
993.59949
992.92538
988.47379
980.73381
975.70628
977.415
969.95607
965.69807
966.0489
960.07404
958.60468
959.96582
961.75119
964.9944
965.52264
968.6786
973.64302
976.64947
976.04077
978.80181
979.74502
978.50109
979.40758
979.78837
980.76693
987.2005
986.97575
989.14805
990.9887
992.094
993.1222
992.74423
989.32894
981.7448
977.56879
976.12086
967.63231
965.95821
965.77582
956.95321
957.55646
960.87803
963.20295
965.16831
964.59694
970.27272
972.66398
976.93009
976.46065
979.14176
979.22557
977.26982
979.61649
979.75862
980.65861
986.68554
987.13215
987.89809
988.29911
987.88369
988.57588
987.69659
987.43404
980.23503
977.00138
975.27775
970.10906
968.67871
965.71451
955.37328
956.7029
958.9093
961.13731
963.33991
962.32834
972.58019
974.30425
975.33661
975.33007
977.54509
976.44231
975.16409
975.95191
977.36815
978.72916
995.29754
992.95007
991.77682
994.3128
995.43259
996.23619
993.97643
994.59252
992.06688
987.86305
982.34667
974.87369
967.55576
963.91938
960.34077
958.2751
960.41857
962.29563
967.13244
971.64741
973.07449
974.29428
975.13833
974.97563
976.10009
977.00406
977.4812
979.02101
978.10503
981.71329
991.25293
989.90072
991.81847
992.08475
992.29921
991.57266
990.93207
991.26902
988.84835
986.11582
981.68774
970.65256
966.6016
965.05199
959.30057
957.7215
958.86816
960.11349
964.29518
969.70419
970.73716
973.40609
974.22423
975.5389
978.03563
978.48617
978.57129
977.45335
976.64271
979.04167
990.69836
991.29315
992.11964
992.34539
991.84941
991.58294
991.88014
989.69722
984.6836
984.87069
981.82446
971.29714
968.86133
965.22874
959.57614
957.17186
960.36944
960.66724
964.59708
969.03
970.20672
973.10537
974.85986
975.83298
978.30967
979.06129
978.48495
977.49099
977.15143
978.72756
990.58025
990.57526
990.71574
991.93538
991.23392
991.58078
991.88249
989.9481
983.06801
982.94123
981.1103
972.30074
969.95019
964.23057
956.22695
959.58159
960.2956
962.20713
965.04207
968.39349
969.83858
974.34262
975.63803
976.06137
978.52816
979.16035
978.52594
977.87038
977.45808
977.97105
988.48926
988.47321
989.34372
990.11205
988.69501
989.42473
988.94844
988.54198
982.54438
979.92357
977.40139
970.59865
968.18394
961.63583
952.16076
955.44069
957.93763
960.95293
964.14974
964.04342
972.46526
973.85214
974.59373
975.2027
977.18887
976.8993
975.30129
975.48895
976.18344
976.73912
1000.4209
998.03175
997.11717
993.51134
991.26403
990.52151
989.84372
990.54686
987.50847
985.17552
983.45077
980.74099
967.06953
951.63527
949.42961
948.60012
958.63831
964.74217
971.15723
972.49813
973.04564
972.18447
972.41816
971.48094
972.9912
974.41692
974.93044
975.75657
975.60681
978.67343
995.43344
994.71261
996.15368
992.47932
988.37833
988.21343
988.9824
989.41619
985.20753
981.87107
980.04825
977.47208
968.2666
950.59389
951.70357
951.37002
953.30531
960.0284
969.45048
970.88551
971.65007
972.31019
973.09315
973.05982
975.40711
975.99515
975.70184
973.98277
973.75433
976.74478
994.88194
994.86053
995.12618
992.5854
988.2579
988.5773
989.5883
989.23718
983.28118
980.03061
978.5948
977.04728
967.83509
955.98926
952.45499
948.10654
951.97436
960.22738
969.28111
970.86345
970.38863
971.77833
975.58642
973.44127
975.30649
975.7552
975.59552
974.96572
974.91961
975.5159
994.82831
994.23708
994.45565
992.96393
987.97466
988.43705
988.5648
988.76418
982.40292
978.05927
976.6299
975.4148
967.32961
954.42737
951.9261
951.04313
953.05025
960.41865
968.89684
970.13443
969.47375
971.00591
975.13874
973.96045
975.38856
975.84573
976.57286
974.3845
973.75006
972.85609
992.8435
989.21963
993.04269
991.35073
988.09803
987.50337
987.22886
987.04892
981.86086
974.6992
971.93745
967.67272
960.65356
943.47559
947.22786
949.70215
952.82108
959.09447
965.80719
965.75766
968.15183
972.83397
973.7244
973.39495
974.14006
974.16908
973.9162
973.66474
973.55376
973.33715
1003.2804
999.94949
997.13856
991.64199
987.94099
987.1229
986.96866
987.78235
981.13225
978.02775
975.2466
974.52815
963.35103
953.7447
966.42435
967.64336
968.54104
971.39198
972.20646
971.55849
971.9185
973.05868
972.90894
972.67437
972.6336
976.19308
999.75623
998.00606
996.64199
995.74176
986.28359
986.08908
985.54769
986.96657
979.92186
974.35635
970.07869
967.66391
961.86825
955.84541
964.26902
966.00303
967.26102
971.09982
973.36446
972.67794
972.90899
973.84913
973.43812
972.15083
971.94279
976.00737
999.24602
997.40463
996.42871
992.99728
986.64651
987.10698
985.29162
987.06923
979.38769
972.11771
967.39629
962.46847
957.09718
953.02015
964.84639
967.13457
966.81855
970.79584
974.4165
973.88881
972.85817
974.17191
973.67977
971.97684
971.63495
972.12681
999.01748
995.87115
994.60388
994.05859
987.20909
986.82107
986.0458
986.39946
977.94699
969.24317
964.7749
963.88477
953.7104
950.32055
960.60878
965.3161
965.00962
970.96601
973.17624
973.91982
973.06475
973.63808
973.40149
971.54746
971.02571
970.10157
994.54847
991.71819
991.14979
991.79501
988.4479
987.20969
986.56283
986.01544
977.28
965.79832
960.43805
955.0269
947.01948
946.39486
956.62608
960.53267
963.85885
971.81348
972.39018
972.65759
972.1044
971.57268
971.05076
970.71213
970.57264
969.65493
999.81397
996.31807
993.0207
988.29539
985.23485
983.08234
980.05531
974.94751
973.18582
975.52522
978.96118
970.24088
960.79123
950.90168
960.40293
961.86288
963.82371
967.68535
968.26614
968.22429
967.61354
969.33529
972.58638
973.55273
974.99653
977.40307
996.45901
994.47069
993.11519
987.09499
985.37335
985.04577
980.56884
972.6291
969.8129
969.88087
971.50832
965.03755
953.4502
951.29374
956.29581
960.44199
962.6121
969.32204
969.69532
969.88148
969.81909
973.31653
973.38036
972.92864
973.01335
976.74642
996.51376
996.01428
993.15474
988.51081
987.52432
986.72392
980.89072
970.82785
966.95238
964.34348
971.90302
964.858
945.46163
947.1791
951.498
959.57101
961.55168
969.54186
969.79574
969.86324
970.77912
973.46488
973.6163
972.71514
972.07298
972.01478
996.87122
996.50631
991.96508
989.13853
987.281
985.61058
980.34613
971.06468
966.31884
962.78769
969.14082
967.49119
959.59887
943.52199
950.68821
958.62505
959.64658
969.50375
970.3298
971.97806
972.08219
973.40866
973.95922
972.21726
970.99081
970.56566
992.07454
991.51163
988.94847
987.09204
985.40357
983.98561
980.00499
969.51965
963.64189
959.3049
957.13939
957.12131
952.55022
936.71595
948.52236
953.30701
957.96577
969.3983
969.73839
969.84844
969.31577
970.28707
970.35899
970.08971
970.19493
969.82493
997.85058
994.29027
992.11514
989.94793
987.67035
982.85574
983.99636
982.13639
979.10372
979.37574
975.39693
975.41104
972.78068
956.22863
955.93749
955.74167
955.59394
957.5941
956.52308
955.12251
956.26661
962.166
963.10828
964.31144
965.27306
969.30199
974.27854
975.10714
975.58967
975.90059
994.8873
992.00839
990.57451
989.303
989.17932
982.55119
981.80369
979.1518
975.57674
974.30188
974.54148
972.94285
971.18482
962.28388
957.39938
954.73453
952.82048
954.97347
952.91594
952.76447
955.36837
961.36157
963.00933
964.01697
965.01024
971.50479
974.95279
975.51639
976.21446
975.19117
994.80907
992.15096
990.46258
990.09487
989.63148
982.42134
977.66661
977.38192
975.7388
975.58589
974.44466
970.75709
970.16137
961.24887
956.07947
950.70123
948.89953
955.54354
950.37823
951.22199
954.30118
961.18093
963.40525
964.74562
965.57312
971.84736
974.54391
975.43662
976.05099
974.69431
994.89353
992.57787
991.43145
990.51111
990.07345
989.31521
976.8029
970.3903
971.20613
972.67851
968.52192
968.78835
967.90845
960.60085
955.98922
956.6349
954.26011
946.94647
948.2825
950.54041
953.53673
962.1219
964.88564
967.06996
967.45092
971.90832
973.69403
974.12949
974.73426
972.56655
992.53364
989.89315
986.68123
984.40108
984.1828
983.01208
975.17336
969.79642
968.66263
968.31356
963.51472
959.64741
959.79092
957.33582
952.38464
950.77096
949.97799
946.51037
947.30453
949.41836
952.60765
962.2223
964.79995
966.24526
967.40841
970.63569
970.8231
971.17732
971.66407
970.92357
996.89764
992.96019
991.22574
989.99988
987.6241
985.1
982.58755
984.53628
983.11316
982.16377
974.41023
970.02285
967.50919
965.18065
962.73828
961.25863
955.80178
955.02812
954.9296
955.89355
956.32392
960.60058
961.96474
962.93325
963.70809
965.84713
969.43581
972.48719
974.95505
977.93996
993.84548
990.78951
989.23011
987.33005
986.0202
984.08164
979.79959
979.6718
979.10156
978.24954
976.00774
971.55295
968.55458
966.87492
964.40415
963.03161
956.26744
956.21496
954.95531
955.39434
956.41
959.79995
961.2841
962.28041
963.28076
965.69567
972.56803
975.02586
976.60333
977.31891
992.62838
991.23157
989.1478
987.44971
986.44942
984.82089
979.0129
977.47395
978.3814
978.43536
977.58139
974.10677
970.50444
968.73298
968.01584
963.15264
953.4318
956.60616
955.54334
956.2926
956.28155
958.60315
962.15174
962.48036
963.40095
965.69888
971.59557
975.25582
976.7423
977.1767
990.78249
988.98053
988.93256
987.46169
986.80583
983.86997
979.28342
974.96923
975.82776
978.40491
975.12985
972.8785
971.10797
969.14648
967.85828
964.59193
954.01381
955.69411
955.79021
955.52638
955.3756
957.88392
963.71732
963.36068
964.01768
965.98201
970.80022
973.78115
974.3225
975.00989
989.82949
987.24142
987.12878
985.95294
984.31337
981.57775
976.44421
974.81244
974.3124
976.06129
973.11253
966.72691
963.43354
960.99575
958.94045
954.53393
951.88808
952.69344
955.19101
955.3283
955.38243
957.73781
961.74127
962.61747
963.58157
965.21277
968.8103
970.05077
971.57761
971.41375
994.10189
989.82963
988.6853
990.09757
990.34891
988.27216
984.59234
987.46955
986.70196
980.985
974.27052
971.35138
968.91309
966.44526
962.51711
958.19751
957.47688
958.21227
958.05123
957.79524
957.47489
962.2134
962.34466
962.66359
963.99898
965.47701
970.27237
973.62387
975.0867
977.54542
992.07675
988.56508
986.65538
986.0896
986.32262
984.00526
982.73627
983.41409
983.74741
981.24714
973.52399
971.21497
970.424
969.38176
964.14918
958.01513
957.29983
957.59075
957.444
957.97214
959.19245
962.08848
962.10744
962.64072
963.87169
966.23838
971.67195
973.77225
973.94378
975.93927
989.70487
988.61976
986.05559
986.0954
986.46172
984.78211
982.7069
981.49985
981.89569
981.31087
974.65073
972.22803
972.11075
971.14588
964.71055
957.037
956.11359
957.77464
957.61558
958.37908
959.62629
960.89605
961.5722
961.97348
963.0517
965.51931
969.37078
973.73137
975.99997
975.75146
986.6955
985.50582
984.98277
984.92832
986.47896
985.42307
984.20388
980.61665
979.98185
981.38752
975.36372
973.36605
971.41812
970.55459
966.19382
956.30073
955.87096
957.11603
957.9519
958.75126
958.28176
959.01737
958.60828
960.32445
962.63942
966.13692
969.58033
971.99522
973.59293
973.31283
987.81951
985.07265
982.29523
980.35399
980.49308
981.42454
980.75992
978.97009
975.68833
979.12387
974.50862
970.17429
966.25231
962.26008
959.27893
953.82147
954.80062
956.04546
957.27291
957.86829
957.66288
957.52558
957.79635
961.68118
962.48853
964.79772
966.45318
969.4202
970.30724
970.0087
992.588
988.26465
986.49331
987.6132
987.52477
990.61483
990.63348
986.0984
981.46905
980.69926
974.71274
972.11795
969.38979
964.49109
959.93792
961.6167
957.99665
958.5924
960.42072
961.65886
961.03229
960.83958
962.14368
961.16795
962.94203
966.09493
969.83239
972.19705
972.72035
975.13099
988.76043
984.49149
983.39756
983.34673
984.41494
985.22893
986.06115
980.94343
979.23067
979.67099
973.78679
972.11381
970.64271
963.35736
959.57432
960.30201
959.20265
959.40219
960.12263
961.62862
961.83107
961.84779
961.52206
961.72453
963.48532
967.01983
968.86852
971.95497
970.9901
974.04096
986.43526
984.25286
982.84817
983.00456
984.9288
985.68736
986.23291
980.88449
979.31668
977.21833
973.98085
972.65441
970.73086
962.36115
957.77274
959.42517
958.85536
959.61296
960.28891
961.69357
961.67191
961.55109
960.77056
961.29238
963.34872
965.69701
967.33494
971.43639
970.3468
970.42739
985.44295
982.75895
981.73699
982.8857
984.92601
986.10379
986.38632
981.8655
979.57849
978.20553
974.62374
972.24256
969.61249
961.5035
957.29993
957.4665
958.3507
959.26245
960.48498
961.97626
962.02404
961.56772
960.07158
960.75323
963.01383
965.84857
968.52456
971.69968
969.28234
969.20157
985.84756
982.42402
981.19959
981.69337
982.90255
983.37449
981.22256
977.22864
976.92944
976.76309
974.6425
972.18926
968.8493
959.26817
956.46495
956.31873
957.16401
957.91697
959.17463
960.2785
960.38862
960.17062
959.54328
960.25882
962.40052
963.67576
966.42612
967.98909
968.42786
968.56414
)
;

boundaryField
{
    minX
    {
        type            zeroGradient;
    }
    maxX
    {
        type            zeroGradient;
    }
    minY
    {
        type            fixedValue;
        value           uniform 1073;
    }
    minZ
    {
        type            zeroGradient;
    }
    maxZ
    {
        type            zeroGradient;
    }
    bottomWater_to_rightSolid
    {
        type            compressible::turbulentTemperatureCoupledBaffleMixed;
        refValue        nonuniform List<scalar> 
130
(
709.17878
716.09029
723.28027
730.42462
737.18686
743.35423
748.81642
753.51056
757.41308
760.52846
762.87126
764.43856
765.22729
704.18739
712.26534
720.46963
728.41935
735.77229
742.36862
748.13227
753.04244
757.0854
760.29032
762.68829
764.28863
765.09237
694.04217
704.81534
715.20749
724.77973
733.28581
740.67857
746.98422
752.25733
756.54255
759.90209
762.39287
764.04279
764.86698
678.72534
694.60641
708.54165
720.43021
730.45574
738.82377
745.75148
751.42198
755.9679
759.496
762.0859
763.78902
764.63411
660.44071
684.74502
702.91494
717.06224
728.37145
737.4886
744.86996
750.81739
755.5401
759.18181
761.84144
763.58319
764.44306
660.28796
684.55143
702.70233
716.8472
728.16925
737.29534
744.68848
750.65301
755.39968
759.0632
761.73948
763.49335
764.36042
678.39375
694.14872
708.0168
719.86897
729.89761
738.28343
745.24311
750.95697
755.56503
759.15055
761.78654
763.52056
764.37809
693.70413
704.34357
714.62114
724.07409
732.52183
739.90678
746.23192
751.54823
755.91106
759.36301
761.92257
763.61654
764.45742
703.91698
711.86143
719.93217
727.71448
734.95003
741.4904
747.26211
752.21252
756.33931
759.63895
762.11305
763.7552
764.57221
708.98836
715.77003
722.8214
729.78175
736.38913
742.46724
747.90978
752.64531
756.62704
759.83593
762.24762
763.85324
764.65516
)
;
        refGradient     uniform 0;
        valueFraction   uniform 0.99248593;
        value           nonuniform List<scalar> 
130
(
711.05391
717.93389
725.06123
732.22208
738.96757
745.09588
750.52364
755.18231
759.05112
762.13808
764.47315
766.03694
766.82946
706.11815
714.15197
722.28696
730.25396
737.56467
744.11918
749.83948
754.72942
758.73368
761.90492
764.29081
765.88975
766.69767
696.0478
706.76406
717.07728
726.64088
735.09349
742.43627
748.6991
753.94753
758.19831
761.52062
763.99417
765.63686
766.45903
680.83209
696.64428
710.47443
722.29159
732.27701
740.58887
747.46205
753.09554
757.60752
761.10721
763.67575
765.36524
766.20235
662.58942
686.78798
704.85073
718.91662
730.20071
739.2537
746.58161
752.48018
757.16342
760.77384
763.41095
765.13856
765.98506
662.36511
686.53495
704.58541
718.65889
729.98186
739.04195
746.38038
752.29611
757.01436
760.65091
763.30506
765.04654
765.90433
680.40841
696.05097
709.83074
721.6178
731.64332
739.9855
746.90375
752.58341
757.1811
760.7411
763.35996
765.0846
765.93012
695.65023
706.22849
716.42987
725.8122
734.21415
741.57368
747.85789
753.14149
757.4838
760.93687
763.48652
765.17921
766.01256
705.81151
713.70551
721.72009
729.44237
736.62253
743.1158
748.87332
753.79261
757.90572
761.19302
763.67083
765.3073
766.11593
710.85885
717.59901
724.60572
731.5146
738.0707
744.09842
749.50545
754.22148
758.18286
761.38834
763.79364
765.39049
766.1874
)
;
        Tnbr            T;
        thicknessLayers List<scalar> 0();
        kappaLayers     List<scalar> 0();
        kappaMethod     fluidThermo;
        kappa           none;
        alphaAni        none;
        alpha           none;
        field           T;
    }
    bottomWater_to_leftSolid
    {
        type            compressible::turbulentTemperatureCoupledBaffleMixed;
        refValue        nonuniform List<scalar> 
130
(
793.83408
793.81415
793.75943
793.66208
793.5188
793.33372
793.10351
792.833
792.53024
792.23017
791.95737
791.73472
791.61259
793.91468
793.89154
793.8354
793.73551
793.58745
793.39694
793.15563
792.86908
792.5345
792.21558
791.93698
791.71143
791.58825
794.02141
793.99045
793.92568
793.81196
793.6425
793.43182
793.16994
792.85958
792.50209
792.1587
791.85533
791.60859
791.47246
794.11946
794.06923
793.99317
793.85027
793.64622
793.40072
793.10796
792.76492
792.37193
791.98363
791.65557
791.39998
791.24432
794.14093
794.08035
793.975
793.81646
793.59243
793.31965
792.99326
792.61011
792.17302
791.74585
791.39267
791.12431
790.95882
794.06391
794.0017
793.8792
793.70538
793.47742
793.18976
792.82933
792.40163
791.97687
791.59143
791.27551
791.04767
790.91054
793.94737
793.87881
793.75534
793.5876
793.37589
793.10157
792.75058
792.37029
792.01064
791.68543
791.39704
791.18261
791.0715
793.80388
793.74331
793.64124
793.49292
793.29877
793.05332
792.75711
792.4483
792.15002
791.87979
791.62828
791.42393
791.31415
793.66802
793.6109
793.51304
793.38162
793.22331
793.03322
792.80207
792.54186
792.27543
792.03751
791.80536
791.61994
791.51475
793.57955
793.52717
793.44511
793.34001
793.20939
793.04286
792.83103
792.58604
792.34307
792.1135
791.90297
791.7369
791.6395
)
;
        refGradient     uniform 0;
        valueFraction   uniform 0.99248593;
        value           nonuniform List<scalar> 
130
(
795.26544
795.25214
795.19972
795.10251
794.95467
794.76968
794.53437
794.25869
793.94038
793.62067
793.31924
793.05015
792.91452
795.36318
795.34356
795.2936
795.19747
795.04739
794.86352
794.61742
794.33108
793.94489
793.60409
793.31467
793.05201
792.91897
795.48267
795.45181
795.39408
795.28698
795.10812
794.90454
794.64104
794.32996
793.93008
793.56958
793.24951
792.95353
792.80028
795.61269
795.53561
795.48889
795.33431
795.10735
794.85924
794.56661
794.22479
793.79566
793.35655
793.01024
792.72458
792.51753
795.64679
795.56541
795.45661
795.30407
795.05658
794.77656
794.44776
794.06338
793.5638
793.05372
792.66297
792.35598
792.13158
795.55179
795.48576
795.34494
795.15849
794.91956
794.62342
794.23589
793.73245
793.2667
792.85156
792.52173
792.29546
792.12507
795.43955
795.35161
795.20494
795.02137
794.80968
794.52868
794.12146
793.70346
793.33798
793.01257
792.69028
792.44841
792.33918
795.27686
795.19726
795.09514
794.93908
794.73408
794.46996
794.13738
793.81862
793.51878
793.26368
792.99191
792.74108
792.60756
795.12692
795.04952
794.93162
794.78655
794.63041
794.4488
794.21444
793.94274
793.65363
793.44325
793.17817
792.96152
792.82774
795.02425
794.94656
794.85593
794.7553
794.63476
794.47305
794.2467
793.97356
793.73008
793.50093
793.27606
793.09278
792.97104
)
;
        Tnbr            T;
        thicknessLayers List<scalar> 0();
        kappaLayers     List<scalar> 0();
        kappaMethod     fluidThermo;
        kappa           none;
        alphaAni        none;
        alpha           none;
        field           T;
    }
    bottomWater_to_heater
    {
        type            compressible::turbulentTemperatureCoupledBaffleMixed;
        refValue        nonuniform List<scalar> 
92
(
692.63817
694.43671
697.95849
702.98557
684.51344
686.61163
690.80134
696.81485
667.28894
670.0303
675.60994
683.83197
343.63011
340.76062
340.81578
343.74466
415.85195
412.29585
412.54362
416.43306
476.4984
473.41734
474.10157
478.15928
527.0109
524.93793
526.67871
531.35513
639.06478
567.71717
642.55721
567.44955
650.07853
571.5598
662.21453
578.80828
343.63011
343.74466
415.85195
416.43306
476.4984
478.15928
527.0109
531.35513
567.71717
578.80828
343.62569
343.62569
340.77041
340.82301
343.72462
343.72462
415.82854
415.82854
412.2997
412.54047
416.39469
416.39469
476.45735
476.45735
473.41405
474.09037
478.10316
478.10316
527.06006
527.06006
524.95747
526.67337
531.29569
531.29569
567.79312
567.79312
567.47667
571.54402
578.72543
578.72543
639.23245
642.64487
650.05045
662.04488
667.41536
670.12409
675.57841
683.64622
684.61795
686.69635
690.78311
696.67535
692.72023
694.49046
697.95755
702.90515
)
;
        refGradient     uniform 0;
        valueFraction   nonuniform List<scalar> 
92
(
0.99248593
0.99248593
0.99248593
0.99248593
0.99248593
0.99248593
0.99248593
0.99248593
0.99248593
0.99248593
0.99248593
0.99248593
0.99248593
0.99248593
0.99248593
0.99248593
0.99248593
0.99248593
0.99248593
0.99248593
0.99248593
0.99248593
0.99248593
0.99248593
0.99248593
0.99248593
0.99248593
0.99248593
0.99248593
0.99248593
0.99248593
0.99248593
0.99248593
0.99248593
0.99248593
0.99248593
0.99248593
0.99248593
0.99248593
0.99248593
0.99248593
0.99248593
0.99248593
0.99248593
0.99248593
0.99248593
0.99248593
0.99248593
0.99248593
0.99248593
0.99248593
0.99248593
0.99248593
0.99248593
0.99248593
0.99248593
0.99248593
0.99248593
0.99248593
0.99248593
0.99248593
0.99248593
0.99248593
0.99248593
0.99248593
0.99248593
0.99248593
0.99248593
0.99248593
0.99248593
0.99248593
0.99248593
0.99248593
0.99248593
0.99248593
0.99248593
0.99248593
0.99248593
0.99248593
0.99248593
0.99248593
0.99248593
0.99248593
0.99248593
0.99248593
0.99248593
0.99248593
0.99248593
0.99248593
0.99248593
0.99248593
0.99248593
)
;
        value           nonuniform List<scalar> 
92
(
694.66851
696.43437
699.91335
704.89601
686.62645
688.63117
692.79937
698.78427
669.5007
672.15028
677.71265
685.89166
348.19867
345.33418
345.38271
348.36496
419.87001
416.34898
416.5924
420.46714
480.10131
477.01684
477.66329
481.71954
530.22246
528.14631
529.86742
534.52378
641.35217
570.54067
644.84654
570.30324
652.32995
574.40122
664.39819
581.61867
348.28674
348.32827
419.95478
420.48627
480.1097
481.72744
530.21721
534.50329
570.56738
581.57039
348.26303
348.22888
345.3928
345.44356
348.28701
348.32228
419.86826
419.93472
416.39563
416.61459
420.41398
420.42544
479.9814
480.10017
477.04085
477.67167
481.62787
481.64077
530.31017
530.31777
528.19629
529.90415
534.39321
534.47387
570.68416
570.72019
570.36889
574.39357
581.41545
581.51505
641.62271
644.97226
652.31009
664.20843
669.62136
672.29427
677.67452
685.66184
686.70428
688.74467
692.75962
698.61494
694.72313
696.45901
699.89893
704.8157
)
;
        Tnbr            T;
        thicknessLayers List<scalar> 0();
        kappaLayers     List<scalar> 0();
        kappaMethod     fluidThermo;
        kappa           none;
        alphaAni        none;
        alpha           none;
        field           T;
    }
}


// ************************************************************************* //
