/*--------------------------------*- C++ -*----------------------------------*\
| =========                 |                                                 |
| \\      /  F ield         | OpenFOAM: The Open Source CFD Toolbox           |
|  \\    /   O peration     | Version:  v2012                                 |
|   \\  /    A nd           | Website:  www.openfoam.com                      |
|    \\/     M anipulation  |                                                 |
\*---------------------------------------------------------------------------*/
FoamFile
{
    version     2.0;
    format      ascii;
    class       volScalarField;
    location    "450/rightSolid";
    object      T;
}
// * * * * * * * * * * * * * * * * * * * * * * * * * * * * * * * * * * * * * //

dimensions      [0 0 0 1 0 0 0];


internalField   nonuniform List<scalar> 
130
(
753.03119
761.01109
769.35703
777.65085
785.57937
792.90782
799.4752
805.18875
809.98614
813.84966
816.75633
818.69608
819.66612
747.15876
756.48967
766.01426
775.24946
783.88626
791.73321
798.67374
804.64771
809.62091
813.59727
816.57807
818.56292
819.5536
735.31782
747.73921
759.79619
770.94302
780.94707
789.74784
797.34709
803.7575
809.02461
813.19328
816.30248
818.36462
819.39321
717.60931
735.85576
751.99841
765.86642
777.65156
787.60681
795.95178
802.84931
808.43569
812.81522
816.06049
818.19984
819.26364
696.71725
724.57656
745.59372
762.08188
775.34453
786.16682
795.03626
802.2656
808.06702
812.59235
815.91458
818.09743
819.18009
696.64234
724.51502
745.52012
762.00026
775.26572
786.09577
794.97619
802.21295
808.0293
812.55024
815.86994
818.05265
819.13644
717.17583
735.49279
751.68976
765.58958
777.39074
787.36423
795.73424
802.65522
808.27064
812.66512
815.91081
818.05473
819.12296
734.56751
747.07986
759.21447
770.42238
780.47258
789.30417
796.93303
803.38212
808.68841
812.88884
816.01819
818.0978
819.13805
746.20597
755.62817
765.23796
774.55348
783.25273
791.14246
798.12185
804.13695
809.16149
813.19301
816.21599
818.23122
819.24125
751.99606
760.05614
768.48889
776.86679
784.85818
792.23484
798.85267
804.62402
809.4895
813.41551
816.37646
818.35215
819.34284
)
;

boundaryField
{
    maxX
    {
        type            zeroGradient;
    }
    minZ
    {
        type            zeroGradient;
    }
    maxZ
    {
        type            zeroGradient;
    }
    rightSolid_to_bottomWater
    {
        type            compressible::turbulentTemperatureCoupledBaffleMixed;
        refValue        nonuniform List<scalar> 
130
(
937.65542
936.81172
935.67814
934.08088
934.46626
935.27498
935.02502
936.09843
935.38282
936.80897
937.75272
937.98924
937.86576
939.43956
938.60668
937.13379
934.83237
933.7434
934.39128
935.23882
937.13917
937.01062
937.71962
938.46693
938.72184
938.25477
937.21985
936.11781
934.77446
934.08342
932.56943
933.03013
936.25785
936.53704
936.69459
936.5378
938.25541
938.82288
938.96283
930.15479
929.22451
928.73835
928.80471
929.3694
930.68634
933.54938
934.49402
934.91804
935.41241
938.53546
938.84166
939.0226
912.78004
920.06758
929.36558
932.68533
933.12866
933.45555
934.08886
934.67279
934.53989
938.62934
939.25626
939.38516
939.19202
925.27308
931.45184
933.13449
933.81956
934.63396
935.32134
936.64503
935.99586
938.97
939.6314
939.7116
939.63119
939.54609
929.86473
933.02588
935.10615
935.02485
933.30387
933.97231
937.07003
936.81437
938.88979
939.16975
939.41173
939.65758
939.95056
934.42607
936.88221
936.79988
936.50562
935.57141
934.27767
935.32317
936.22208
936.58601
936.33344
936.67818
937.20303
937.83028
938.4507
938.52182
936.99199
936.54391
936.39228
935.50779
934.96363
934.93391
934.71828
937.48685
938.20872
938.35624
938.80994
940.04196
936.7651
935.40978
935.68348
935.66323
935.03922
934.43857
935.21491
936.30791
937.9272
940.00139
939.87545
940.26259
)
;
        refGradient     uniform 0;
        valueFraction   nonuniform List<scalar> 
130
(
0.0075140686
0.0075140686
0.0075140686
0.0075140686
0.0075140686
0.0075140686
0.0075140686
0.0075140686
0.0075140686
0.0075140686
0.0075140686
0.0075140686
0.0075140686
0.0075140686
0.0075140686
0.0075140686
0.0075140686
0.0075140686
0.0075140686
0.0075140686
0.0075140686
0.0075140686
0.0075140686
0.0075140686
0.0075140686
0.0075140686
0.0075140686
0.0075140686
0.0075140686
0.0075140686
0.0075140686
0.0075140686
0.0075140686
0.0075140686
0.0075140686
0.0075140686
0.0075140686
0.0075140686
0.0075140686
0.0075140686
0.0075140686
0.0075140686
0.0075140686
0.0075140686
0.0075140686
0.0075140686
0.0075140686
0.0075140686
0.0075140686
0.0075140686
0.0075140686
0.0075140686
0.0075140686
0.0075140686
0.0075140686
0.0075140686
0.0075140686
0.0075140686
0.0075140686
0.0075140686
0.0075140686
0.0075140686
0.0075140686
0.0075140686
0.0075140686
0.0075140686
0.0075140686
0.0075140686
0.0075140686
0.0075140686
0.0075140686
0.0075140686
0.0075140686
0.0075140686
0.0075140686
0.0075140686
0.0075140686
0.0075140686
0.0075140686
0.0075140686
0.0075140686
0.0075140686
0.0075140686
0.0075140686
0.0075140686
0.0075140686
0.0075140686
0.0075140686
0.0075140686
0.0075140686
0.0075140686
0.0075140686
0.0075140686
0.0075140686
0.0075140686
0.0075140686
0.0075140686
0.0075140686
0.0075140686
0.0075140686
0.0075140686
0.0075140686
0.0075140686
0.0075140686
0.0075140686
0.0075140686
0.0075140686
0.0075140686
0.0075140686
0.0075140686
0.0075140686
0.0075140686
0.0075140686
0.0075140686
0.0075140686
0.0075140686
0.0075140686
0.0075140686
0.0075140686
0.0075140686
0.0075140686
0.0075140686
0.0075140686
0.0075140686
0.0075140686
0.0075140686
0.0075140686
0.0075140686
0.0075140686
0.0075140686
)
;
        value           nonuniform List<scalar> 
130
(
754.41804
762.33163
770.60634
778.82586
786.69772
793.9772
800.49337
806.17203
810.92799
814.77319
817.6651
819.59204
820.55386
748.6031
757.85766
767.29963
776.44816
785.0119
792.80477
799.69952
805.64289
810.57773
814.52953
817.49353
819.46538
820.44512
736.83443
749.15424
761.11056
772.16846
782.08599
790.8241
798.39049
804.75482
809.98353
814.11968
817.21842
819.26933
820.29124
719.20588
737.30824
753.32595
767.09028
778.79115
788.68152
796.98528
803.83809
809.38567
813.73601
816.98035
819.10593
820.16311
698.34025
726.04493
746.97395
763.36321
776.52959
787.27307
796.08066
803.26008
809.01692
813.53898
816.84096
819.00838
820.08145
698.35968
726.0693
746.92919
763.29068
776.46262
787.21651
796.04019
803.21773
809.01275
813.5047
816.80007
818.96579
820.0408
718.77332
736.97637
753.06726
766.86206
778.56164
788.46524
796.7957
803.6628
809.25164
813.61524
816.83838
818.96806
820.03047
736.06853
748.5053
760.54812
771.66963
781.63732
790.39287
797.97232
804.37976
809.64894
813.81592
816.92436
818.99233
820.02949
747.64973
757.00166
766.52777
775.76996
784.40273
792.22656
799.14947
805.1192
810.10439
814.12643
817.13215
819.13337
820.13922
753.40819
761.38312
769.74241
778.05945
785.99065
793.30722
799.87084
805.6047
810.44187
814.35057
817.30486
819.26478
820.25094
)
;
        Tnbr            T;
        thicknessLayers List<scalar> 0();
        kappaLayers     List<scalar> 0();
        kappaMethod     solidThermo;
        kappa           none;
        alphaAni        none;
        alpha           none;
        field           T;
    }
    rightSolid_to_topAir
    {
        type            compressible::turbulentTemperatureCoupledBaffleMixed;
        refValue        nonuniform List<scalar> 
130
(
490.94227
484.25365
478.39576
473.65563
470.12352
467.78978
466.60271
466.4952
467.41682
469.39467
472.63803
477.72257
485.38597
435.79099
430.48999
427.20663
425.29176
424.34938
424.22351
424.88968
426.34071
428.58007
431.72112
436.21045
443.23231
453.38167
444.73246
436.46925
429.35595
423.46826
418.96477
416.03277
414.75116
415.02025
416.59966
419.28513
423.2106
429.64043
442.42354
496.93484
497.65042
497.03376
494.87871
491.58828
487.85311
484.19812
480.86956
478.15493
477.18631
480.55976
488.97637
499.39407
502.9016
506.91417
511.1122
515.13427
518.67459
521.52961
523.60827
524.94376
525.7496
526.5804
528.46141
532.71225
540.87675
500.73889
505.19507
509.85553
514.38518
518.44431
521.71152
523.94371
525.07439
525.36239
525.52965
526.79922
530.87229
539.68811
498.12815
499.07103
499.15159
497.95477
495.36966
491.50738
486.62187
481.26568
476.53272
474.16789
476.26044
483.81646
495.31941
446.99722
437.9344
430.24909
423.87145
418.71977
414.83342
412.34692
411.36014
411.8706
413.8114
417.17805
422.80035
432.58028
438.1224
432.58463
429.17221
427.22253
426.22765
425.8841
426.06185
426.75218
428.03612
430.11546
433.38662
438.83436
448.69951
491.94229
485.35142
479.5626
474.87763
471.36367
468.96155
467.57062
467.10581
467.53815
468.93948
471.54336
475.90805
482.97883
)
;
        refGradient     uniform 0;
        valueFraction   nonuniform List<scalar> 
130
(
0.00032132529
0.00032132529
0.00032132529
0.00032132529
0.00032132529
0.00032132529
0.00032132529
0.00032132529
0.00032132529
0.00032132529
0.00032132529
0.00032132529
0.00032132529
0.00032132529
0.00032132529
0.00032132529
0.00032132529
0.00032132529
0.00032132529
0.00032132529
0.00032132529
0.00032132529
0.00032132529
0.00032132529
0.00032132529
0.00032132529
0.00032132529
0.00032132529
0.00032132529
0.00032132529
0.00032132529
0.00032132529
0.00032132529
0.00032132529
0.00032132529
0.00032132529
0.00032132529
0.00032132529
0.00032132529
0.00032132529
0.00032132529
0.00032132529
0.00032132529
0.00032132529
0.00032132529
0.00032132529
0.00032132529
0.00032132529
0.00032132529
0.00032132529
0.00032132529
0.00032132529
0.00032132529
0.00032132529
0.00032132529
0.00032132529
0.00032132529
0.00032132529
0.00032132529
0.00032132529
0.00032132529
0.00032132529
0.00032132529
0.00032132529
0.00032132529
0.00032132529
0.00032132529
0.00032132529
0.00032132529
0.00032132529
0.00032132529
0.00032132529
0.00032132529
0.00032132529
0.00032132529
0.00032132529
0.00032132529
0.00032132529
0.00032132529
0.00032132529
0.00032132529
0.00032132529
0.00032132529
0.00032132529
0.00032132529
0.00032132529
0.00032132529
0.00032132529
0.00032132529
0.00032132529
0.00032132529
0.00032132529
0.00032132529
0.00032132529
0.00032132529
0.00032132529
0.00032132529
0.00032132529
0.00032132529
0.00032132529
0.00032132529
0.00032132529
0.00032132529
0.00032132529
0.00032132529
0.00032132529
0.00032132529
0.00032132529
0.00032132529
0.00032132529
0.00032132529
0.00032132529
0.00032132529
0.00032132529
0.00032132529
0.00032132529
0.00032132529
0.00032132529
0.00032132529
0.00032132529
0.00032132529
0.00032132529
0.00032132529
0.00032132529
0.00032132529
0.00032132529
0.00032132529
0.00032132529
0.00032132529
0.00032132529
)
;
        value           nonuniform List<scalar> 
130
(
752.94654
760.92172
769.26309
777.55275
785.47761
792.80297
799.36787
805.07953
809.87567
813.73858
816.64535
818.58609
819.55828
747.05824
756.38446
765.90495
775.13659
783.77033
791.61474
798.55325
804.52577
809.49807
813.47416
816.45543
818.4419
819.43552
735.22395
747.63873
759.68958
770.83095
780.83037
789.62738
797.22377
803.63219
808.89811
813.06629
816.17574
818.23929
819.27166
717.53789
735.77871
751.91598
765.77888
777.55921
787.51009
795.85119
802.74544
808.32915
812.70695
815.95226
818.09363
819.16044
696.65445
724.50605
745.51773
762.00193
775.26152
786.0813
794.94859
802.17605
807.97587
812.50002
815.82179
818.00531
819.09024
696.57878
724.44389
745.44372
761.92005
775.18259
786.01026
794.88859
802.12342
807.93802
812.45757
815.77663
817.95996
819.04624
717.10477
735.41612
751.60791
765.50291
777.29947
787.26855
795.63436
802.55144
808.16356
812.5559
815.80125
817.94692
819.01852
734.47437
746.97977
759.10803
770.31031
780.35565
789.1832
796.80887
803.25562
808.5604
812.76011
815.88956
817.97034
819.01341
746.10619
755.52357
765.12921
774.44115
783.1373
791.02442
798.00168
804.01511
809.03848
813.06938
816.09247
818.10882
819.12171
751.91164
759.96704
768.39531
776.76905
784.75675
792.13029
798.74559
804.51497
809.37906
813.30428
816.26513
818.24161
819.23426
)
;
        Tnbr            T;
        thicknessLayers List<scalar> 0();
        kappaLayers     List<scalar> 0();
        kappaMethod     solidThermo;
        kappa           none;
        alphaAni        none;
        alpha           none;
        field           T;
    }
    rightSolid_to_heater
    {
        type            compressible::turbulentTemperatureCoupledBaffleMixed;
        refValue        nonuniform List<scalar> 10(745.91794 738.68425 723.60274 698.73633 657.51656 657.40522 698.23566 722.76686 737.63366 744.79327);
        refGradient     uniform 0;
        valueFraction   nonuniform List<scalar> 10(0.50000003 0.50000003 0.50000003 0.50000003 0.50000003 0.50000003 0.50000003 0.50000003 0.50000003 0.50000003);
        value           nonuniform List<scalar> 10(749.47435 742.92127 729.46003 708.17256 677.11665 677.02347 707.70541 728.66682 741.91942 748.39424);
        Tnbr            T;
        thicknessLayers List<scalar> 0();
        kappaLayers     List<scalar> 0();
        kappaMethod     solidThermo;
        kappa           none;
        alphaAni        none;
        alpha           none;
        field           T;
    }
}


// ************************************************************************* //
