/*--------------------------------*- C++ -*----------------------------------*\
| =========                 |                                                 |
| \\      /  F ield         | OpenFOAM: The Open Source CFD Toolbox           |
|  \\    /   O peration     | Version:  v2012                                 |
|   \\  /    A nd           | Website:  www.openfoam.com                      |
|    \\/     M anipulation  |                                                 |
\*---------------------------------------------------------------------------*/
FoamFile
{
    version     2.0;
    format      ascii;
    class       volScalarField;
    location    "38";
    object      p;
}
// * * * * * * * * * * * * * * * * * * * * * * * * * * * * * * * * * * * * * //

dimensions      [0 2 -2 0 0 0 0];


internalField   nonuniform List<scalar> 
64000
(
-6.27598e-22
-4.57541e-21
-3.19805e-21
-5.04132e-21
-9.14223e-21
-3.43691e-21
-5.33098e-21
-4.93034e-21
-5.72803e-21
-5.88229e-21
-4.28087e-21
-7.47442e-21
-5.2666e-21
-7.37948e-21
-4.68616e-21
-5.8439e-21
-1.57263e-21
-1.22188e-21
-1.86361e-21
-2.81835e-21
-1.97862e-21
-2.65049e-21
-2.93657e-21
-2.54236e-21
-3.18779e-21
-1.21895e-21
7.46473e-22
-5.57673e-21
-3.05526e-21
-2.30037e-21
-3.11252e-21
-1.20659e-21
-7.55411e-22
-3.92585e-22
-1.69964e-21
-5.43618e-21
-5.29315e-22
4.15593e-23
-7.59743e-22
-5.69664e-22
-7.76289e-21
-1.16782e-20
-1.10487e-20
-8.39798e-21
-1.14063e-20
-1.18807e-20
-1.0261e-20
-6.98393e-21
-4.50634e-21
-1.01344e-20
-1.22113e-20
-1.21938e-20
-6.49723e-21
-6.7235e-21
-7.49247e-21
-6.75646e-21
-4.31543e-21
1.17342e-21
-1.26991e-21
-6.35385e-21
-3.56657e-22
-3.81577e-21
-6.34862e-21
-9.61291e-21
-4.83346e-21
-3.09281e-21
-3.94332e-21
-5.75706e-21
-4.44887e-21
-2.74581e-21
1.32955e-22
-9.1099e-22
-4.85371e-21
-2.85563e-21
-7.53666e-22
-2.13861e-21
-1.42195e-21
1.38883e-21
-1.704e-21
-2.31274e-21
-6.17553e-21
-9.5446e-21
-1.30439e-20
-1.09218e-20
-1.03294e-20
-1.24456e-20
-1.1652e-20
-8.71671e-21
-1.00849e-20
-1.12201e-20
-9.34516e-21
-9.86969e-21
-9.46674e-21
-6.49984e-21
-4.89531e-21
-2.24553e-21
-9.66718e-21
-4.19568e-21
-3.66306e-22
-1.95663e-21
-3.76484e-21
-6.91592e-21
-6.86608e-21
-7.02314e-21
-3.7464e-21
-4.43206e-21
-4.64488e-21
-5.86251e-21
-2.58661e-21
-3.81522e-21
-2.92103e-21
-1.29389e-21
-3.45476e-21
-7.56243e-22
-1.69025e-21
-3.61572e-21
6.1757e-22
2.02592e-21
-4.4518e-22
1.37157e-22
-9.39464e-21
-9.76333e-21
-1.11177e-20
-1.52808e-20
-1.28278e-20
-1.52029e-20
-1.37674e-20
-8.54482e-21
-1.1253e-20
-1.20288e-20
-1.15119e-20
-9.69348e-21
-1.02763e-20
-7.20427e-21
-6.58974e-21
-3.85502e-21
-5.54922e-21
-5.27793e-21
2.88857e-23
-1.56798e-21
-5.21822e-21
-5.84475e-21
-9.97088e-21
-8.54685e-21
-8.64163e-21
-1.21509e-21
-4.1473e-21
-3.36554e-21
-3.67966e-21
-4.96331e-21
-1.66843e-21
-1.30422e-21
-2.16185e-21
-1.55898e-21
-2.16586e-21
-2.50495e-21
-4.79676e-22
5.55413e-22
-1.84461e-21
-1.43303e-22
-1.61751e-20
-1.08237e-20
-1.18369e-20
-1.38829e-20
-1.28232e-20
-1.57212e-20
-1.28548e-20
-8.65007e-21
-8.47606e-21
-1.35526e-20
-1.26728e-20
-8.61042e-21
-8.24945e-21
-5.93395e-21
-1.05606e-20
-1.20223e-20
-4.60991e-21
-3.07654e-21
-2.90347e-21
-2.38996e-21
-4.92302e-21
-6.22126e-21
-9.23641e-21
-8.76968e-21
-5.89131e-21
-2.79227e-21
-3.26428e-21
-4.19316e-21
-6.49795e-21
-2.27717e-21
-1.24136e-21
7.31819e-22
-1.24879e-21
-8.70091e-22
-3.84417e-21
-3.28678e-21
-1.01959e-21
-9.63901e-22
7.79243e-22
-1.25917e-21
-1.36712e-20
-1.17473e-20
-1.05035e-20
-1.47895e-20
-1.30008e-20
-1.28859e-20
-1.01413e-20
-1.35474e-20
-1.30731e-20
-1.28491e-20
-1.12764e-20
-8.74048e-21
-9.51675e-21
-5.59305e-21
-9.64582e-21
-1.10309e-20
-5.48798e-21
-3.47772e-21
-2.91637e-21
-5.22345e-21
-3.71423e-21
-4.71588e-21
-9.55141e-21
-9.24927e-21
-8.84329e-21
-1.11299e-21
-3.56476e-21
-2.08769e-21
-4.85596e-21
-3.75685e-21
-3.91274e-21
-2.80854e-21
-1.41129e-21
-1.08992e-21
-2.70328e-21
-8.98463e-22
-2.29735e-21
-1.09234e-21
-1.59086e-22
8.49746e-22
-1.45288e-20
-1.5485e-20
-9.6183e-21
-1.19864e-20
-1.31945e-20
-1.34833e-20
-1.0582e-20
-1.24995e-20
-1.38481e-20
-1.27103e-20
-1.10755e-20
-1.081e-20
-7.47635e-21
-8.59416e-21
-9.20083e-21
-9.54004e-21
-6.5633e-21
-1.76175e-21
-2.52213e-21
-4.71528e-21
-5.76398e-21
-9.5615e-21
-1.12332e-20
-1.01787e-20
-4.20547e-21
-5.44825e-21
-5.00704e-21
-1.5419e-22
-3.01573e-21
-2.21176e-21
-5.9845e-21
-4.59931e-21
6.85456e-22
-7.65108e-22
-2.48601e-21
-3.5263e-21
-1.5537e-21
-6.40556e-22
-1.97582e-21
-8.71497e-22
-1.483e-20
-1.46862e-20
-1.16489e-20
-1.102e-20
-1.24678e-20
-1.19694e-20
-1.04425e-20
-1.78965e-20
-1.54456e-20
-1.2961e-20
-1.01467e-20
-9.45428e-21
-8.59826e-21
-1.04337e-20
-8.21499e-21
-9.29419e-21
-5.67591e-21
-3.93317e-21
-6.4155e-21
-3.85063e-21
-4.4969e-21
-9.58185e-21
-9.92653e-21
-8.87461e-21
-5.18158e-21
-6.67514e-21
-4.59174e-21
-8.60631e-22
-2.93272e-21
-3.9841e-21
-5.82621e-21
-4.02105e-21
-1.95597e-22
-2.33182e-21
-5.4199e-21
-5.87044e-21
-1.41401e-21
-4.14769e-23
-3.23497e-22
-1.42699e-21
-1.97315e-20
-1.67496e-20
-1.10648e-20
-1.12144e-20
-1.33799e-20
-1.51598e-20
-1.32498e-20
-1.27202e-20
-1.36721e-20
-1.61443e-20
-8.81716e-21
-8.76131e-21
-8.30019e-21
-1.0951e-20
-1.16701e-20
-9.53106e-21
-4.58519e-21
-6.65082e-22
-7.36543e-21
-8.50506e-21
-3.94502e-21
-8.59333e-21
-1.18402e-20
-8.25691e-21
-3.59148e-21
-5.16185e-21
-7.02289e-21
-4.72136e-21
-2.04446e-21
-5.90934e-21
-3.9147e-21
-2.12635e-21
5.47565e-23
-2.65263e-21
-6.46912e-21
-3.81842e-21
-6.21248e-22
6.30414e-23
-1.04454e-21
-2.29192e-21
-1.22986e-20
-1.3216e-20
-1.27114e-20
-1.12394e-20
-1.52616e-20
-1.56987e-20
-1.30976e-20
-1.26693e-20
-1.33529e-20
-1.44456e-20
-1.30123e-20
-7.05638e-21
-8.06016e-21
-1.15119e-20
-1.18157e-20
-8.40896e-21
-6.06254e-21
-3.95069e-21
-1.63945e-21
-4.41661e-21
-7.05198e-21
-6.40407e-21
-1.06245e-20
-9.17529e-21
-7.78749e-21
-4.73648e-21
-3.51649e-21
-2.42308e-21
-4.97988e-21
-4.84006e-21
-2.05135e-21
-1.52384e-21
-2.27605e-21
-2.52525e-21
-6.54998e-21
-4.84136e-21
-1.91283e-21
-2.96412e-22
-8.00313e-22
-2.04447e-22
-1.07957e-20
-1.41018e-20
-1.35076e-20
-1.57651e-20
-1.29262e-20
-1.46863e-20
-1.7634e-20
-1.08361e-20
-1.28984e-20
-1.63455e-20
-1.14498e-20
-6.59274e-21
-6.807e-21
-1.09034e-20
-1.05112e-20
-1.14214e-20
-8.03179e-21
-1.3603e-21
8.53563e-22
-4.01037e-21
-9.18228e-21
-1.16824e-20
-9.10425e-21
-9.16612e-21
-8.75003e-21
-4.68814e-21
3.11995e-23
-1.71254e-21
-4.52434e-21
-7.52602e-21
-2.77411e-21
5.46774e-22
-5.28532e-21
-2.61889e-21
-3.80939e-21
-5.20371e-21
-1.44564e-21
-1.38999e-21
-1.50568e-21
-8.60816e-22
-1.17946e-20
-1.57685e-20
-1.54937e-20
-1.40422e-20
-1.41501e-20
-1.71821e-20
-1.23818e-20
-1.31249e-20
-1.07044e-20
-1.41028e-20
-1.60921e-20
-7.92407e-21
-5.58335e-21
-9.8025e-21
-1.20847e-20
-1.12722e-20
-7.58525e-21
-1.65544e-21
-2.62936e-21
-3.64014e-21
-7.47363e-21
-1.18219e-20
-1.00265e-20
-9.76867e-21
-9.4361e-21
-2.15755e-21
-2.18554e-21
-3.41724e-21
-4.86759e-21
-3.57198e-21
7.19915e-23
-2.4637e-21
-4.0465e-21
-3.41721e-21
-3.28774e-21
-3.13947e-21
-9.97527e-22
-1.55553e-21
-2.64491e-21
-3.0871e-21
-1.71177e-20
-1.61687e-20
-1.51887e-20
-1.44451e-20
-1.66011e-20
-1.59268e-20
-1.49963e-20
-1.47907e-20
-1.43752e-20
-1.28975e-20
-1.27885e-20
-8.09824e-21
-7.73778e-21
-1.01437e-20
-1.00687e-20
-9.36073e-21
-7.01689e-21
-3.18248e-21
-2.32413e-21
-6.58634e-21
-8.42524e-21
-8.95996e-21
-9.10535e-21
-1.00952e-20
-5.50556e-21
-2.03138e-21
-2.65973e-21
-5.50892e-21
-3.09532e-21
-2.65537e-21
-5.45966e-21
-3.32786e-21
1.91094e-22
-5.31353e-21
-6.5889e-21
-2.0971e-21
-9.99677e-22
-2.50444e-21
-1.47074e-21
-2.07984e-21
-1.94824e-20
-1.93125e-20
-1.54701e-20
-1.70313e-20
-1.35469e-20
-1.37342e-20
-1.57622e-20
-1.39136e-20
-1.22828e-20
-1.55217e-20
-1.18398e-20
-1.05092e-20
-1.01398e-20
-1.03844e-20
-9.97365e-21
-9.20511e-21
-6.18676e-21
-1.67894e-21
-2.61257e-21
-5.5059e-21
-9.27334e-21
-1.05312e-20
-1.15588e-20
-9.51059e-21
-4.63042e-21
2.05115e-21
4.77839e-22
-5.60069e-21
-6.31705e-21
7.35741e-22
-3.10602e-21
-6.94744e-21
-2.37621e-21
-2.93891e-21
-5.85653e-21
-2.38473e-21
-3.07311e-21
-1.55587e-21
9.69345e-22
-1.54456e-21
-1.29881e-20
-1.98453e-20
-1.86905e-20
-1.52956e-20
-1.2048e-20
-1.50674e-20
-1.96271e-20
-2.02062e-20
-1.38957e-20
-1.05247e-20
-9.20848e-21
-1.34096e-20
-1.18917e-20
-8.46629e-21
-7.12316e-21
-8.8195e-21
-7.47324e-21
-5.01772e-21
-4.47385e-21
-5.32735e-21
-1.12706e-20
-7.26802e-21
-8.32372e-21
-9.60742e-21
-4.78377e-21
-2.73289e-21
-2.66467e-21
-3.04785e-21
-3.18625e-21
-1.62103e-21
-1.19825e-21
-2.91035e-21
-3.60818e-21
-2.02951e-21
-4.33596e-21
-3.39228e-21
-9.46251e-22
-2.36283e-21
-8.56919e-22
9.076e-22
-1.39466e-20
-1.50244e-20
-1.83407e-20
-1.50902e-20
-1.5932e-20
-1.55868e-20
-1.68551e-20
-1.79025e-20
-1.27191e-20
-9.65045e-21
-1.33413e-20
-1.17155e-20
-1.17115e-20
-9.36714e-21
-1.05379e-20
-1.07791e-20
-6.7663e-21
-6.20161e-21
-2.30986e-21
-6.44415e-21
-1.08603e-20
-9.3908e-21
-8.45775e-21
-5.16365e-21
-2.56966e-21
-4.69429e-21
-5.07562e-21
-2.32178e-21
-2.51862e-21
-1.26447e-21
-2.09441e-21
-2.35382e-21
-3.9733e-21
-3.35243e-21
-6.41783e-21
-4.80512e-21
9.39094e-22
2.57162e-22
-1.76013e-21
3.70293e-22
-1.51142e-20
-1.40864e-20
-1.70636e-20
-1.3023e-20
-1.34626e-20
-1.5893e-20
-1.8628e-20
-1.84728e-20
-1.3918e-20
-1.20152e-20
-1.03704e-20
-1.43803e-20
-7.03731e-21
-1.06922e-20
-1.23891e-20
-9.18101e-21
-8.03011e-21
-6.54055e-21
-6.89135e-21
-4.28221e-21
-1.09988e-20
-8.06353e-21
-8.60854e-21
-4.55251e-21
-3.22507e-21
-1.86791e-21
-4.70592e-21
-6.06736e-21
-2.11863e-21
-3.80523e-21
-4.28127e-22
-4.59791e-21
-4.472e-21
-1.57123e-21
-1.63186e-21
-3.29767e-21
-1.99122e-21
-1.07659e-21
-1.10288e-21
-8.7803e-22
-1.14859e-20
-1.54392e-20
-1.91555e-20
-1.39314e-20
-1.19489e-20
-1.79216e-20
-1.59334e-20
-1.51657e-20
-1.47753e-20
-1.19805e-20
-1.26175e-20
-1.28268e-20
-8.90121e-21
-9.57908e-21
-1.58633e-20
-1.03373e-20
-7.87287e-21
-1.51045e-21
-5.63258e-21
-7.303e-21
-1.46972e-20
-7.95232e-21
-4.04416e-21
-4.03968e-21
-1.56979e-21
-6.92423e-21
-6.2423e-21
-5.43187e-21
-3.69326e-21
-3.17243e-21
-2.44662e-21
-1.1831e-21
-2.56835e-21
-8.27874e-22
-1.22452e-21
-3.91227e-21
-2.23565e-21
-2.01196e-21
9.43583e-23
1.42267e-22
-9.94347e-21
-1.21348e-20
-1.58244e-20
-1.56898e-20
-1.46756e-20
-1.51738e-20
-1.56959e-20
-1.44075e-20
-1.45573e-20
-1.23071e-20
-1.36806e-20
-1.22868e-20
-9.75283e-21
-6.91007e-21
-1.29867e-20
-1.19284e-20
-9.02038e-21
-7.68646e-21
-1.03429e-20
-9.95868e-21
-1.069e-20
-1.80772e-21
-4.40856e-21
-4.851e-21
-2.56523e-21
-4.57066e-21
-6.14241e-21
-3.91758e-21
-2.8121e-21
-3.28731e-21
-5.95229e-21
-1.14453e-21
-1.40408e-21
-1.62828e-21
2.34935e-22
-1.54806e-21
-1.91963e-21
-9.24982e-22
-2.29142e-21
-2.3097e-21
-8.61972e-21
-1.27845e-20
-1.82267e-20
-1.68047e-20
-1.43871e-20
-1.25885e-20
-1.26016e-20
-1.50097e-20
-1.82007e-20
-1.4699e-20
-1.08538e-20
-1.05729e-20
-1.10612e-20
-1.01226e-20
-1.17674e-20
-1.05783e-20
-7.36004e-21
-6.70668e-21
-1.30147e-20
-8.60404e-21
-8.94417e-21
-6.70599e-21
-4.0892e-21
-4.82456e-21
-1.49227e-21
-1.83006e-21
-1.04495e-20
-9.19301e-21
-3.75072e-21
-1.8124e-22
-2.42184e-21
-1.59316e-21
-1.95837e-21
-1.56441e-21
-1.8304e-21
-1.70084e-21
-2.71575e-21
-1.33616e-21
-2.46438e-21
-1.83704e-21
-1.19796e-20
-1.51738e-20
-1.67432e-20
-1.48653e-20
-1.08108e-20
-1.35121e-20
-1.368e-20
-1.2676e-20
-1.52126e-20
-1.49673e-20
-1.52958e-20
-1.33507e-20
-9.30928e-21
-1.31478e-20
-1.15292e-20
-5.74682e-21
-7.33461e-21
-5.55954e-21
-1.08488e-20
-9.30387e-21
-8.20314e-21
-5.57976e-21
-3.2983e-21
-6.5432e-21
-6.42179e-21
-2.89027e-21
-5.56489e-21
-5.38251e-21
-4.03456e-21
-2.32102e-21
-4.17511e-21
-1.87077e-21
-3.3937e-21
2.33525e-22
-1.92722e-21
-4.11689e-21
-2.03271e-21
-1.56185e-21
-4.92782e-22
-2.12265e-21
-1.84087e-20
-1.69207e-20
-1.52503e-20
-1.50465e-20
-1.46689e-20
-1.39363e-20
-1.37785e-20
-1.01593e-20
-1.36948e-20
-1.46299e-20
-1.51132e-20
-1.55542e-20
-1.16588e-20
-1.40159e-20
-1.01111e-20
-7.52809e-21
-6.66927e-21
-5.83543e-21
-9.03848e-21
-9.74556e-21
-7.15234e-21
-2.94854e-21
-4.13528e-21
-5.40019e-21
-5.61523e-21
-4.13931e-21
-5.72886e-21
-7.79053e-21
-4.25385e-21
-1.36515e-21
-3.92962e-21
-4.88296e-22
-8.66349e-23
-1.75335e-21
-4.35482e-21
-6.07404e-21
-8.91456e-22
-1.97833e-21
8.86957e-24
7.35415e-22
-1.81266e-20
-1.96386e-20
-1.44478e-20
-1.47772e-20
-1.54859e-20
-1.67061e-20
-1.30033e-20
-1.03072e-20
-1.56758e-20
-1.1194e-20
-1.4135e-20
-1.62654e-20
-1.24621e-20
-9.17516e-21
-8.50851e-21
-8.25825e-21
-5.98557e-21
-3.99037e-21
-3.99188e-21
-8.55785e-21
-9.18361e-21
-5.50719e-21
-7.67522e-21
-6.80158e-21
-5.86161e-21
-6.3395e-21
-5.16457e-21
-5.02608e-21
-3.41531e-21
-2.46906e-21
-4.00707e-21
-1.33211e-21
-9.61786e-23
-8.62019e-22
-8.71317e-21
-5.18642e-21
-1.5971e-21
-2.22702e-22
-8.8773e-22
-1.89374e-22
-1.42761e-20
-1.52111e-20
-1.77359e-20
-1.41642e-20
-1.47223e-20
-1.61672e-20
-1.49174e-20
-1.47673e-20
-1.17031e-20
-1.29055e-20
-1.53003e-20
-1.55707e-20
-8.14039e-21
-1.2565e-20
-1.27939e-20
-7.36857e-21
-2.8489e-21
-3.46032e-21
-5.9111e-21
-5.06277e-21
-6.74005e-21
-8.34729e-21
-1.04566e-20
-7.91472e-21
-6.43698e-21
-3.01153e-21
-5.77007e-21
-7.61719e-21
-1.08265e-21
-2.38161e-21
-5.57745e-21
-2.61654e-21
2.06805e-22
-5.40027e-21
-8.26246e-21
-5.10669e-21
-2.85344e-21
7.36111e-23
-1.72775e-21
-2.4063e-21
-1.02712e-20
-1.32758e-20
-1.70011e-20
-1.59689e-20
-1.34366e-20
-1.64519e-20
-1.46732e-20
-1.37464e-20
-1.04308e-20
-1.43494e-20
-1.75863e-20
-1.3778e-20
-6.9664e-21
-9.73383e-21
-1.07662e-20
-6.20505e-21
-5.47211e-21
-8.65224e-21
-5.12067e-21
-4.945e-21
-7.03235e-21
-8.06363e-21
-6.48988e-21
-7.38769e-21
-1.08916e-20
-5.15179e-21
-4.12381e-21
-4.4967e-21
-4.32868e-21
-3.91821e-21
-3.03429e-21
-3.49343e-21
-1.96651e-21
-3.97165e-21
-9.11383e-21
-5.28059e-21
-2.80071e-21
-7.02435e-22
-3.56587e-22
-1.26529e-21
-1.44502e-20
-1.66274e-20
-1.62648e-20
-1.32249e-20
-1.21304e-20
-1.4418e-20
-1.45487e-20
-1.69884e-20
-8.86758e-21
-1.17144e-20
-1.91818e-20
-1.55045e-20
-9.37315e-21
-9.72955e-21
-5.60309e-21
-7.4425e-21
-7.85516e-21
-4.66526e-21
-2.31954e-21
-6.45674e-21
-6.07327e-21
-9.32215e-21
-9.36797e-21
-1.11201e-20
-8.64117e-21
-7.87942e-21
-4.84677e-21
-6.21091e-21
-5.00706e-21
-1.54912e-21
-2.1075e-21
-2.76798e-21
-2.29517e-21
-3.60459e-21
-6.01699e-21
-6.29915e-21
-3.95966e-21
-1.04962e-21
3.09895e-23
-1.66795e-22
-1.07727e-20
-1.36647e-20
-1.56679e-20
-1.96702e-20
-1.34727e-20
-1.51425e-20
-1.34112e-20
-1.19135e-20
-9.37625e-21
-1.2741e-20
-1.77988e-20
-1.4141e-20
-8.37356e-21
-8.21373e-21
-7.00517e-21
-1.04479e-20
-7.02954e-21
-4.97899e-21
-5.41289e-22
-4.64228e-21
-3.6751e-21
-9.81463e-21
-8.75392e-21
-8.87409e-21
-9.30539e-21
-8.54606e-21
-4.1034e-21
-2.37956e-21
-7.16057e-21
-2.83242e-21
4.63391e-22
-2.87249e-21
-3.84698e-21
-3.16341e-21
-9.0956e-21
-3.13927e-21
-3.93376e-21
-2.91805e-21
-8.39138e-22
-1.78037e-21
-9.8414e-21
-1.4129e-20
-1.50001e-20
-1.66021e-20
-1.37996e-20
-1.45018e-20
-1.31856e-20
-1.17392e-20
-1.08437e-20
-1.23435e-20
-1.73132e-20
-8.18301e-21
-9.34757e-21
-1.10922e-20
-6.87175e-21
-6.46384e-21
-7.16464e-21
-5.29308e-21
-4.96006e-21
-5.36297e-21
-5.74789e-21
-3.98126e-21
-8.28105e-21
-9.37902e-21
-7.32696e-21
-6.35082e-21
-5.27063e-21
-4.1414e-21
-5.10939e-21
-3.47161e-21
-2.36879e-21
-3.32552e-21
-5.87496e-21
-6.59561e-21
-5.42511e-21
-3.89781e-21
-3.0871e-21
-2.93881e-21
-2.43256e-21
-2.67375e-21
-1.31106e-20
-1.87706e-20
-1.53481e-20
-1.10944e-20
-1.79998e-20
-1.5865e-20
-1.33352e-20
-1.06759e-20
-1.11478e-20
-1.25784e-20
-1.36075e-20
-8.80645e-21
-9.44813e-21
-1.21879e-20
-9.9623e-21
-7.66811e-21
-5.77913e-21
-1.79753e-21
-4.94557e-21
-4.14639e-21
-7.23058e-21
-5.98728e-21
-6.2116e-21
-7.35754e-21
-8.62619e-21
-5.11383e-21
-4.81796e-21
-6.16932e-21
-4.3374e-21
-6.07478e-21
-1.29502e-21
-3.82351e-21
-5.62203e-21
-3.9139e-21
-6.6903e-21
-4.41914e-21
-2.97328e-21
-4.35326e-21
-1.38948e-21
-1.00156e-21
-1.18949e-20
-1.60703e-20
-1.82012e-20
-1.28461e-20
-1.31919e-20
-1.76564e-20
-1.41383e-20
-6.92476e-21
-1.08085e-20
-1.66655e-20
-1.16763e-20
-1.12698e-20
-1.10313e-20
-1.26218e-20
-9.93352e-21
-9.11476e-21
-6.05195e-21
-5.47053e-21
-2.70452e-21
-2.39111e-21
-4.29728e-21
-7.73741e-21
-9.09817e-21
-8.50187e-21
-1.13058e-20
-7.41677e-21
-2.4722e-21
-1.99083e-23
-3.7579e-21
-3.43764e-21
-4.47049e-21
-6.63386e-21
-4.85831e-21
-2.18197e-21
-3.94309e-21
-6.16106e-21
-3.94741e-21
-9.36947e-22
-6.24808e-22
-7.59352e-22
-1.35278e-20
-1.38119e-20
-1.44224e-20
-1.45527e-20
-1.4899e-20
-1.46478e-20
-1.44746e-20
-1.1922e-20
-1.01429e-20
-1.23346e-20
-1.04478e-20
-1.02311e-20
-1.12694e-20
-1.28964e-20
-1.05357e-20
-1.03764e-20
-5.97615e-21
-6.53329e-21
-3.07828e-21
-4.44132e-21
-6.52489e-21
-6.69717e-21
-1.00507e-20
-1.00711e-20
-9.16643e-21
-5.78847e-21
-2.55548e-21
-4.57169e-21
-4.83498e-21
-3.00427e-21
-3.77028e-21
-3.85999e-21
-2.52687e-21
-1.66864e-21
-2.67497e-21
-6.43323e-21
-2.98032e-21
-1.45609e-21
-1.94747e-21
-2.66029e-21
-1.6809e-20
-1.50868e-20
-1.26921e-20
-1.3393e-20
-1.73065e-20
-1.58365e-20
-1.3423e-20
-1.17316e-20
-1.20639e-20
-1.02257e-20
-7.91932e-21
-1.1114e-20
-1.40367e-20
-1.2485e-20
-8.03006e-21
-9.75375e-21
-5.38121e-21
-4.1493e-21
-2.8539e-21
-5.72314e-21
-5.3211e-21
-8.90119e-21
-1.50475e-20
-9.61509e-21
-8.67898e-21
-7.41205e-21
-1.95055e-21
-1.33068e-21
-2.64228e-21
-5.12706e-21
-4.4807e-21
-6.7089e-21
6.00005e-22
-1.89056e-21
-5.38607e-21
-2.62338e-21
-2.19024e-21
4.89539e-23
-1.78789e-21
-3.32267e-21
-1.09095e-20
-1.17691e-20
-1.34786e-20
-1.17632e-20
-1.86698e-20
-1.55606e-20
-1.35269e-20
-1.31999e-20
-1.21546e-20
-1.19234e-20
-1.06378e-20
-7.85299e-21
-1.20011e-20
-1.03489e-20
-6.69129e-21
-9.27793e-21
-8.05346e-21
-5.99584e-21
-4.6167e-21
-1.48314e-21
-5.99827e-21
-9.30167e-21
-1.20153e-20
-1.04326e-20
-9.59953e-21
-7.55448e-21
9.60487e-22
-9.26178e-22
-4.2851e-21
-3.99578e-21
-3.92692e-21
-5.08416e-21
-1.08146e-21
-8.56147e-22
-1.61511e-21
-4.0535e-21
-1.26477e-21
-2.6841e-21
-1.24055e-21
-1.07403e-21
-1.20952e-20
-1.29307e-20
-1.34585e-20
-1.45064e-20
-1.57039e-20
-1.09884e-20
-1.30318e-20
-1.15578e-20
-1.16228e-20
-9.22985e-21
-9.4513e-21
-1.38727e-20
-1.17052e-20
-8.05588e-21
-8.05248e-21
-1.10459e-20
-1.0331e-20
-4.37107e-21
-4.91641e-21
-4.92329e-21
-4.27817e-21
-6.23602e-21
-1.12828e-20
-1.01148e-20
-7.18579e-21
-6.09233e-21
-3.12835e-21
-2.49473e-21
-1.77065e-21
-4.52313e-21
-4.5169e-21
-4.10156e-21
-1.85889e-21
-2.09041e-22
2.33639e-21
-4.19867e-21
-1.81586e-21
1.13919e-21
-2.50502e-21
-2.70045e-21
-1.3375e-20
-1.10242e-20
-1.06536e-20
-1.07838e-20
-1.42962e-20
-1.50165e-20
-1.38182e-20
-1.49407e-20
-1.16959e-20
-9.56846e-21
-6.29529e-21
-1.21622e-20
-6.67037e-21
-6.63282e-21
-8.56972e-21
-1.09426e-20
-1.17507e-20
-5.51265e-21
-4.24802e-21
-4.56766e-21
-4.59528e-21
-8.7453e-21
-8.14472e-21
-7.68863e-21
-8.52246e-21
-5.12283e-21
-4.28654e-21
-7.41595e-21
-1.65501e-21
-3.47455e-21
-5.46137e-21
-4.39347e-21
-3.67044e-21
-2.23965e-21
1.14284e-21
2.60829e-21
-1.19903e-21
4.78215e-22
7.27558e-22
-2.78908e-22
-8.49168e-21
-1.0941e-20
-1.25862e-20
-9.96043e-21
-1.10924e-20
-1.52958e-20
-1.18479e-20
-1.23696e-20
-1.22812e-20
-1.22145e-20
-1.18111e-20
-5.82994e-21
-8.48213e-21
-7.97151e-21
-8.79319e-21
-8.5455e-21
-7.76402e-21
-5.58089e-21
-6.01234e-21
-5.32935e-21
-5.34769e-21
-6.87573e-21
-8.14645e-21
-9.06777e-21
-7.47908e-21
-4.51202e-21
-2.37969e-21
-2.78346e-21
-3.74824e-21
-1.61462e-21
-5.23359e-21
-4.68723e-21
-2.59038e-21
-2.76472e-21
-2.80427e-21
1.51004e-22
1.27956e-21
1.03801e-21
1.41374e-21
-6.50134e-22
-6.92973e-21
-9.77735e-21
-1.16096e-20
-1.08639e-20
-1.00142e-20
-1.34446e-20
-1.2934e-20
-1.02966e-20
-9.8605e-21
-9.95476e-21
-1.01844e-20
-9.19449e-21
-1.15701e-20
-4.71306e-21
-7.82365e-21
-8.73106e-21
-6.08868e-21
-1.28784e-21
-3.34953e-21
-8.54258e-21
-3.79964e-21
-9.26666e-21
-1.01865e-20
-7.28024e-21
-6.81791e-21
-5.92745e-21
-6.05665e-21
2.06146e-22
-1.83906e-21
-1.5073e-21
-5.2763e-21
-3.54306e-21
-4.49525e-21
-2.09082e-21
-1.42252e-21
-3.26987e-22
1.21809e-21
-1.73437e-21
-7.07269e-22
-1.07669e-22
-4.98992e-21
-9.45874e-21
-1.22369e-20
-7.86992e-21
-8.73267e-21
-1.17037e-20
-1.02826e-20
-1.04335e-20
-9.41551e-21
-9.54552e-21
-6.35764e-21
-9.73741e-21
-1.06864e-20
-9.89484e-21
-4.21389e-21
-3.88232e-21
-3.43686e-21
-4.73422e-21
-5.16237e-21
-7.731e-21
-6.72628e-21
-6.88923e-21
-9.14043e-21
-9.89649e-21
-4.14617e-21
-3.91829e-21
-5.44012e-21
-3.73539e-21
2.235e-22
-2.76193e-21
-4.41369e-21
-3.45808e-21
-6.3534e-21
-2.09391e-21
-2.15677e-21
-2.26676e-21
1.33707e-21
3.50309e-21
-2.88434e-22
-6.87144e-22
-6.42676e-21
-9.12383e-21
-1.05312e-20
-6.52963e-21
-5.93416e-21
-1.42106e-20
-1.10437e-20
-6.52604e-21
-9.66641e-21
-9.50085e-21
-6.44827e-21
-6.90006e-21
-7.73409e-21
-7.5597e-21
-7.2807e-21
-4.50904e-21
-4.03776e-21
-2.04928e-21
-5.61948e-21
-5.74738e-21
-3.50156e-21
-6.28301e-21
-7.75236e-21
-1.21235e-20
-8.84501e-21
-4.41686e-21
-3.66308e-21
-8.44595e-22
-2.78149e-21
-2.4717e-21
-1.79004e-21
-3.08359e-21
-3.84406e-21
-1.38392e-21
-1.00062e-21
-4.07593e-21
-2.59774e-22
6.85153e-22
2.13026e-21
5.82901e-22
-5.90276e-21
-6.05095e-21
-6.50407e-21
-3.43886e-21
-4.23969e-21
-3.08502e-21
-8.36134e-21
-4.76697e-21
-6.69998e-21
-6.22893e-21
-2.49138e-21
-2.68638e-21
-6.26251e-21
-5.26783e-21
-3.56503e-21
-4.06671e-21
-1.41633e-21
6.37256e-22
-5.7261e-21
-1.77273e-21
-5.3401e-21
-8.11212e-21
-6.1751e-21
-5.84352e-21
-3.94629e-21
-2.78998e-21
-1.44316e-21
-8.58653e-22
-6.89789e-22
6.98896e-22
-5.99127e-22
-1.21978e-21
-2.39624e-21
-2.17559e-21
1.72946e-22
-4.80243e-21
-1.9183e-21
-5.82577e-22
-7.34749e-22
4.70913e-22
-5.54086e-21
-9.04763e-21
-1.31122e-20
-9.62849e-21
-9.65602e-21
-1.21326e-20
-8.35271e-21
-4.98622e-21
-1.21329e-20
-1.11103e-20
-5.47604e-21
-1.03943e-20
-1.03042e-20
-5.77272e-21
-7.13079e-21
-9.4013e-21
-5.84242e-21
-1.1515e-22
-3.08091e-21
-6.75263e-21
-3.74295e-21
-3.7287e-21
-4.98659e-21
-4.70014e-21
-2.27111e-21
-1.18541e-21
-3.43155e-21
-4.17913e-21
-6.432e-21
-5.59216e-21
-7.24224e-21
-3.03745e-21
-4.89866e-22
4.08439e-23
-3.57696e-21
-4.49456e-21
-1.61629e-23
-3.37103e-21
-1.88915e-21
-1.26396e-22
-1.02361e-20
-1.34982e-20
-1.75188e-20
-1.48714e-20
-1.30246e-20
-1.61407e-20
-1.50173e-20
-1.01215e-20
-9.94906e-21
-1.74424e-20
-1.30824e-20
-1.3539e-20
-1.24495e-20
-1.01298e-20
-1.03933e-20
-9.78127e-21
-7.61727e-21
-5.81294e-21
-6.79351e-21
-6.87932e-21
-6.34482e-21
-6.55101e-21
-7.81229e-21
-1.03789e-20
-3.56279e-21
-3.15728e-21
-3.71037e-21
-3.15392e-21
-9.35771e-21
-4.80185e-21
-3.84853e-21
-2.43827e-21
-2.89588e-21
-1.89744e-21
-6.14873e-21
-3.53276e-21
7.82664e-22
1.71363e-21
-4.0332e-23
1.76252e-22
-1.22143e-20
-1.46314e-20
-1.36997e-20
-1.66312e-20
-1.5479e-20
-1.69429e-20
-1.68972e-20
-1.29646e-20
-1.59936e-20
-1.65135e-20
-1.36523e-20
-1.3522e-20
-1.0763e-20
-8.16476e-21
-9.48542e-21
-1.09838e-20
-1.02889e-20
-8.20022e-21
-4.30356e-21
-6.86659e-21
-6.72691e-21
-4.73286e-21
-5.74698e-21
-7.45165e-21
-7.34966e-21
-4.75506e-21
-5.72262e-21
-5.61554e-21
-5.10959e-21
-6.29941e-21
-7.20494e-21
-3.44118e-21
-1.46208e-21
-1.9256e-21
-4.53397e-21
-1.90843e-21
6.67792e-22
-1.11477e-21
-6.64233e-22
1.0793e-21
-1.70511e-20
-1.58593e-20
-1.54412e-20
-2.07349e-20
-1.65339e-20
-1.6518e-20
-1.69211e-20
-1.49575e-20
-1.5659e-20
-1.47362e-20
-1.57538e-20
-1.63361e-20
-9.89637e-21
-1.05648e-20
-1.20067e-20
-9.42647e-21
-8.91108e-21
-8.59984e-21
-6.70893e-21
-4.99942e-21
-8.26726e-21
-7.72515e-21
-8.44139e-21
-8.48192e-21
-7.11745e-21
-6.22841e-21
-5.80728e-21
-4.85693e-21
-4.61657e-21
-7.48407e-21
-5.39912e-21
-5.08706e-22
-4.45916e-21
-2.76255e-21
-2.93079e-21
-1.10358e-21
4.47589e-22
-1.42392e-21
-1.43038e-21
-4.35667e-22
-1.86579e-20
-1.6413e-20
-1.55607e-20
-1.89183e-20
-1.99392e-20
-1.9851e-20
-1.6058e-20
-1.42279e-20
-1.20667e-20
-1.59983e-20
-1.52816e-20
-1.54324e-20
-9.65203e-21
-1.20239e-20
-1.6216e-20
-1.28867e-20
-8.67215e-21
-8.34294e-21
-6.58843e-21
-6.2352e-21
-7.70645e-21
-7.38643e-21
-8.14608e-21
-9.20618e-21
-8.63544e-21
-5.31635e-21
-6.04163e-21
-6.0909e-21
-4.65809e-21
-4.99718e-21
-5.43001e-21
-3.90785e-21
-1.59354e-21
-1.33017e-21
-2.33621e-21
-1.21797e-21
1.52307e-22
-1.20977e-21
-6.37928e-22
-1.50354e-21
-1.69152e-20
-1.85495e-20
-1.64463e-20
-1.71453e-20
-1.99164e-20
-2.05229e-20
-1.43661e-20
-1.69488e-20
-1.77546e-20
-1.59924e-20
-1.43873e-20
-1.50055e-20
-1.38304e-20
-1.22053e-20
-1.51903e-20
-1.22195e-20
-1.11961e-20
-7.52106e-21
-6.12333e-21
-5.98924e-21
-8.00823e-21
-9.61784e-21
-8.28936e-21
-7.99944e-21
-8.01778e-21
-5.44319e-21
-5.68764e-21
-4.29838e-21
-6.46018e-21
-6.32312e-21
-5.84628e-21
-3.29245e-21
4.28324e-22
-2.68882e-21
-3.32243e-21
-2.18789e-21
-5.84491e-22
7.79467e-22
2.01741e-21
-1.94792e-21
-2.03816e-20
-2.12855e-20
-1.74653e-20
-1.78401e-20
-2.06777e-20
-1.84457e-20
-1.72161e-20
-1.68121e-20
-1.80803e-20
-1.66613e-20
-1.63162e-20
-1.48098e-20
-1.24236e-20
-1.38137e-20
-1.61143e-20
-1.23501e-20
-8.34807e-21
-5.51045e-21
-7.67672e-21
-6.95204e-21
-8.9554e-21
-9.8943e-21
-9.5629e-21
-9.67228e-21
-7.22616e-21
-5.6291e-21
-6.0901e-21
-3.61748e-21
-4.39703e-21
-2.66654e-21
-6.1013e-21
-5.92431e-21
1.83277e-21
-6.45393e-23
-3.75041e-21
-4.55453e-21
-2.36312e-21
-6.35763e-22
-7.41027e-23
-2.27265e-21
-1.92705e-20
-2.01017e-20
-1.76291e-20
-1.95857e-20
-2.13503e-20
-1.82821e-20
-1.72326e-20
-1.83652e-20
-1.88335e-20
-1.90439e-20
-1.60948e-20
-1.54249e-20
-1.29791e-20
-1.29619e-20
-1.53296e-20
-1.33519e-20
-9.16657e-21
-6.70033e-21
-6.44938e-21
-4.55033e-21
-6.87159e-21
-1.28543e-20
-1.02728e-20
-9.1721e-21
-9.36532e-21
-5.28672e-21
-5.36811e-21
-6.036e-21
-2.68609e-21
-4.05931e-21
-7.97923e-21
-3.12057e-21
-2.43164e-21
-2.12285e-21
-3.78052e-21
-2.09663e-21
-9.00033e-22
4.44447e-22
-1.13169e-21
-8.617e-23
-1.96428e-20
-2.28638e-20
-2.0083e-20
-2.05883e-20
-1.93397e-20
-1.88114e-20
-1.81689e-20
-1.8262e-20
-1.89909e-20
-1.80671e-20
-1.55615e-20
-1.71262e-20
-1.28683e-20
-1.32914e-20
-1.45751e-20
-1.22705e-20
-1.05582e-20
-5.84348e-21
-7.76771e-21
-7.60429e-21
-6.43677e-21
-1.08841e-20
-1.11463e-20
-1.24037e-20
-7.97396e-21
-5.08415e-21
-5.25819e-21
-5.91015e-21
-5.0782e-22
-8.15733e-21
-6.06e-21
-3.47445e-21
-1.79714e-21
-1.44131e-21
-2.23518e-21
-1.29317e-21
-1.01634e-21
-7.71799e-22
-1.20538e-21
-1.11443e-21
-1.87576e-20
-1.98949e-20
-1.81342e-20
-2.13114e-20
-2.23588e-20
-2.06758e-20
-2.17078e-20
-1.87971e-20
-1.53222e-20
-1.67556e-20
-1.76704e-20
-1.4769e-20
-1.3999e-20
-1.50855e-20
-1.56698e-20
-1.24529e-20
-9.08475e-21
-5.91971e-21
-5.24194e-21
-4.44543e-21
-8.75911e-21
-1.2555e-20
-1.25348e-20
-1.16139e-20
-7.99863e-21
-5.81514e-21
-4.81709e-21
-4.07801e-21
-4.75568e-21
-6.85332e-21
-2.737e-21
-2.59902e-21
-3.78766e-21
-2.24762e-21
-2.72917e-21
-7.54881e-22
5.11165e-22
-1.44316e-21
-1.22156e-21
-6.1619e-22
-2.25053e-20
-2.43955e-20
-2.01712e-20
-1.99396e-20
-2.12016e-20
-2.04116e-20
-2.20944e-20
-2.28136e-20
-1.81493e-20
-1.71679e-20
-1.3775e-20
-1.14362e-20
-1.28566e-20
-1.20671e-20
-1.51417e-20
-1.39955e-20
-9.91098e-21
-6.69e-21
-5.25381e-21
-6.87762e-21
-1.00936e-20
-1.0554e-20
-1.25956e-20
-1.33757e-20
-7.53313e-21
-4.99622e-21
-4.53991e-21
-5.71305e-21
-5.30669e-21
-5.7644e-21
-3.70019e-21
-2.49388e-21
-3.52917e-21
-2.63676e-21
-2.76937e-21
-1.15853e-21
-7.95218e-22
-1.96149e-21
-3.34687e-21
-3.06336e-21
-2.30523e-20
-2.52451e-20
-2.09075e-20
-1.9803e-20
-1.98517e-20
-2.14213e-20
-2.09517e-20
-2.07688e-20
-1.75932e-20
-1.88045e-20
-1.40371e-20
-1.27222e-20
-1.45037e-20
-1.33103e-20
-1.43945e-20
-1.48884e-20
-1.00683e-20
-5.01365e-21
-3.75576e-21
-7.37923e-21
-1.11863e-20
-1.27094e-20
-1.07724e-20
-1.1248e-20
-5.86677e-21
-7.13685e-21
-6.06329e-21
-5.10875e-21
-2.70463e-21
-5.73978e-21
-4.34836e-21
-3.42795e-21
-2.26078e-21
-2.70037e-21
-1.9536e-21
-2.51765e-21
-3.24058e-22
-1.98353e-21
-3.70056e-21
-1.72021e-21
-2.47162e-20
-2.46135e-20
-2.10067e-20
-2.2337e-20
-2.06136e-20
-2.30358e-20
-2.03244e-20
-1.94422e-20
-1.9149e-20
-1.71625e-20
-1.34003e-20
-1.53361e-20
-1.47545e-20
-1.29025e-20
-1.34118e-20
-1.19166e-20
-7.55617e-21
-6.92833e-21
-7.8108e-21
-9.39392e-21
-1.01189e-20
-9.28332e-21
-1.08259e-20
-1.19734e-20
-8.26511e-21
-4.47593e-21
-5.60247e-21
-4.1855e-21
-3.98006e-21
-3.41175e-21
-4.83216e-21
-4.92996e-21
-2.13006e-21
-1.5145e-21
-7.8742e-21
-1.53697e-21
5.02249e-22
-4.48994e-21
-4.18468e-21
-8.28923e-22
-2.72466e-20
-2.6885e-20
-2.32449e-20
-2.34006e-20
-2.14658e-20
-2.03756e-20
-2.07275e-20
-1.90787e-20
-1.88844e-20
-1.93339e-20
-1.54054e-20
-1.42731e-20
-1.55051e-20
-1.05004e-20
-1.26592e-20
-1.2022e-20
-1.14422e-20
-8.70386e-21
-6.44927e-21
-6.116e-21
-1.1688e-20
-1.13211e-20
-1.06358e-20
-1.24396e-20
-6.81881e-21
-3.5438e-21
-3.48881e-21
-3.05368e-21
-4.9269e-21
-4.62118e-21
-5.80133e-21
-4.79696e-21
-1.5701e-21
-3.18223e-21
-5.81376e-21
-2.32393e-21
-1.34979e-21
1.77348e-21
-1.21673e-21
-7.22095e-22
-2.9166e-20
-2.60304e-20
-2.17173e-20
-2.01519e-20
-2.12298e-20
-1.96979e-20
-2.16015e-20
-1.9482e-20
-1.94798e-20
-1.63361e-20
-1.49501e-20
-1.61541e-20
-1.63217e-20
-1.32706e-20
-1.17176e-20
-1.00443e-20
-9.39575e-21
-8.587e-21
-8.89866e-21
-1.00244e-20
-9.61437e-21
-1.11284e-20
-1.1729e-20
-9.97404e-21
-7.40057e-21
-5.70467e-21
-3.49537e-21
-3.98744e-21
-4.81549e-21
-3.25242e-21
-5.74985e-21
-4.11741e-21
-3.39917e-21
-9.83871e-22
-4.4185e-21
-3.79723e-21
2.09564e-21
-4.05317e-22
-1.21527e-21
-1.14946e-21
-2.46804e-20
-2.6326e-20
-2.3516e-20
-2.20623e-20
-2.10235e-20
-2.05518e-20
-2.07298e-20
-1.96791e-20
-1.8376e-20
-1.49327e-20
-1.69462e-20
-1.73778e-20
-1.75528e-20
-1.35751e-20
-1.20427e-20
-1.09562e-20
-9.66746e-21
-9.27032e-21
-7.74552e-21
-7.63898e-21
-1.17229e-20
-1.25299e-20
-1.14129e-20
-7.81722e-21
-6.96336e-21
-6.29472e-21
-4.32019e-21
-4.34639e-21
-5.12527e-21
-3.54696e-21
-4.00518e-21
-4.09745e-21
-3.28774e-21
-2.26083e-21
-3.74819e-21
-2.3809e-21
-6.57401e-24
-2.06367e-21
-1.68886e-21
-9.71492e-22
-2.34848e-20
-2.33787e-20
-2.42487e-20
-2.10733e-20
-2.42666e-20
-2.26339e-20
-2.1143e-20
-2.13972e-20
-1.86269e-20
-1.40187e-20
-1.58812e-20
-1.76989e-20
-1.65952e-20
-1.50678e-20
-1.28328e-20
-9.66425e-21
-9.11692e-21
-7.48172e-21
-1.247e-20
-1.11675e-20
-1.25308e-20
-8.75594e-21
-8.09711e-21
-7.1403e-21
-6.71856e-21
-5.86185e-21