/*--------------------------------*- C++ -*----------------------------------*\
| =========                 |                                                 |
| \\      /  F ield         | OpenFOAM: The Open Source CFD Toolbox           |
|  \\    /   O peration     | Version:  v2012                                 |
|   \\  /    A nd           | Website:  www.openfoam.com                      |
|    \\/     M anipulation  |                                                 |
\*---------------------------------------------------------------------------*/
FoamFile
{
    version     2.0;
    format      ascii;
    class       surfaceScalarField;
    location    "38";
    object      phi;
}
// * * * * * * * * * * * * * * * * * * * * * * * * * * * * * * * * * * * * * //

dimensions      [0 3 -1 0 0 0 0];
oriented        oriented;


internalField   nonuniform List<scalar> 
187200
(
1.875e-06
2.11322e-22
1.63162e-22
1.875e-06
3.73113e-22
2.87846e-22
1.875e-06
4.27247e-22
4.79666e-22
1.875e-06
3.33227e-22
3.62865e-22
1.875e-06
3.5743e-22
2.84491e-22
1.875e-06
4.81297e-22
4.31233e-22
1.875e-06
4.12218e-22
3.44357e-22
1.875e-06
3.16016e-22
2.89449e-22
1.875e-06
2.45024e-22
4.1209e-22
1.875e-06
3.77185e-22
3.707e-22
1.875e-06
4.50113e-22
2.87971e-22
1.875e-06
3.57252e-22
3.29896e-22
1.875e-06
2.61248e-22
3.05514e-22
1.875e-06
2.01854e-22
1.72411e-22
1.875e-06
2.11853e-22
2.69101e-22
1.875e-06
1.6225e-22
2.85726e-22
1.875e-06
2.00872e-22
2.59596e-22
1.875e-06
9.40285e-23
1.21882e-22
1.875e-06
8.05738e-23
1.19512e-22
1.875e-06
1.55725e-22
1.73584e-22
1.875e-06
7.40015e-23
1.6145e-22
1.875e-06
1.57974e-22
1.6544e-22
1.875e-06
2.25433e-22
1.73205e-22
1.875e-06
3.11951e-22
1.34555e-22
1.875e-06
2.13477e-22
8.05532e-23
1.875e-06
1.46805e-22
6.51593e-23
1.875e-06
1.92057e-22
1.77336e-22
1.875e-06
9.00031e-23
9.80596e-23
1.875e-06
1.25396e-22
1.83424e-22
1.875e-06
7.40054e-23
1.64074e-22
1.875e-06
-1.3388e-23
2.27468e-22
1.875e-06
2.07122e-23
1.20788e-22
1.875e-06
1.46374e-22
-7.32351e-24
1.875e-06
7.95615e-23
5.87098e-23
1.875e-06
6.72452e-24
8.24795e-23
1.875e-06
-4.81151e-23
9.25158e-24
1.875e-06
-2.97373e-23
-4.07718e-23
1.875e-06
-1.1017e-22
2.10409e-22
1.875e-06
-5.33414e-23
1.53753e-22
-1.81571e-23
9.99231e-23
1.875e-06
7.58487e-23
2.82453e-22
1.875e-06
1.07073e-22
4.78701e-22
1.875e-06
2.72679e-22
7.2991e-22
1.875e-06
3.49352e-22
7.26827e-22
1.875e-06
2.70484e-22
6.31215e-22
1.875e-06
3.33217e-22
7.13658e-22
1.875e-06
3.77889e-22
7.49282e-22
1.875e-06
3.67769e-22
7.1584e-22
1.875e-06
4.22612e-22
7.57537e-22
1.875e-06
3.2261e-22
8.10052e-22
1.875e-06
2.17588e-22
6.16565e-22
1.875e-06
1.97612e-22
5.73783e-22
1.875e-06
2.66367e-22
6.24181e-22
1.875e-06
1.90853e-22
5.64632e-22
1.875e-06
1.02714e-22
5.49944e-22
1.875e-06
5.7835e-23
5.47907e-22
1.875e-06
2.86752e-22
5.01842e-22
1.875e-06
3.21858e-22
5.50932e-22
1.875e-06
1.24516e-22
4.84864e-22
1.875e-06
-2.35162e-24
2.927e-22
1.875e-06
1.84036e-22
4.37348e-22
1.875e-06
2.19335e-22
3.54802e-22
1.875e-06
1.66305e-22
2.80554e-22
1.875e-06
1.20597e-22
2.62427e-22
1.875e-06
1.35539e-22
2.0206e-22
1.875e-06
1.79593e-22
2.31052e-22
1.875e-06
1.10579e-22
2.15459e-22
1.875e-06
1.00848e-22
1.83842e-22
1.875e-06
6.73373e-24
3.36157e-22
1.875e-06
6.45863e-23
2.39683e-22
1.875e-06
1.20746e-22
2.92004e-22
1.875e-06
5.2319e-23
1.83236e-22
1.875e-06
-9.16371e-24
2.15268e-23
1.875e-06
-1.34754e-23
4.18849e-23
1.875e-06
3.04893e-23
1.66472e-22
1.875e-06
-1.55403e-23
1.20103e-22
1.875e-06
-6.20845e-23
-1.06583e-23
1.875e-06
-4.72409e-23
9.73959e-23
1.875e-06
-6.99152e-23
1.10047e-22
-1.06176e-22
5.45522e-23
1.875e-06
1.81925e-22
4.03835e-22
1.875e-06
1.5652e-22
6.60314e-22
1.875e-06
1.31201e-22
7.02897e-22
1.875e-06
3.11836e-22
8.61053e-22
1.875e-06
3.07816e-22
8.65648e-22
1.875e-06
3.37836e-22
8.91053e-22
1.875e-06
3.71723e-22
8.81883e-22
1.875e-06
2.50972e-22
9.45665e-22
1.875e-06
3.21508e-22
9.74266e-22
1.875e-06
3.04871e-22
8.63549e-22
1.875e-06
3.17866e-22
8.09938e-22
1.875e-06
1.90024e-22
7.55035e-22
1.875e-06
1.81984e-22
6.398e-22
1.875e-06
1.85293e-22
6.39241e-22
1.875e-06
2.62533e-22
6.69013e-22
1.875e-06
2.56165e-22
7.57073e-22
1.875e-06
8.21753e-23
5.39216e-22
1.875e-06
1.94619e-22
5.64383e-22
1.875e-06
1.04447e-22
5.56922e-22
1.875e-06
1.42273e-22
4.48027e-22
1.875e-06
1.47262e-22
4.63571e-22
1.875e-06
9.9798e-23
3.11913e-22
1.875e-06
2.2587e-22
2.45591e-22
1.875e-06
1.82404e-22
2.81569e-22
1.875e-06
2.66063e-22
3.86135e-22
1.875e-06
7.31464e-23
3.40455e-22
1.875e-06
9.68522e-23
3.55799e-22
1.875e-06
-7.07754e-24
2.88147e-22
1.875e-06
5.26393e-23
3.18252e-22
1.875e-06
6.60356e-23
2.71028e-22
1.875e-06
-7.76779e-24
3.43809e-22
1.875e-06
3.45869e-23
2.51448e-22
1.875e-06
-2.65139e-23
6.73707e-23
1.875e-06
-1.4761e-23
8.70838e-23
1.875e-06
-1.44203e-24
1.33272e-22
1.875e-06
-1.55149e-23
5.32744e-23
1.875e-06
2.72345e-23
-1.44712e-24
1.875e-06
-3.43734e-24
2.25403e-22
1.875e-06
1.95282e-23
1.38766e-22
-8.69737e-24
7.91919e-23
1.875e-06
2.35441e-22
4.49607e-22
1.875e-06
1.7311e-22
7.71973e-22
1.875e-06
1.48876e-22
8.50003e-22
1.875e-06
1.27003e-22
9.70621e-22
1.875e-06
1.9488e-22
9.2944e-22
1.875e-06
1.85802e-22
8.50107e-22
1.875e-06
1.22764e-22
8.56234e-22
1.875e-06
2.79892e-22
1.06107e-21
1.875e-06
1.88421e-22
1.01409e-21
1.875e-06
2.81382e-22
9.27951e-22
1.875e-06
2.53317e-22
8.90228e-22
1.875e-06
1.65963e-22
9.30355e-22
1.875e-06
1.50368e-22
7.00341e-22
1.875e-06
1.48333e-22
7.10365e-22
1.875e-06
3.02188e-22
6.86522e-22
1.875e-06
4.12918e-22
7.40546e-22
1.875e-06
1.65366e-22
6.29229e-22
1.875e-06
7.90818e-23
6.25544e-22
1.875e-06
2.5834e-22
7.08864e-22
1.875e-06
1.34745e-22
4.64352e-22
1.875e-06
1.07146e-22
4.61779e-22
1.875e-06
9.2575e-23
4.06775e-22
1.875e-06
7.85905e-23
2.92422e-22
1.875e-06
1.88263e-22
3.22438e-22
1.875e-06
8.09222e-23
3.26304e-22
1.875e-06
1.51168e-22
4.64896e-22
1.875e-06
5.53146e-23
3.8303e-22
1.875e-06
6.93523e-23
3.49097e-22
1.875e-06
7.75062e-23
2.93468e-22
1.875e-06
-4.39832e-23
3.23666e-22
1.875e-06
1.08391e-23
2.75799e-22
1.875e-06
-1.05251e-23
1.62915e-22
1.875e-06
-2.17719e-23
2.28931e-22
1.875e-06
-3.56425e-23
1.59483e-22
1.875e-06
2.22169e-23
1.02343e-22
1.875e-06
3.98658e-23
2.69578e-23
1.875e-06
-7.42796e-24
2.03496e-24
1.875e-06
4.84197e-23
1.2789e-22
1.875e-06
-7.72836e-23
8.93753e-23
4.1232e-23
6.46302e-23
1.875e-06
-3.72058e-24
3.5754e-22
1.875e-06
1.1962e-22
7.82157e-22
1.875e-06
8.08788e-23
8.80767e-22
1.875e-06
1.32437e-22
1.0037e-21
1.875e-06
1.27752e-22
1.04278e-21
1.875e-06
6.99652e-23
9.97748e-22
1.875e-06
6.67414e-23
9.95517e-22
1.875e-06
3.00245e-22
1.048e-21
1.875e-06
3.91901e-22
1.0352e-21
1.875e-06
2.37735e-22
9.41313e-22
1.875e-06
1.6014e-22
8.92549e-22
1.875e-06
2.09856e-22
9.94579e-22
1.875e-06
2.05096e-22
7.71033e-22
1.875e-06
1.58645e-22
8.13519e-22
1.875e-06
2.05933e-22
7.90417e-22
1.875e-06
2.31406e-22
6.92618e-22
1.875e-06
1.97501e-22
6.8034e-22
1.875e-06
9.94575e-23
6.94243e-22
1.875e-06
7.65117e-23
5.88603e-22
1.875e-06
1.74033e-22
5.14595e-22
1.875e-06
5.70892e-23
4.58765e-22
1.875e-06
6.11915e-23
4.40057e-22
1.875e-06
1.54088e-22
3.33416e-22
1.875e-06
1.14317e-22
2.99415e-22
1.875e-06
1.75594e-22
4.23204e-22
1.875e-06
6.8105e-23
4.72149e-22
1.875e-06
7.57694e-23
4.13642e-22
1.875e-06
-1.17432e-23
3.4454e-22
1.875e-06
-3.90518e-23
2.25534e-22
1.875e-06
9.134e-24
3.24499e-22
1.875e-06
8.8413e-23
3.50959e-22
1.875e-06
1.38045e-22
2.99353e-22
1.875e-06
2.49265e-23
2.13698e-22
1.875e-06
3.79097e-23
1.82476e-22
1.875e-06
-2.28775e-23
2.91433e-23
1.875e-06
-6.82402e-23
-3.05634e-23
1.875e-06
3.0108e-23
1.3505e-23
1.875e-06
2.07517e-23
7.46568e-23
1.875e-06
6.03648e-23
1.00992e-22
-4.00155e-23
3.36121e-23
1.875e-06
6.01594e-23
4.13638e-22
1.875e-06
1.86957e-22
8.45727e-22
1.875e-06
7.27201e-23
9.46198e-22
1.875e-06
-1.01132e-23
9.48278e-22
1.875e-06
1.26864e-22
1.13184e-21
1.875e-06
1.53546e-22
1.12818e-21
1.875e-06
1.6369e-22
1.09306e-21
1.875e-06
2.13137e-22
1.0892e-21
1.875e-06
2.95206e-22
1.05653e-21
1.875e-06
2.40172e-22
9.73983e-22
1.875e-06
1.93667e-22
9.58288e-22
1.875e-06
2.08857e-22
1.00168e-21
1.875e-06
1.13442e-22
8.85936e-22
1.875e-06
2.38828e-22
8.82165e-22
1.875e-06
1.47398e-22
7.96347e-22
1.875e-06
1.20647e-22
6.76156e-22
1.875e-06
1.59124e-22
7.34617e-22
1.875e-06
1.90846e-23
6.53885e-22
1.875e-06
9.3748e-23
6.04956e-22
1.875e-06
8.68213e-23
4.81127e-22
1.875e-06
1.59119e-22
5.19521e-22
1.875e-06
2.66371e-22
5.32941e-22
1.875e-06
1.76668e-22
2.96281e-22
1.875e-06
1.4036e-22
2.81516e-22
1.875e-06
-3.72337e-23
3.47957e-22
1.875e-06
2.15723e-22
4.6256e-22
1.875e-06
1.31477e-22
4.07902e-22
1.875e-06
-6.71032e-24
3.19721e-22
1.875e-06
-6.85632e-23
2.85331e-22
1.875e-06
-3.75907e-23
3.40486e-22
1.875e-06
1.02517e-22
3.18197e-22
1.875e-06
6.74228e-23
2.52594e-22
1.875e-06
-1.37505e-23
1.3895e-22
1.875e-06
1.40311e-23
2.01802e-22
1.875e-06
3.27395e-23
1.40457e-22
1.875e-06
1.21008e-22
7.26988e-23
1.875e-06
-4.21549e-24
-2.05359e-23
1.875e-06
-2.848e-24
-8.76246e-24
1.875e-06
7.41293e-23
-3.54632e-23
6.69382e-23
7.90428e-23
1.875e-06
6.83499e-23
5.19247e-22
1.875e-06
9.47163e-23
7.9903e-22
1.875e-06
1.48487e-22
1.00204e-21
1.875e-06
9.02538e-23
1.06315e-21
1.875e-06
6.62368e-23
1.17014e-21
1.875e-06
1.43293e-22
1.14832e-21
1.875e-06
1.94885e-22
1.18028e-21
1.875e-06
3.49472e-22
1.13301e-21
1.875e-06
2.6746e-22
1.11368e-21
1.875e-06
2.08563e-22
1.07207e-21
1.875e-06
1.37555e-22
1.04124e-21
1.875e-06
9.71062e-23
9.45955e-22
1.875e-06
1.72244e-22
9.24677e-22
1.875e-06
2.15289e-22
8.66408e-22
1.875e-06
1.4096e-22
8.79999e-22
1.875e-06
1.09723e-22
7.5155e-22
1.875e-06
7.50761e-23
6.29771e-22
1.875e-06
1.78844e-22
6.07038e-22
1.875e-06
1.83387e-22
5.87128e-22
1.875e-06
1.00388e-22
5.11426e-22
1.875e-06
8.25823e-23
5.58321e-22
1.875e-06
9.86429e-23
4.29075e-22
1.875e-06
8.50521e-23
3.14817e-22
1.875e-06
6.93256e-23
3.31167e-22
1.875e-06
1.40595e-22
4.69365e-22
1.875e-06
1.03227e-22
3.43209e-22
1.875e-06
9.1432e-23
3.34418e-22
1.875e-06
5.83412e-23
3.3579e-22
1.875e-06
2.57798e-23
2.73237e-22
1.875e-06
7.60586e-23
2.6001e-22
1.875e-06
4.38796e-23
2.77769e-22
1.875e-06
2.19465e-23
2.64486e-22
1.875e-06
2.85432e-23
9.73527e-23
1.875e-06
4.36063e-23
1.20805e-22
1.875e-06
1.45201e-22
1.60841e-22
1.875e-06
8.98223e-23
1.05044e-22
1.875e-06
5.98822e-25
2.90943e-23
1.875e-06
-1.84772e-23
-2.94268e-23
1.875e-06
-2.05667e-23
-5.00214e-23
2.46719e-23
4.88072e-23
1.875e-06
1.30228e-22
4.05832e-22
1.875e-06
1.12183e-22
7.61447e-22
1.875e-06
4.60951e-23
9.60258e-22
1.875e-06
8.65234e-23
1.15458e-21
1.875e-06
1.75663e-22
1.29751e-21
1.875e-06
2.43532e-22
1.26713e-21
1.875e-06
2.86643e-22
1.22327e-21
1.875e-06
6.78818e-23
1.09733e-21
1.875e-06
1.06909e-22
1.13368e-21
1.875e-06
2.2577e-22
1.12541e-21
1.875e-06
8.08046e-23
1.0562e-21
1.875e-06
9.7684e-23
1.00041e-21
1.875e-06
1.3397e-22
8.9836e-22
1.875e-06
1.73746e-22
8.03067e-22
1.875e-06
2.4554e-22
9.06318e-22
1.875e-06
1.29658e-22
8.01353e-22
1.875e-06
9.31113e-23
6.54599e-22
1.875e-06
5.88252e-23
6.15105e-22
1.875e-06
1.17004e-22
4.74492e-22
1.875e-06
1.73582e-22
3.80912e-22
1.875e-06
8.89662e-23
4.37497e-22
1.875e-06
8.18252e-23
4.96165e-22
1.875e-06
1.33049e-22
4.12914e-22
1.875e-06
4.87144e-23
4.37171e-22
1.875e-06
6.90438e-23
4.73489e-22
1.875e-06
3.72421e-23
3.12584e-22
1.875e-06
9.19887e-23
3.16893e-22
1.875e-06
1.32325e-22
3.63218e-22
1.875e-06
3.31922e-23
2.0903e-22
1.875e-06
8.49201e-23
2.27619e-22
1.875e-06
-2.93966e-23
2.83223e-22
1.875e-06
-7.43164e-23
1.88944e-22
1.875e-06
-2.47754e-23
2.34446e-22
1.875e-06
4.06573e-23
1.08445e-22
1.875e-06
6.83729e-23
6.22032e-23
1.875e-06
-2.0357e-23
-1.20161e-22
1.875e-06
-2.7753e-23
-5.63709e-23
1.875e-06
8.01546e-24
1.7138e-23
1.875e-06
2.53753e-23
-2.11757e-23
2.54217e-23
-7.78942e-23
1.875e-06
-1.82629e-22
2.61628e-22
1.875e-06
-1.07169e-22
7.80701e-22
1.875e-06
1.2503e-22
1.10701e-21
1.875e-06
1.36874e-22
1.2498e-21
1.875e-06
2.04404e-22
1.22995e-21
1.875e-06
2.02088e-22
1.20788e-21
1.875e-06
2.1088e-22
1.23767e-21
1.875e-06
1.75509e-22
1.24118e-21
1.875e-06
1.14197e-22
1.19997e-21
1.875e-06
7.78904e-23
1.05309e-21
1.875e-06
2.31869e-22
1.10863e-21
1.875e-06
5.25732e-23
1.07136e-21
1.875e-06
4.13858e-23
8.56874e-22
1.875e-06
1.39774e-22
7.76889e-22
1.875e-06
1.44956e-22
7.8241e-22
1.875e-06
1.03053e-22
7.66069e-22
1.875e-06
1.9236e-22
7.54462e-22
1.875e-06
1.59576e-22
6.65228e-22
1.875e-06
-8.33653e-23
4.92241e-22
1.875e-06
-2.58023e-23
3.69926e-22
1.875e-06
1.44735e-22
5.03216e-22
1.875e-06
5.12642e-23
4.33912e-22
1.875e-06
9.2113e-23
3.6074e-22
1.875e-06
1.30737e-22
5.76285e-22
1.875e-06
1.92551e-22
4.96169e-22
1.875e-06
3.13448e-23
3.40779e-22
1.875e-06
-1.11929e-22
2.54707e-22
1.875e-06
-4.64779e-23
2.57387e-22
1.875e-06
9.49966e-23
1.76284e-22
1.875e-06
-4.33215e-24
2.70025e-22
1.875e-06
-1.03733e-22
2.4596e-22
1.875e-06
-4.37369e-23
2.40245e-22
1.875e-06
7.64248e-23
2.50908e-22
1.875e-06
3.95367e-23
1.01425e-22
1.875e-06
-3.30613e-23
-1.52797e-22
1.875e-06
4.93484e-23
-2.5866e-22
1.875e-06
9.49118e-23
-5.97013e-23
1.875e-06
2.46194e-23
-1.53001e-24
1.875e-06
-1.48406e-23
-5.17839e-23
-6.09971e-23
-1.28609e-22
1.875e-06
-3.53015e-23
4.40666e-22
1.875e-06
6.21528e-23
8.13554e-22
1.875e-06
1.14714e-22
1.01895e-21
1.875e-06
2.69186e-22
1.31655e-21
1.875e-06
1.0255e-22
1.33249e-21
1.875e-06
1.09573e-22
1.27915e-21
1.875e-06
2.46945e-22
1.34709e-21
1.875e-06
1.04008e-22
1.2827e-21
1.875e-06
8.74551e-23
1.1062e-21
1.875e-06
1.47667e-22
1.01611e-21
1.875e-06
9.53797e-23
1.00238e-21
1.875e-06
6.6475e-23
1.01917e-21
1.875e-06
2.94583e-23
9.28385e-22
1.875e-06
3.95145e-23
8.27686e-22
1.875e-06
5.03716e-23
8.28416e-22
1.875e-06
2.4528e-22
8.17929e-22
1.875e-06
2.13075e-22
6.70205e-22
1.875e-06
1.03099e-23
5.70591e-22
1.875e-06
-5.22364e-23
5.80674e-22
1.875e-06
1.17737e-23
4.14349e-22
1.875e-06
1.38952e-22
4.71477e-22
1.875e-06
2.93698e-22
6.13532e-22
1.875e-06
1.06631e-22
5.00976e-22
1.875e-06
1.10718e-22
4.92178e-22
1.875e-06
9.26265e-23
4.18728e-22
1.875e-06
-2.23382e-23
3.78661e-22
1.875e-06
-1.34573e-22
3.15002e-22
1.875e-06
-7.04742e-23
2.67789e-22
1.875e-06
-3.86633e-24
2.13262e-22
1.875e-06
6.82361e-23
2.79867e-22
1.875e-06
-9.24636e-24
2.49687e-22
1.875e-06
-5.37612e-23
2.46859e-22
1.875e-06
8.04219e-23
2.21906e-22
1.875e-06
1.5607e-23
6.6357e-23
1.875e-06
-5.29911e-23
-1.61192e-22
1.875e-06
-3.4874e-23
-4.12973e-22
1.875e-06
-1.4362e-23
-3.26645e-22
1.875e-06
8.6839e-23
-1.33433e-22
1.875e-06
1.01403e-22
-1.35592e-22
8.83648e-23
-1.29286e-22
1.875e-06
9.14243e-23
6.66418e-22
1.875e-06
1.60984e-22
9.7867e-22
1.875e-06
1.71449e-22
1.07068e-21
1.875e-06
1.02773e-22
1.1821e-21
1.875e-06
1.49163e-22
1.38046e-21
1.875e-06
1.46996e-22
1.30852e-21
1.875e-06
-3.38307e-23
1.28125e-21
1.875e-06
1.42934e-22
1.43095e-21
1.875e-06
1.00482e-22
1.20341e-21
1.875e-06
3.14494e-23
9.70387e-22
1.875e-06
1.67451e-22
8.89336e-22
1.875e-06
1.18959e-22
9.70188e-22
1.875e-06
9.96219e-23
9.21364e-22
1.875e-06
8.35892e-23
8.00734e-22
1.875e-06
1.19367e-22
8.76273e-22
1.875e-06
1.36097e-22
7.5834e-22
1.875e-06
6.09454e-23
6.37615e-22
1.875e-06
9.39498e-23
6.89171e-22
1.875e-06
1.90223e-22
6.79679e-22
1.875e-06
8.85465e-23
5.6953e-22
1.875e-06
9.87269e-23
5.22014e-22
1.875e-06
9.78807e-23
4.5303e-22
1.875e-06
7.57621e-23
5.13058e-22
1.875e-06
2.91647e-23
4.70448e-22
1.875e-06
-6.79768e-24
3.43674e-22
1.875e-06
-8.07315e-23
3.42434e-22
1.875e-06
1.13438e-23
3.90162e-22
1.875e-06
3.28908e-23
3.62122e-22
1.875e-06
-1.61554e-25
2.73539e-22
1.875e-06
-1.35965e-22
2.32726e-22
1.875e-06
-1.04198e-22
3.05393e-22
1.875e-06
6.5328e-23
2.84302e-22
1.875e-06
2.11944e-23
1.06923e-22
1.875e-06
1.89088e-23
4.37817e-23
1.875e-06
-1.48008e-23
-1.04649e-22
1.875e-06
-1.01014e-22
-3.83457e-22
1.875e-06
-6.04834e-23
-3.19772e-22
1.875e-06
3.69762e-23
-1.89831e-22
1.875e-06
1.22094e-22
-1.31984e-22
1.59824e-22
-1.44395e-22
1.875e-06
2.24554e-22
6.37387e-22
1.875e-06
1.30797e-22
9.71297e-22
1.875e-06
1.17132e-22
1.12304e-21
1.875e-06
9.34161e-23
1.25112e-21
1.875e-06
1.38463e-22
1.34916e-21
1.875e-06
6.62064e-23
1.29151e-21
1.875e-06
1.68312e-22
1.36364e-21
1.875e-06
1.36354e-22
1.34079e-21
1.875e-06
1.02311e-22
1.18062e-21
1.875e-06
1.83566e-23
1.05279e-21
1.875e-06
7.5383e-24
8.00047e-22
1.875e-06
1.61557e-22
9.50493e-22
1.875e-06
1.87783e-22
1.06703e-21
1.875e-06
1.22784e-22
9.21295e-22
1.875e-06
7.91301e-23
8.44474e-22
1.875e-06
-3.2216e-23
7.04355e-22
1.875e-06
4.12042e-23
6.21729e-22
1.875e-06
1.70794e-22
6.34802e-22
1.875e-06
1.51631e-22
5.93419e-22
1.875e-06
1.75257e-22
6.20487e-22
1.875e-06
1.33266e-22
6.16462e-22
1.875e-06
1.55732e-23
5.33281e-22
1.875e-06
1.57299e-23
4.27731e-22
1.875e-06
3.23986e-23
4.06152e-22
1.875e-06
-1.43798e-22
3.27679e-22
1.875e-06
-9.45906e-23
4.01824e-22
1.875e-06
-6.26187e-23
3.41409e-22
1.875e-06
7.01443e-23
3.10493e-22
1.875e-06
-8.91884e-23
2.18288e-22
1.875e-06
-7.05312e-23
3.37094e-22
1.875e-06
1.31147e-22
4.15392e-22
1.875e-06
3.50904e-23
2.92888e-22
1.875e-06
-1.23171e-22
6.74664e-23
1.875e-06
1.32902e-23
-3.26689e-23
1.875e-06
9.50325e-23
-1.56637e-22
1.875e-06
-5.87468e-23
-2.6481e-22
1.875e-06
-5.3829e-23
-2.77953e-22
1.875e-06
1.01177e-23
-2.15753e-22
1.875e-06
-6.85642e-23
-1.64574e-22
-8.03512e-23
-2.86229e-22
1.875e-06
8.15821e-23
5.19661e-22
1.875e-06
1.54736e-22
9.90854e-22
1.875e-06
1.08076e-22
1.10301e-21
1.875e-06
1.55879e-22
1.3276e-21
1.875e-06
-1.98354e-23
1.29838e-21
1.875e-06
-2.37814e-24
1.3534e-21
1.875e-06
7.88113e-23
1.2946e-21
1.875e-06
4.51109e-23
1.23692e-21
1.875e-06
1.14835e-22
1.17587e-21
1.875e-06
1.36023e-22
1.03633e-21
1.875e-06
2.42244e-23
8.5465e-22
1.875e-06
1.28788e-22
9.79477e-22
1.875e-06
1.93499e-22
1.04031e-21
1.875e-06
1.40156e-22
9.06912e-22
1.875e-06
6.85836e-23
8.34298e-22
1.875e-06
3.31656e-23
7.22061e-22
1.875e-06
4.21275e-23
5.85003e-22
1.875e-06
6.94583e-23
6.06023e-22
1.875e-06
1.16411e-22
7.06243e-22
1.875e-06
1.03093e-22
6.98358e-22
1.875e-06
1.18082e-22
5.75853e-22
1.875e-06
1.12576e-22
4.54118e-22
1.875e-06
1.2513e-22
4.71363e-22
1.875e-06
-7.96974e-23
5.20054e-22
1.875e-06
-8.64991e-23
4.44327e-22
1.875e-06
-1.56832e-22
3.46116e-22
1.875e-06
-1.18208e-22
2.9371e-22
1.875e-06
-6.58792e-23
1.72209e-22
1.875e-06
5.80099e-23
3.33533e-22
1.875e-06
-1.08357e-22
3.13515e-22
1.875e-06
-1.05466e-22
2.85598e-22
1.875e-06
5.07121e-23
2.8009e-22
1.875e-06
4.02717e-23
1.67079e-22
1.875e-06
-4.04642e-23
-9.27764e-23
1.875e-06
-2.72206e-23
-1.09749e-22
1.875e-06
-2.28193e-23
-2.69378e-22
1.875e-06
3.65273e-23
-3.1344e-22
1.875e-06
-9.3903e-23
-1.64765e-22
1.875e-06
-1.84893e-22
-6.11727e-23
-1.02923e-22
-2.10709e-22
1.875e-06
-1.80256e-22
6.00217e-22
1.875e-06
3.0093e-24
9.66527e-22
1.875e-06
1.21195e-22
1.18037e-21
1.875e-06
-1.41193e-24
1.28772e-21
1.875e-06
-3.01804e-23
1.36581e-21
1.875e-06
1.76157e-23
1.31562e-21
1.875e-06
1.47704e-22
1.27923e-21
1.875e-06
2.957e-22
1.29069e-21
1.875e-06
1.0003e-22
1.15823e-21
1.875e-06
-8.51482e-23
1.01661e-21
1.875e-06
-1.6527e-23
9.48744e-22
1.875e-06
1.92633e-22
9.55346e-22
1.875e-06
1.88535e-22
9.29113e-22
1.875e-06
5.44845e-23
8.21463e-22
1.875e-06
3.02409e-24
8.32155e-22
1.875e-06
4.14495e-23
7.71607e-22
1.875e-06
1.1607e-22
6.90765e-22
1.875e-06
1.87701e-22
7.91384e-22
1.875e-06
1.51709e-22
7.10647e-22
1.875e-06
1.20477e-22
5.65671e-22
1.875e-06
1.8518e-22
5.27688e-22
1.875e-06
-2.99666e-23
5.02756e-22
1.875e-06
-1.02359e-22
4.25728e-22
1.875e-06
-3.7257e-23
5.30296e-22
1.875e-06
-4.82999e-23
4.0945e-22
1.875e-06
1.13846e-22
4.17249e-22
1.875e-06
9.39248e-23
3.12758e-22
1.875e-06
-9.49697e-23
1.52603e-22
1.875e-06
-1.21087e-22
2.4363e-22
1.875e-06
-2.72629e-23
3.9652e-22
1.875e-06
-1.18694e-22
3.57714e-22
1.875e-06
-1.56177e-22
2.08811e-22
1.875e-06
-5.21409e-24
1.29387e-22
1.875e-06
-3.66151e-23
3.56461e-23
1.875e-06
-8.09741e-23
-1.64915e-22
1.875e-06
-9.68313e-24
-3.06197e-22
1.875e-06
-9.9283e-23
-3.69096e-22
1.875e-06
3.82337e-24
-3.01043e-22
1.875e-06
-3.63097e-23
-1.07356e-22
-1.82589e-22
-2.32733e-22
1.875e-06
-6.35653e-23
7.71229e-22
1.875e-06
-1.99e-22
9.86604e-22
1.875e-06
-6.2574e-23
1.10197e-21
1.875e-06
-2.49845e-23
1.24088e-21
1.875e-06
8.71211e-23
1.38101e-21
1.875e-06
5.94912e-23
1.29327e-21
1.875e-06
-3.62986e-23
1.20415e-21
1.875e-06
-6.15269e-24
1.07241e-21
1.875e-06
-1.6663e-23
1.11772e-21
1.875e-06
-1.13444e-23
1.08891e-21
1.875e-06
1.55931e-22
1.03078e-21
1.875e-06
6.88517e-23
9.48103e-22
1.875e-06
8.62088e-23
9.58567e-22
1.875e-06
1.1885e-22
9.64351e-22
1.875e-06
1.63413e-22
8.39274e-22
1.875e-06
1.14109e-22
6.99929e-22
1.875e-06
6.96684e-23
6.5728e-22
1.875e-06
1.30609e-22
6.72514e-22
1.875e-06
3.27934e-23
6.92052e-22
1.875e-06
1.71645e-22
6.58512e-22
1.875e-06
7.27204e-23
4.30649e-22
1.875e-06
1.01533e-22
5.93091e-22
1.875e-06
-1.87584e-23
5.35318e-22
1.875e-06
-1.65125e-22
4.79563e-22
1.875e-06
-1.43584e-22
4.24271e-22
1.875e-06
3.26037e-23
3.74431e-22
1.875e-06
8.41967e-23
2.5399e-22
1.875e-06
-1.38186e-23
2.42838e-22
1.875e-06
-4.25392e-23
2.69358e-22
1.875e-06
-4.04081e-23
2.56985e-22
1.875e-06
-2.69364e-23
3.37907e-22
1.875e-06
-4.2568e-23
2.62987e-22
1.875e-06
-3.28722e-23
1.46354e-22
1.875e-06
-2.31217e-23
1.27978e-23
1.875e-06
-2.15387e-23
-1.35881e-22
1.875e-06
-1.88561e-23
-2.45415e-22
1.875e-06
-1.02279e-22
-3.62672e-22
1.875e-06
-1.32294e-22
-2.99843e-22
1.875e-06
-1.14682e-23
-1.7981e-22
-6.26906e-23
-1.00662e-22
1.875e-06
-3.99045e-23
6.52909e-22
1.875e-06
-1.16125e-22
1.09922e-21
1.875e-06
-9.92684e-23
1.17012e-21
1.875e-06
-1.16596e-22
1.30321e-21
1.875e-06
-7.5861e-23
1.31553e-21
1.875e-06
-3.00834e-23
1.27254e-21
1.875e-06
1.89774e-23
1.23684e-21
1.875e-06
4.18205e-25
1.16055e-21
1.875e-06
5.71894e-23
1.17923e-21
1.875e-06
1.27468e-22
1.0796e-21
1.875e-06
1.79454e-23
1.02138e-21
1.875e-06
1.29803e-22
1.01562e-21
1.875e-06
-4.91678e-23
1.0246e-21
1.875e-06
1.02627e-22
9.51153e-22
1.875e-06
1.30368e-22
7.79233e-22
1.875e-06
5.86318e-23
6.32058e-22
1.875e-06
8.75076e-23
6.93041e-22
1.875e-06
5.71711e-23
6.3435e-22
1.875e-06
2.09929e-22
6.80525e-22
1.875e-06
2.34593e-23
5.50719e-22
1.875e-06
7.50184e-23
5.61201e-22
1.875e-06
3.82726e-23
5.98664e-22
1.875e-06
-1.18059e-23
4.99647e-22
1.875e-06
-8.88746e-23
4.66468e-22
1.875e-06
-4.41969e-23
4.49364e-22
1.875e-06
-1.1018e-22
3.95789e-22
1.875e-06
1.07114e-23
2.27124e-22
1.875e-06
1.26743e-22
2.12926e-22
1.875e-06
-1.44214e-23
2.73094e-22
1.875e-06
9.33265e-23
2.76321e-22
1.875e-06
-4.62607e-23
2.68765e-22
1.875e-06
2.70102e-23
2.40359e-22
1.875e-06
-6.36614e-23
1.51392e-22
1.875e-06
-1.4989e-22
3.8014e-23
1.875e-06
-2.47344e-22
-1.90306e-22
1.875e-06
-1.78523e-22
-3.37049e-22
1.875e-06
4.63759e-23
-1.91151e-22
1.875e-06
-1.23174e-23
-5.91852e-23
1.875e-06
-3.12978e-24
-1.14462e-22
3.50472e-23
-1.45504e-22
1.875e-06
-1.27851e-22
6.02332e-22
1.875e-06
-4.94452e-23
1.03628e-21
1.875e-06
6.34515e-24
1.22686e-21
1.875e-06
-3.83016e-23
1.37893e-21
1.875e-06
-7.32396e-23
1.47891e-21
1.875e-06
-1.36015e-23
1.36148e-21
1.875e-06
-1.2546e-22
1.22191e-21
1.875e-06
-1.44943e-22
1.19442e-21
1.875e-06
4.07143e-23
1.1652e-21
1.875e-06
8.48733e-23
1.02758e-21
1.875e-06
1.25624e-22
1.05631e-21
1.875e-06
5.01622e-24
1.0022e-21
1.875e-06
3.5079e-23
1.12071e-21
1.875e-06
6.03688e-23
1.02208e-21
1.875e-06
1.70584e-22
7.97044e-22
1.875e-06
1.2364e-22
6.68914e-22
1.875e-06
4.75567e-23
6.47078e-22
1.875e-06
-3.60636e-23
5.80905e-22
1.875e-06
8.04949e-23
7.1808e-22
1.875e-06
1.88307e-22
6.77706e-22
1.875e-06
1.49654e-22
5.45521e-22
1.875e-06
-4.4107e-24
5.24526e-22
1.875e-06
-2.05178e-22
3.97215e-22
1.875e-06
-9.01222e-23
4.37278e-22
1.875e-06
-6.97751e-23
4.49037e-22
1.875e-06
1.05482e-22
4.40939e-22
1.875e-06
9.01041e-23
2.41262e-22
1.875e-06
3.65487e-23
1.82143e-22
1.875e-06
5.55278e-23
3.59399e-22
1.875e-06
-3.23152e-23
2.07957e-22
1.875e-06
5.33386e-23
2.75821e-22
1.875e-06
-1.31126e-22
1.60224e-22
1.875e-06
-1.04326e-22
1.70424e-22
1.875e-06
-1.00192e-22
1.63657e-22
1.875e-06
-9.04424e-23
3.10842e-23
1.875e-06
-6.41336e-23
-2.3642e-22
1.875e-06
-2.75686e-23
-2.52772e-22
1.875e-06
1.1271e-23
-6.26949e-23
1.875e-06
-3.89888e-23
-1.43966e-22
-5.35718e-23
-2.37668e-22
1.875e-06
-7.72449e-23
7.05422e-22
1.875e-06
-1.39874e-22
1.10828e-21
1.875e-06
-1.50996e-22
1.221e-21
1.875e-06
3.08993e-23
1.41924e-21
1.875e-06
3.30563e-23
1.45866e-21
1.875e-06
-1.42757e-22
1.34546e-21
1.875e-06
-9.76684e-23
1.31839e-21
1.875e-06
-8.56789e-23
1.23438e-21
1.875e-06
-1.71125e-23
1.20853e-21
1.875e-06
5.32588e-23
1.15336e-21
1.875e-06
6.99641e-23
1.03132e-21
1.875e-06
5.79911e-23
1.01796e-21
1.875e-06
7.99623e-23
1.0983e-21
1.875e-06
-4.92056e-23
1.00755e-21
1.875e-06
-3.04833e-23
7.65249e-22
1.875e-06
7.83977e-23
7.35372e-22
1.875e-06
6.05599e-23
6.8282e-22
1.875e-06
2.03509e-22
7.05671e-22
1.875e-06
2.15384e-22
5.75073e-22
1.875e-06
1.68895e-22
5.75634e-22
1.875e-06
-7.50785e-23
4.26438e-22
1.875e-06
-2.08669e-22
6.28908e-22
1.875e-06
-5.27663e-23
5.59141e-22
1.875e-06
-1.18552e-23
4.32069e-22
1.875e-06
-1.00174e-23
5.38402e-22
1.875e-06
-5.61727e-23
3.53966e-22
1.875e-06
4.59399e-23
2.40625e-22
1.875e-06
-5.82431e-24
2.65587e-22
1.875e-06
-2.18348e-23
2.33381e-22
1.875e-06
3.66522e-23
2.07182e-22
1.875e-06
5.80865e-23
2.05959e-22
1.875e-06
-3.9299e-23
1.84453e-22
1.875e-06
-9.71842e-23
1.40923e-22
1.875e-06
-2.7887e-23
1.40757e-22
1.875e-06
-1.03878e-22
6.73242e-23
1.875e-06
-1.19377e-22
-3.19471e-23
1.875e-06
-8.08035e-23
-8.11823e-23
1.875e-06
-1.81394e-23
-1.10853e-22
1.875e-06
1.32312e-23
-1.9426e-22
1.41388e-22
-2.20941e-22
1.875e-06
-5.9205e-23
8.12925e-22
1.875e-06
6.08538e-23
1.12984e-21
1.875e-06
3.4184e-23
1.23309e-21
1.875e-06
4.93157e-25
1.41396e-21
1.875e-06
-6.83367e-23
1.48574e-21
1.875e-06
-1.41063e-22
1.36639e-21
1.875e-06
-1.69951e-22
1.33203e-21
1.875e-06
-9.65549e-23
1.34892e-21
1.875e-06
5.09349e-23
1.25804e-21
1.875e-06
9.47813e-23
1.13143e-21
1.875e-06
-2.75068e-23
1.02406e-21
1.875e-06
2.45866e-24
1.05946e-21
1.875e-06
1.15353e-22
1.09504e-21
1.875e-06
1.35601e-22
1.08155e-21
1.875e-06
-6.54304e-24
8.13555e-22
1.875e-06
-7.23771e-23
7.54441e-22
1.875e-06
-4.27265e-23
7.07505e-22
1.875e-06
1.81125e-24
5.97383e-22
1.875e-06
1.25996e-22
4.71919e-22
1.875e-06
2.1242e-23
4.85783e-22
1.875e-06
-6.11158e-23
4.36203e-22
1.875e-06
4.30957e-23
6.53001e-22
1.875e-06
-4.24004e-23
6.11642e-22
1.875e-06
-1.92879e-23
5.48269e-22
1.875e-06
-1.36929e-23
4.66138e-22
1.875e-06
-4.76802e-23
3.9713e-22
1.875e-06
9.57255e-23
2.65153e-22
1.875e-06
1.84308e-22
3.25448e-22
1.875e-06
3.29142e-23
2.62397e-22
1.875e-06
-6.73701e-23
1.87461e-22
1.875e-06
-7.67309e-23
8.66503e-23
1.875e-06
-1.59079e-23
6.46919e-23
1.875e-06
-1.67372e-23
1.3054e-22
1.875e-06
-1.49358e-23
2.45313e-22
1.875e-06
7.53861e-23
1.45086e-22
1.875e-06
-1.2071e-24
-2.26011e-23
1.875e-06
1.69889e-23
7.35113e-25
1.875e-06
-4.90227e-23
-2.58603e-23
1.875e-06
-2.54505e-23
-1.82291e-22
-2.99769e-23
-2.64079e-22
1.875e-06
1.86776e-22
8.76857e-22
1.875e-06
1.1446e-22
1.14716e-21
1.875e-06
1.46726e-23
1.06406e-21
1.875e-06
-8.23538e-23
1.27039e-21
1.875e-06
-1.59937e-22
1.44596e-21
1.875e-06
-1.10731e-23
1.37755e-21
1.875e-06
-3.25326e-23
1.37005e-21
1.875e-06
-1.50386e-22
1.35128e-21
1.875e-06
-1.64945e-22
1.18318e-21
1.875e-06
-1.39953e-24
1.26622e-21
1.875e-06
-1.86043e-22
1.10244e-21
1.875e-06
4.67879e-22
1.12548e-21
1.875e-06
4.39779e-23
1.0287e-21
1.875e-06
1.50509e-22
1.04257e-21
1.875e-06
-2.90613e-23
9.80291e-22
1.875e-06
-1.52963e-22
8.00002e-22
1.875e-06
-8.59346e-23
6.3579e-22
1.875e-06
-9.0302e-23
4.94359e-22
1.875e-06
-4.84758e-23
4.92166e-22
1.875e-06
-1.27404e-23
5.02683e-22
1.875e-06
-4.43001e-23
4.37725e-22
1.875e-06
-3.14608e-23
5.42151e-22
1.875e-06
-5.6749e-23
6.96947e-22
1.875e-06
1.77386e-23
5.37046e-22
1.875e-06
1.47422e-22
4.44675e-22
1.875e-06
5.29964e-23
4.55083e-22
1.875e-06
-1.04061e-22
3.00987e-22
1.875e-06
-1.07175e-22
1.88506e-22
1.875e-06
-1.07547e-22
2.17149e-22
1.875e-06
2.24635e-22
1.94242e-22
1.875e-06
5.79873e-23
2.7328e-22
1.875e-06
7.36792e-24
1.52938e-22
1.875e-06
1.03745e-22
9.86085e-23
1.875e-06
-1.26105e-22
1.94114e-22
1.875e-06
5.89434e-23
1.15707e-22
1.875e-06
1.41986e-22
5.48643e-23
1.875e-06
-3.08845e-23
-8.90908e-24
1.875e-06
-6.34681e-24
-1.47703e-22
1.875e-06
-1.0084e-22
-3.53138e-22
-7.73905e-23
-2.60407e-22
1.875e-06
2.26688e-22
7.65214e-22
1.875e-06
1.19209e-22
1.04943e-21
1.875e-06
-1.33533e-23
1.10242e-21
1.875e-06
-8.74057e-24
1.32899e-21
1.875e-06
1.1411e-22
1.37703e-21
1.875e-06
2.61316e-23
1.36017e-21
1.875e-06
-1.78578e-23
1.36163e-21
1.875e-06
-1.16601e-22
1.3319e-21
1.875e-06
-1.47688e-22
1.23895e-21
1.875e-06
-6.75849e-23
1.34345e-21
1.875e-06
2.90808e-23
1.17978e-21
1.875e-06
8.97242e-23
1.16334e-21
1.875e-06
3.62524e-23
1.09408e-21
1.875e-06
6.30347e-24
9.13558e-22
1.875e-06
-5.08187e-23
9.74485e-22
1.875e-06
-1.06288e-23
8.85893e-22
1.875e-06
-4.55282e-23
6.63003e-22
1.875e-06
-5.76664e-23
5.74613e-22
1.875e-06
-1.70086e-22
5.49186e-22
1.875e-06
-8.70918e-23
5.39228e-22
1.875e-06
-7.65445e-23
4.61286e-22
1.875e-06
-8.99138e-23
4.9516e-22
1.875e-06
1.77029e-23
6.64581e-22
1.875e-06
-7.93396e-24
4.32378e-22
1.875e-06
3.34142e-23
4.06417e-22
1.875e-06
9.051e-23
5.34117e-22
1.875e-06
1.00551e-23
3.41145e-22
1.875e-06
7.21525e-23
2.2213e-22
1.875e-06
4.3063e-23
2.56756e-22
1.875e-06
-2.49712e-23
1.94391e-22
1.875e-06
-8.49699e-24
2.05469e-22
1.875e-06
-2.66428e-23
1.11524e-22
1.875e-06
-8.37174e-23
-4.03775e-24
1.875e-06
7.51905e-23
2.27034e-22
1.875e-06
1.38791e-22
2.04979e-22
1.875e-06
1.07147e-22
-8.9977e-24
1.875e-06
2.04483e-23
-6.1688e-23
1.875e-06
4.55416e-23
-2.33053e-22
1.875e-06
-1.94184e-23
-3.04324e-22
-1.6045e-22
-1.91085e-22
1.875e-06
3.7862e-23
6.54181e-22
1.875e-06
1.00982e-22
1.0305e-21
1.875e-06
4.72646e-24
1.11252e-21
1.875e-06
6.07319e-24
1.29228e-21
1.875e-06
5.49547e-23
1.33614e-21
1.875e-06
1.18841e-22
1.31504e-21
1.875e-06
2.74028e-23
1.2765e-21
1.875e-06
-1.53505e-24
1.30634e-21
1.875e-06
-3.43822e-23
1.28856e-21
1.875e-06
-1.79837e-22
1.43806e-21
1.875e-06
-9.71885e-23
1.23474e-21
1.875e-06
-2.78235e-23
1.0582e-21
1.875e-06
1.41205e-23
1.13094e-21
1.875e-06
-2.25988e-22
8.95718e-22
1.875e-06
-1.04141e-22
9.55614e-22
1.875e-06
-5.40059e-23
8.63117e-22
1.875e-06