/*--------------------------------*- C++ -*----------------------------------*\
| =========                 |                                                 |
| \\      /  F ield         | OpenFOAM: The Open Source CFD Toolbox           |
|  \\    /   O peration     | Version:  v2012                                 |
|   \\  /    A nd           | Website:  www.openfoam.com                      |
|    \\/     M anipulation  |                                                 |
\*---------------------------------------------------------------------------*/
FoamFile
{
    version     2.0;
    format      ascii;
    class       volVectorField;
    location    "38";
    object      U;
}
// * * * * * * * * * * * * * * * * * * * * * * * * * * * * * * * * * * * * * //

dimensions      [0 1 -1 0 0 0 0];


internalField   nonuniform List<vector> 
64000
(
(0.003 2.78059e-19 2.588e-19)
(0.003 5.05818e-19 4.33714e-19)
(0.003 5.09939e-19 5.29557e-19)
(0.003 4.78142e-19 5.70303e-19)
(0.003 6.17024e-19 6.02439e-19)
(0.003 6.16352e-19 5.49739e-19)
(0.003 5.70217e-19 5.08684e-19)
(0.003 4.05862e-19 4.6326e-19)
(0.003 3.80806e-19 5.52024e-19)
(0.003 5.78341e-19 5.00207e-19)
(0.003 6.10049e-19 3.75138e-19)
(0.003 5.67508e-19 5.49215e-19)
(0.003 4.93632e-19 5.24671e-19)
(0.003 4.65564e-19 4.06871e-19)
(0.003 3.81285e-19 4.54184e-19)
(0.003 3.12774e-19 4.59816e-19)
(0.003 2.491e-19 3.26626e-19)
(0.003 1.12708e-19 1.65625e-19)
(0.003 1.12051e-19 1.59933e-19)
(0.003 2.23221e-19 2.87532e-19)
(0.003 1.27069e-19 2.37699e-19)
(0.003 2.12878e-19 2.36215e-19)
(0.003 3.44097e-19 2.67456e-19)
(0.003 4.14923e-19 2.1266e-19)
(0.003 3.213e-19 1.28627e-19)
(0.003 2.05988e-19 1.30711e-19)
(0.003 1.61922e-19 1.81704e-19)
(0.003 2.60115e-19 2.30846e-19)
(0.003 2.73257e-19 2.52314e-19)
(0.003 1.28275e-19 2.88555e-19)
(0.003 5.35089e-21 2.70261e-19)
(0.003 3.02366e-20 1.62833e-19)
(0.003 1.6817e-19 8.98815e-20)
(0.003 1.00785e-19 6.61491e-20)
(0.003 8.33457e-20 1.4637e-19)
(0.003 7.14058e-20 2.00217e-19)
(0.003 -5.23374e-20 6.4346e-20)
(0.003 -1.00142e-19 1.62051e-19)
(0.003 -1.09882e-19 2.12508e-19)
(0.003 -6.54824e-20 1.21511e-19)
(0.003 2.60422e-19 4.55555e-19)
(0.003 4.23845e-19 8.99232e-19)
(0.003 6.24126e-19 1.09915e-18)
(0.003 6.06891e-19 1.08367e-18)
(0.003 5.25126e-19 1.07712e-18)
(0.003 6.74999e-19 1.14652e-18)
(0.003 6.70764e-19 1.11467e-18)
(0.003 6.27067e-19 9.14539e-19)
(0.003 6.29112e-19 8.84065e-19)
(0.003 5.97982e-19 1.14394e-18)
(0.003 5.74405e-19 1.10564e-18)
(0.003 5.05418e-19 1.02123e-18)
(0.003 4.35465e-19 9.34686e-19)
(0.003 3.14673e-19 8.56509e-19)
(0.003 2.40912e-19 8.45629e-19)
(0.003 1.84977e-19 8.01113e-19)
(0.003 4.20059e-19 7.04057e-19)
(0.003 3.79096e-19 5.44048e-19)
(0.003 1.62775e-19 4.60604e-19)
(0.003 9.32848e-20 5.00254e-19)
(0.003 2.29926e-19 4.35376e-19)
(0.003 3.37987e-19 4.80085e-19)
(0.003 3.08237e-19 5.21515e-19)
(0.003 3.77751e-19 5.7696e-19)
(0.003 2.62445e-19 4.42088e-19)
(0.003 2.47463e-19 3.35301e-19)
(0.003 3.00995e-19 2.9953e-19)
(0.003 1.83096e-19 3.25834e-19)
(0.003 9.79924e-20 4.75202e-19)
(0.003 1.15328e-19 3.88e-19)
(0.003 7.61535e-20 2.2435e-19)
(0.003 7.57865e-20 1.61305e-19)
(0.003 1.4274e-19 2.01443e-19)
(0.003 8.09588e-20 2.05948e-19)
(0.003 2.36493e-20 2.74812e-19)
(0.003 -5.12592e-20 2.39739e-19)
(0.003 -1.16529e-19 -4.93173e-21)
(0.003 -1.49994e-19 3.67017e-20)
(0.003 -9.76874e-20 1.91406e-19)
(0.003 -1.1532e-19 1.11925e-19)
(0.003 1.61647e-19 5.61879e-19)
(0.003 1.85017e-19 9.84612e-19)
(0.003 3.25923e-19 1.19805e-18)
(0.003 5.22127e-19 1.30234e-18)
(0.003 4.59416e-19 1.2655e-18)
(0.003 5.37188e-19 1.29184e-18)
(0.003 5.91455e-19 1.36565e-18)
(0.003 5.54524e-19 1.25671e-18)
(0.003 6.11919e-19 1.26157e-18)
(0.003 5.29617e-19 1.30605e-18)
(0.003 4.18598e-19 1.19539e-18)
(0.003 3.20389e-19 1.14866e-18)
(0.003 3.65508e-19 1.02931e-18)
(0.003 2.97918e-19 9.3284e-19)
(0.003 2.5701e-19 8.9353e-19)
(0.003 1.89203e-19 8.49712e-19)
(0.003 2.93705e-19 8.91029e-19)
(0.003 4.44547e-19 7.77435e-19)
(0.003 1.9664e-19 5.39062e-19)
(0.003 1.10273e-19 4.917e-19)
(0.003 2.37845e-19 5.54955e-19)
(0.003 2.25986e-19 5.67325e-19)
(0.003 2.8745e-19 5.43212e-19)
(0.003 2.41086e-19 5.5526e-19)
(0.003 2.87814e-19 4.89335e-19)
(0.003 2.11974e-19 4.73939e-19)
(0.003 1.42964e-19 4.46368e-19)
(0.003 2.17172e-20 4.55016e-19)
(0.003 1.94165e-20 4.51146e-19)
(0.003 1.10466e-19 4.4264e-19)
(0.003 1.46459e-19 4.10448e-19)
(0.003 1.03968e-19 2.84071e-19)
(0.003 -3.72807e-20 2.373e-19)
(0.003 -3.35031e-20 1.83159e-19)
(0.003 2.48843e-20 2.28448e-19)
(0.003 6.09319e-21 8.96067e-20)
(0.003 -6.38996e-20 -4.70032e-20)
(0.003 -7.55228e-20 1.33697e-19)
(0.003 -5.63992e-20 1.74613e-19)
(0.003 -1.00148e-19 8.37607e-20)
(0.003 3.60905e-19 7.00468e-19)
(0.003 2.91918e-19 1.13521e-18)
(0.003 2.25242e-19 1.31033e-18)
(0.003 3.70926e-19 1.49036e-18)
(0.003 4.2828e-19 1.42562e-18)
(0.003 4.37228e-19 1.47214e-18)
(0.003 3.8977e-19 1.47354e-18)
(0.003 3.92308e-19 1.33595e-18)
(0.003 3.74891e-19 1.3189e-18)
(0.003 4.33107e-19 1.36111e-18)
(0.003 4.19083e-19 1.37348e-18)
(0.003 3.09471e-19 1.29007e-18)
(0.003 2.64886e-19 1.13714e-18)
(0.003 2.56346e-19 1.04238e-18)
(0.003 4.8023e-19 9.99152e-19)
(0.003 5.99075e-19 8.43136e-19)
(0.003 2.63096e-19 8.08513e-19)
(0.003 1.94584e-19 8.32886e-19)
(0.003 2.683e-19 6.79014e-19)
(0.003 1.99933e-19 5.55243e-19)
(0.003 1.5769e-19 5.97675e-19)
(0.003 2.106e-19 6.17036e-19)
(0.003 2.75802e-19 6.22912e-19)
(0.003 2.40071e-19 6.49966e-19)
(0.003 2.97731e-19 6.4239e-19)
(0.003 1.66575e-19 5.13286e-19)
(0.003 6.74669e-20 4.34605e-19)
(0.003 2.90586e-20 4.0796e-19)
(0.003 9.41753e-20 4.80793e-19)
(0.003 1.21765e-20 5.11532e-19)
(0.003 -1.74737e-20 3.96962e-19)
(0.003 5.38588e-21 2.91742e-19)
(0.003 -4.80528e-20 3.00124e-19)
(0.003 -2.10918e-20 2.14716e-19)
(0.003 2.51454e-20 2.06435e-19)
(0.003 -6.1609e-20 1.46584e-19)
(0.003 4.35644e-20 5.60204e-20)
(0.003 1.04259e-19 9.01542e-20)
(0.003 2.59877e-20 1.33639e-19)
(0.003 4.33867e-20 9.98587e-20)
(0.003 1.87853e-19 7.4834e-19)
(0.003 2.74952e-19 1.24162e-18)
(0.003 1.77761e-19 1.40165e-18)
(0.003 1.85829e-19 1.55538e-18)
(0.003 2.41387e-19 1.58152e-18)
(0.003 1.85489e-19 1.61799e-18)
(0.003 1.56096e-19 1.53752e-18)
(0.003 4.04215e-19 1.37089e-18)
(0.003 4.59495e-19 1.27048e-18)
(0.003 4.0804e-19 1.43409e-18)
(0.003 3.25875e-19 1.44384e-18)
(0.003 2.73328e-19 1.26375e-18)
(0.003 2.65155e-19 1.08585e-18)
(0.003 2.38263e-19 1.12213e-18)
(0.003 4.02775e-19 1.23903e-18)
(0.003 5.70215e-19 1.11495e-18)
(0.003 3.22614e-19 8.58259e-19)
(0.003 1.61386e-19 7.54734e-19)
(0.003 2.78835e-19 6.77552e-19)
(0.003 2.79635e-19 5.63205e-19)
(0.003 1.66968e-19 5.39827e-19)
(0.003 1.35709e-19 6.47858e-19)
(0.003 1.88685e-19 6.71943e-19)
(0.003 2.12238e-19 6.73666e-19)
(0.003 1.88684e-19 6.73084e-19)
(0.003 1.67079e-19 5.83022e-19)
(0.003 1.45696e-19 4.56325e-19)
(0.003 7.24087e-20 4.75371e-19)
(0.003 6.44169e-20 5.03244e-19)
(0.003 -1.50369e-20 3.9703e-19)
(0.003 4.42341e-20 3.71882e-19)
(0.003 8.28099e-20 3.56209e-19)
(0.003 -1.1821e-20 2.6614e-19)
(0.003 -1.01339e-21 2.173e-19)
(0.003 -1.32024e-20 1.9857e-19)
(0.003 -6.63539e-20 1.41504e-19)
(0.003 5.89189e-20 1.23866e-19)
(0.003 8.4637e-20 3.73488e-20)
(0.003 -2.54138e-20 7.4825e-20)
(0.003 -2.03177e-20 1.60393e-19)
(0.003 2.50831e-20 7.57431e-19)
(0.003 1.86032e-19 1.30464e-18)
(0.003 1.10662e-19 1.42193e-18)
(0.003 8.91622e-20 1.57844e-18)
(0.003 1.76072e-19 1.66888e-18)
(0.003 1.6976e-19 1.60007e-18)
(0.003 1.772e-19 1.53516e-18)
(0.003 4.10068e-19 1.59428e-18)
(0.003 5.33761e-19 1.50813e-18)
(0.003 3.94591e-19 1.3935e-18)
(0.003 3.40723e-19 1.36683e-18)
(0.003 3.27783e-19 1.35213e-18)
(0.003 2.23983e-19 1.25207e-18)
(0.003 3.01386e-19 1.10332e-18)
(0.003 2.65171e-19 1.21241e-18)
(0.003 2.41597e-19 1.17397e-18)
(0.003 2.20213e-19 9.64946e-19)
(0.003 8.13879e-20 7.47557e-19)
(0.003 1.72152e-19 6.39926e-19)
(0.003 2.34989e-19 5.70968e-19)
(0.003 2.22626e-19 5.68159e-19)
(0.003 2.51728e-19 6.65419e-19)
(0.003 2.84713e-19 6.91683e-19)
(0.003 2.6607e-19 6.81182e-19)
(0.003 1.8065e-19 6.70949e-19)
(0.003 2.61244e-19 5.51386e-19)
(0.003 2.19842e-19 5.15551e-19)
(0.003 6.8892e-22 4.18579e-19)
(0.003 -1.38482e-19 4.53892e-19)
(0.003 -5.70404e-20 5.10537e-19)
(0.003 1.66516e-19 4.75607e-19)
(0.003 2.2218e-19 3.6043e-19)
(0.003 3.16194e-20 1.84634e-19)
(0.003 -1.53558e-20 2.46346e-19)
(0.003 -1.75437e-20 2.77687e-19)
(0.003 1.81321e-20 1.14216e-19)
(0.003 1.15131e-20 8.39323e-20)
(0.003 4.11763e-20 1.74794e-20)
(0.003 1.29123e-19 -1.65402e-21)
(0.003 8.58302e-20 1.08123e-19)
(0.003 5.38832e-20 9.04465e-19)
(0.003 1.85819e-19 1.46239e-18)
(0.003 1.79382e-19 1.46255e-18)
(0.003 6.20844e-20 1.54026e-18)
(0.003 1.46413e-19 1.72403e-18)
(0.003 1.84116e-19 1.70656e-18)
(0.003 2.76526e-19 1.59264e-18)
(0.003 4.96502e-19 1.56415e-18)
(0.003 4.84037e-19 1.58044e-18)
(0.003 3.7796e-19 1.54058e-18)
(0.003 2.60744e-19 1.49326e-18)
(0.003 2.07325e-19 1.36277e-18)
(0.003 2.26231e-19 1.21867e-18)
(0.003 3.60676e-19 1.18157e-18)
(0.003 2.22018e-19 1.23389e-18)
(0.003 1.41535e-19 1.13829e-18)
(0.003 1.61585e-19 8.9105e-19)
(0.003 1.54979e-19 6.73914e-19)
(0.003 2.12854e-19 6.32005e-19)
(0.003 1.2938e-19 5.8903e-19)
(0.003 1.71562e-19 6.51946e-19)
(0.003 3.04856e-19 7.37502e-19)
(0.003 2.6119e-19 7.29013e-19)
(0.003 1.8037e-19 7.28371e-19)
(0.003 8.20546e-20 6.49726e-19)
(0.003 2.46777e-19 6.1048e-19)
(0.003 1.60065e-19 5.34581e-19)
(0.003 4.20867e-20 3.7155e-19)
(0.003 -1.19246e-20 3.72239e-19)
(0.003 2.32332e-20 3.55979e-19)
(0.003 1.3753e-19 4.50096e-19)
(0.003 7.71813e-20 4.13015e-19)
(0.003 2.1666e-20 1.44178e-19)
(0.003 9.04273e-20 1.40182e-19)
(0.003 1.17938e-19 2.00755e-19)
(0.003 1.96985e-19 2.00309e-19)
(0.003 1.8916e-20 1.19864e-19)
(0.003 -5.65723e-20 3.31047e-20)
(0.003 4.63332e-20 5.41299e-20)
(0.003 7.15516e-20 1.07772e-19)
(0.003 1.79053e-19 8.19892e-19)
(0.003 1.84334e-19 1.37028e-18)
(0.003 1.71926e-19 1.52244e-18)
(0.003 1.80596e-19 1.64121e-18)
(0.003 2.19405e-19 1.77296e-18)
(0.003 3.03248e-19 1.71266e-18)
(0.003 3.88817e-19 1.64953e-18)
(0.003 3.212e-19 1.70124e-18)
(0.003 2.92623e-19 1.70267e-18)
(0.003 3.33908e-19 1.67146e-18)
(0.003 1.97863e-19 1.54116e-18)
(0.003 1.42154e-19 1.36234e-18)
(0.003 1.9925e-19 1.20836e-18)
(0.003 2.90144e-19 1.17276e-18)
(0.003 2.77948e-19 1.20204e-18)
(0.003 1.79e-19 1.1976e-18)
(0.003 8.52894e-20 9.21478e-19)
(0.003 1.50462e-19 6.90305e-19)
(0.003 2.75146e-19 6.31913e-19)
(0.003 2.19128e-19 4.8768e-19)
(0.003 1.24491e-19 5.7998e-19)
(0.003 1.42052e-19 8.03631e-19)
(0.003 1.24555e-19 7.74118e-19)
(0.003 1.09129e-19 7.67713e-19)
(0.003 1.4854e-19 6.95134e-19)
(0.003 1.38578e-19 6.22612e-19)
(0.003 1.61488e-19 5.35961e-19)
(0.003 1.50206e-19 3.94313e-19)
(0.003 6.3618e-20 3.05685e-19)
(0.003 1.49175e-19 3.6056e-19)
(0.003 -2.04218e-20 4.96506e-19)
(0.003 -7.50036e-20 3.7618e-19)
(0.003 3.05033e-20 2.51887e-19)
(0.003 8.37076e-20 2.3574e-19)
(0.003 2.33911e-19 2.08981e-19)
(0.003 8.86713e-20 -8.87255e-21)
(0.003 -5.34863e-20 -5.91499e-20)
(0.003 -3.5972e-20 9.05317e-20)
(0.003 -5.62224e-20 9.66955e-20)
(0.003 -1.31637e-20 5.70762e-20)
(0.003 -6.76066e-20 8.05924e-19)
(0.003 -1.84855e-20 1.52027e-18)
(0.003 1.34139e-19 1.61673e-18)
(0.003 1.68219e-19 1.6935e-18)
(0.003 2.92304e-19 1.74814e-18)
(0.003 4.5131e-19 1.79689e-18)
(0.003 4.36655e-19 1.76187e-18)
(0.003 1.64936e-19 1.68817e-18)
(0.003 1.1892e-19 1.70194e-18)
(0.003 2.3726e-19 1.72366e-18)
(0.003 2.19715e-19 1.55739e-18)
(0.003 9.0372e-20 1.3884e-18)
(0.003 1.05491e-19 1.18848e-18)
(0.003 2.20944e-19 1.17691e-18)
(0.003 2.9767e-19 1.2579e-18)
(0.003 2.05093e-19 1.17558e-18)
(0.003 2.48837e-19 9.71499e-19)
(0.003 1.60477e-19 6.8149e-19)
(0.003 -2.63054e-20 6.63027e-19)
(0.003 8.62275e-20 6.25616e-19)
(0.003 2.00144e-19 5.96198e-19)
(0.003 9.54088e-20 7.48312e-19)
(0.003 1.71556e-19 8.46758e-19)
(0.003 2.06542e-19 8.52291e-19)
(0.003 2.01052e-19 6.8169e-19)
(0.003 4.11944e-20 5.76081e-19)
(0.003 -2.88964e-20 5.41146e-19)
(0.003 8.18817e-20 4.44158e-19)
(0.003 1.15575e-19 2.92532e-19)
(0.003 6.30524e-20 4.28914e-19)
(0.003 -1.12989e-19 4.2901e-19)
(0.003 -1.27162e-19 3.5348e-19)
(0.003 5.37026e-20 2.72069e-19)
(0.003 8.93248e-20 1.90807e-19)
(0.003 4.45123e-20 -1.12908e-20)
(0.003 -1.22693e-20 -2.17038e-19)
(0.003 6.47675e-20 -3.65292e-20)
(0.003 2.1393e-20 7.60321e-20)
(0.003 -3.42851e-20 3.71625e-20)
(0.003 -4.06289e-20 8.27297e-22)
(0.003 -1.96444e-19 9.01111e-19)
(0.003 -2.90759e-20 1.41793e-18)
(0.003 1.78135e-19 1.57371e-18)
(0.003 3.32421e-19 1.75375e-18)
(0.003 2.50861e-19 1.90705e-18)
(0.003 2.36272e-19 1.8926e-18)
(0.003 3.74119e-19 1.85312e-18)
(0.003 2.53434e-19 1.78212e-18)
(0.003 1.64781e-19 1.62473e-18)
(0.003 1.43081e-19 1.62009e-18)
(0.003 2.04467e-19 1.56451e-18)
(0.003 8.48108e-20 1.29602e-18)
(0.003 5.75282e-20 1.18113e-18)
(0.003 1.18377e-19 1.24566e-18)
(0.003 1.88486e-19 1.29686e-18)
(0.003 3.07956e-19 1.21053e-18)
(0.003 3.34386e-19 9.70675e-19)
(0.003 1.59384e-19 7.05085e-19)
(0.003 -1.15499e-19 5.53963e-19)
(0.003 -1.75135e-20 5.383e-19)
(0.003 2.24923e-19 6.8267e-19)
(0.003 2.64984e-19 8.51374e-19)
(0.003 1.75826e-19 9.65995e-19)
(0.003 1.68606e-19 8.98666e-19)
(0.003 2.41089e-19 7.6937e-19)
(0.003 3.81267e-20 5.84394e-19)
(0.003 -2.17706e-19 4.42423e-19)
(0.003 -1.35639e-19 4.13547e-19)
(0.003 6.96451e-20 4.15331e-19)
(0.003 6.01724e-20 4.17801e-19)
(0.003 -3.0091e-20 2.9958e-19)
(0.003 -5.87137e-20 3.50949e-19)
(0.003 6.52999e-20 3.43613e-19)
(0.003 5.90174e-20 2.03888e-19)
(0.003 -3.85969e-20 -1.26031e-20)
(0.003 -4.89162e-21 -3.4313e-19)
(0.003 5.6907e-20 -3.8997e-19)
(0.003 1.05507e-19 -2.46643e-19)
(0.003 9.57681e-20 -1.42455e-19)
(0.003 3.86281e-20 -1.42696e-19)
(0.003 5.97449e-20 1.01088e-18)
(0.003 1.79868e-19 1.57691e-18)
(0.003 2.71065e-19 1.70399e-18)
(0.003 2.96095e-19 1.81974e-18)
(0.003 2.01169e-19 1.88e-18)
(0.003 2.11688e-19 1.89967e-18)
(0.003 1.76745e-19 1.93841e-18)
(0.003 1.91588e-19 1.86753e-18)
(0.003 1.40239e-19 1.71445e-18)
(0.003 1.56258e-19 1.59859e-18)
(0.003 2.25873e-19 1.40576e-18)
(0.003 1.62423e-19 1.21712e-18)
(0.003 1.36472e-19 1.11716e-18)
(0.003 1.43308e-19 1.09759e-18)
(0.003 1.45592e-19 1.25707e-18)
(0.003 2.48151e-19 1.28281e-18)
(0.003 2.34608e-19 1.02664e-18)
(0.003 1.38579e-19 6.82123e-19)
(0.003 8.41366e-20 5.65945e-19)
(0.003 8.093e-20 6.59484e-19)
(0.003 2.16139e-19 7.8226e-19)
(0.003 3.50267e-19 9.16026e-19)
(0.003 1.65646e-19 9.71262e-19)
(0.003 8.59619e-20 9.24289e-19)
(0.003 3.38056e-20 7.22529e-19)
(0.003 -9.35275e-20 4.83054e-19)
(0.003 -9.07046e-20 4.32152e-19)
(0.003 -9.22091e-21 4.37007e-19)
(0.003 -6.22381e-22 4.17291e-19)
(0.003 -5.15309e-20 5.22598e-19)
(0.003 -7.26238e-20 4.59462e-19)
(0.003 -6.26614e-22 3.23987e-19)
(0.003 5.62062e-20 2.90712e-19)
(0.003 -2.87777e-20 1.7088e-19)
(0.003 -1.14121e-19 -1.93253e-20)
(0.003 -7.03049e-20 -3.28832e-19)
(0.003 -1.90584e-20 -4.50669e-19)
(0.003 1.26441e-19 -2.85758e-19)
(0.003 1.91215e-19 -1.87947e-19)
(0.003 1.90349e-19 -1.99194e-19)
(0.003 2.29364e-19 1.03609e-18)
(0.003 2.25946e-19 1.64898e-18)
(0.003 1.90126e-19 1.76084e-18)
(0.003 1.7934e-19 1.77847e-18)
(0.003 2.44057e-19 1.89502e-18)
(0.003 1.92602e-19 1.97352e-18)
(0.003 1.28057e-19 1.87915e-18)
(0.003 2.48891e-19 1.84467e-18)
(0.003 1.94486e-19 1.65257e-18)
(0.003 5.91523e-20 1.6121e-18)
(0.003 1.46033e-19 1.46087e-18)
(0.003 2.22356e-19 1.24882e-18)
(0.003 2.44449e-19 1.23162e-18)
(0.003 2.05335e-19 1.19493e-18)
(0.003 1.58064e-19 1.22772e-18)
(0.003 6.73134e-20 1.16407e-18)
(0.003 5.50692e-20 9.54834e-19)
(0.003 1.88422e-19 7.16024e-19)
(0.003 3.02879e-19 6.0213e-19)
(0.003 2.66367e-19 6.70147e-19)
(0.003 1.59536e-19 8.20462e-19)
(0.003 3.99182e-20 9.0692e-19)
(0.003 2.9871e-21 8.76612e-19)
(0.003 3.0162e-20 8.88205e-19)
(0.003 -1.07497e-19 7.60772e-19)
(0.003 -1.54413e-19 5.28464e-19)
(0.003 -3.40647e-20 4.60725e-19)
(0.003 4.65787e-20 4.72056e-19)
(0.003 -2.50716e-20 3.66498e-19)
(0.003 -1.45242e-19 4.45618e-19)
(0.003 1.00641e-20 4.62056e-19)
(0.003 9.80968e-20 3.95463e-19)
(0.003 -6.54078e-20 2.60507e-19)
(0.003 -1.18999e-20 7.69638e-20)
(0.003 5.40397e-20 -3.87093e-20)
(0.003 -1.12522e-19 -2.79102e-19)
(0.003 -1.45386e-19 -4.27025e-19)
(0.003 3.76705e-20 -3.08731e-19)
(0.003 1.3102e-19 -2.40144e-19)
(0.003 1.42911e-19 -2.98084e-19)
(0.003 2.44067e-19 1.05675e-18)
(0.003 2.45451e-19 1.62761e-18)
(0.003 1.95125e-19 1.74844e-18)
(0.003 2.20692e-19 1.87611e-18)
(0.003 9.8836e-20 1.938e-18)
(0.003 -3.53303e-21 1.94711e-18)
(0.003 1.65355e-19 1.91094e-18)
(0.003 1.89835e-19 1.8474e-18)
(0.003 2.17298e-19 1.68687e-18)
(0.003 1.45169e-19 1.55299e-18)
(0.003 4.62498e-20 1.42139e-18)
(0.003 2.32985e-19 1.33252e-18)
(0.003 3.27122e-19 1.28906e-18)
(0.003 2.3095e-19 1.2462e-18)
(0.003 1.30313e-19 1.21448e-18)
(0.003 3.11629e-20 1.12632e-18)
(0.003 6.64428e-20 8.68159e-19)
(0.003 1.29369e-19 6.93643e-19)
(0.003 1.77406e-19 7.01492e-19)
(0.003 2.01039e-19 7.8246e-19)
(0.003 1.69933e-19 8.03085e-19)
(0.003 8.07541e-20 8.39518e-19)
(0.003 1.18507e-19 8.74713e-19)
(0.003 2.40759e-21 9.06041e-19)
(0.003 -1.92231e-19 7.09844e-19)
(0.003 -2.46294e-19 4.84436e-19)
(0.003 -1.85094e-19 4.59746e-19)
(0.003 2.34225e-20 4.75029e-19)
(0.003 -8.6929e-21 3.96927e-19)
(0.003 -1.88062e-19 3.68599e-19)
(0.003 4.21933e-21 4.48269e-19)
(0.003 7.41502e-20 3.99622e-19)
(0.003 -4.23343e-20 2.19136e-19)
(0.003 4.77852e-20 1.33029e-19)
(0.003 7.40495e-20 4.20984e-20)
(0.003 -6.51586e-20 -3.54169e-19)
(0.003 -1.38139e-20 -4.52454e-19)
(0.003 -5.00818e-20 -2.34591e-19)
(0.003 -2.07751e-19 -1.42338e-19)
(0.003 -1.70985e-19 -2.24926e-19)
(0.003 -1.06769e-20 1.12093e-18)
(0.003 1.82702e-19 1.74664e-18)
(0.003 2.07399e-19 1.82584e-18)
(0.003 7.58636e-20 1.92635e-18)
(0.003 -5.96416e-20 1.93452e-18)
(0.003 -1.98242e-20 1.91306e-18)
(0.003 1.7508e-19 1.89443e-18)
(0.003 2.71523e-19 1.79264e-18)
(0.003 1.73193e-19 1.63603e-18)
(0.003 3.77579e-20 1.60323e-18)
(0.003 4.26121e-21 1.45278e-18)
(0.003 2.75161e-19 1.34978e-18)
(0.003 3.53847e-19 1.35807e-18)
(0.003 1.96916e-19 1.24465e-18)
(0.003 8.80021e-20 1.20295e-18)
(0.003 8.07688e-20 1.10719e-18)
(0.003 1.23498e-19 9.46619e-19)
(0.003 2.05128e-19 7.9768e-19)
(0.003 2.11159e-19 6.83367e-19)
(0.003 1.504e-19 7.02863e-19)
(0.003 2.00865e-19 8.03565e-19)
(0.003 9.2377e-20 8.91689e-19)
(0.003 4.72452e-20 8.95638e-19)
(0.003 -6.0773e-20 8.78023e-19)
(0.003 -1.26123e-19 7.42756e-19)
(0.003 -3.5122e-20 4.25329e-19)
(0.003 -4.32071e-20 3.17674e-19)
(0.003 -1.2075e-19 4.59252e-19)
(0.003 -8.41848e-20 4.62722e-19)
(0.003 -9.23348e-20 3.50655e-19)
(0.003 -2.20384e-19 4.79577e-19)
(0.003 -1.26545e-19 4.53128e-19)
(0.003 4.21834e-20 2.69589e-19)
(0.003 -6.54823e-20 1.31811e-19)
(0.003 -1.0406e-19 -9.25272e-21)
(0.003 -8.39303e-21 -3.72476e-19)
(0.003 -3.51911e-20 -5.24385e-19)
(0.003 -9.46219e-20 -4.54027e-19)
(0.003 -2.14211e-19 -3.51887e-19)
(0.003 -3.22675e-19 -3.67346e-19)
(0.003 -2.18849e-19 1.15488e-18)
(0.003 -1.92444e-19 1.7217e-18)
(0.003 4.86137e-20 1.86142e-18)
(0.003 8.89207e-21 1.83718e-18)
(0.003 3.28972e-20 1.88784e-18)
(0.003 5.50004e-20 1.9237e-18)
(0.003 9.31471e-20 1.92303e-18)
(0.003 2.10943e-19 1.83164e-18)
(0.003 6.56257e-20 1.69928e-18)
(0.003 -8.30599e-20 1.55928e-18)
(0.003 1.2636e-19 1.45839e-18)
(0.003 2.85317e-19 1.4658e-18)
(0.003 2.61294e-19 1.44629e-18)
(0.003 1.33814e-19 1.27755e-18)
(0.003 1.2358e-19 1.09654e-18)
(0.003 1.1395e-19 1.07336e-18)
(0.003 1.4826e-19 9.4045e-19)
(0.003 2.82832e-19 8.08569e-19)
(0.003 2.14637e-19 7.98163e-19)
(0.003 2.00568e-19 7.78761e-19)
(0.003 2.03195e-19 8.24008e-19)
(0.003 6.37334e-20 8.54932e-19)
(0.003 -9.15067e-20 9.13286e-19)
(0.003 -2.03296e-19 8.60677e-19)
(0.003 -1.46655e-19 6.88771e-19)
(0.003 1.27957e-19 5.08576e-19)
(0.003 1.66021e-19 3.43146e-19)
(0.003 -9.33362e-20 4.32851e-19)
(0.003 -1.70976e-19 4.42935e-19)
(0.003 -5.95866e-20 3.4031e-19)
(0.003 -9.59163e-20 3.88735e-19)
(0.003 -1.63398e-19 4.01893e-19)
(0.003 -6.1032e-20 3.3933e-19)
(0.003 -5.20217e-20 8.02271e-20)
(0.003 -6.96072e-20 -5.92491e-21)
(0.003 -1.93644e-20 -2.665e-19)
(0.003 -1.19098e-19 -5.26174e-19)
(0.003 -1.1307e-19 -3.96467e-19)
(0.003 -5.90838e-20 -3.27686e-19)
(0.003 -1.60081e-19 -3.45226e-19)
(0.003 -7.66755e-20 1.06516e-18)
(0.003 -2.65698e-19 1.73452e-18)
(0.003 -1.90912e-19 1.95072e-18)
(0.003 -1.44417e-19 1.92898e-18)
(0.003 3.0613e-20 1.96438e-18)
(0.003 7.00371e-20 1.9417e-18)
(0.003 -1.77146e-20 1.86896e-18)
(0.003 -1.07945e-20 1.82441e-18)
(0.003 1.81422e-20 1.71523e-18)
(0.003 7.11373e-20 1.48451e-18)
(0.003 1.60324e-19 1.50344e-18)
(0.003 1.57175e-19 1.55443e-18)
(0.003 4.36532e-20 1.53568e-18)
(0.003 1.61071e-19 1.32368e-18)
(0.003 2.86559e-19 1.18236e-18)
(0.003 1.85446e-19 1.09697e-18)
(0.003 1.34702e-19 9.23594e-19)
(0.003 1.55819e-19 7.7812e-19)
(0.003 1.75876e-19 7.08987e-19)
(0.003 1.5319e-19 7.97769e-19)
(0.003 1.50509e-19 9.03805e-19)
(0.003 9.09664e-20 9.43429e-19)
(0.003 -3.12538e-20 9.38385e-19)
(0.003 -2.06057e-19 7.4862e-19)
(0.003 -1.71971e-19 5.76175e-19)
(0.003 -6.50109e-20 5.58653e-19)
(0.003 6.64405e-20 3.87855e-19)
(0.003 8.00058e-20 3.29735e-19)
(0.003 -3.36458e-20 4.08027e-19)
(0.003 2.07463e-20 3.39797e-19)
(0.003 -6.43474e-20 3.87894e-19)
(0.003 -3.30539e-20 3.55461e-19)
(0.003 -5.05262e-20 2.93501e-19)
(0.003 -1.09292e-19 1.74604e-19)
(0.003 -1.74759e-19 -2.01126e-20)
(0.003 -1.4523e-19 -3.2235e-19)
(0.003 -4.99218e-20 -3.86628e-19)
(0.003 -8.60942e-20 -1.66685e-19)
(0.003 -3.91798e-20 -1.92152e-19)
(0.003 -1.99753e-22 -2.90542e-19)
(0.003 -1.55867e-19 1.01591e-18)
(0.003 -1.36079e-19 1.64874e-18)
(0.003 -6.24471e-20 1.92225e-18)
(0.003 -1.49882e-19 1.95085e-18)
(0.003 -1.22684e-19 2.01667e-18)
(0.003 -3.82492e-22 2.03859e-18)
(0.003 -5.77302e-20 1.98265e-18)
(0.003 -1.44348e-19 1.89659e-18)
(0.003 4.73256e-20 1.76722e-18)
(0.003 2.21813e-19 1.53895e-18)
(0.003 1.41418e-19 1.497e-18)
(0.003 8.10271e-20 1.57361e-18)
(0.003 -4.69138e-20 1.49646e-18)
(0.003 7.94834e-20 1.41811e-18)
(0.003 2.45058e-19 1.22758e-18)
(0.003 1.84702e-19 1.04775e-18)
(0.003 1.0463e-19 8.62521e-19)
(0.003 -2.60387e-20 8.02223e-19)
(0.003 1.80545e-19 8.95484e-19)
(0.003 2.13042e-19 8.39178e-19)
(0.003 2.03542e-19 9.20441e-19)
(0.003 1.76852e-20 8.20354e-19)
(0.003 -2.36356e-19 7.72899e-19)
(0.003 -1.7697e-19 6.62397e-19)
(0.003 -5.07915e-20 5.6149e-19)
(0.003 -7.68585e-21 5.3319e-19)
(0.003 6.62309e-20 4.1551e-19)
(0.003 9.72632e-20 4.36441e-19)
(0.003 4.67662e-20 4.24537e-19)
(0.003 4.31095e-20 3.5375e-19)
(0.003 9.22052e-21 3.29613e-19)
(0.003 -2.21989e-20 2.99546e-19)
(0.003 -1.50787e-19 3.13186e-19)
(0.003 -2.72008e-19 2.71069e-19)
(0.003 -3.00178e-19 6.96351e-20)
(0.003 -1.96244e-19 -2.64263e-19)
(0.003 4.53481e-20 -3.30102e-19)
(0.003 6.22553e-20 -1.46364e-19)
(0.003 -3.44337e-20 -2.20719e-19)
(0.003 -5.53624e-20 -3.3161e-19)
(0.003 -1.78392e-19 9.36467e-19)
(0.003 -1.87569e-19 1.6857e-18)
(0.003 -1.2675e-19 2.00564e-18)
(0.003 -1.20237e-20 1.97983e-18)
(0.003 -4.41187e-20 1.99073e-18)
(0.003 -1.10016e-19 2.07185e-18)
(0.003 -1.64447e-19 1.97028e-18)
(0.003 -1.73337e-19 1.84858e-18)
(0.003 4.92144e-21 1.81429e-18)
(0.003 8.47477e-20 1.64268e-18)
(0.003 1.38716e-19 1.51626e-18)
(0.003 9.83079e-20 1.55412e-18)
(0.003 9.16007e-20 1.50106e-18)
(0.003 -2.09791e-21 1.39966e-18)
(0.003 6.03314e-20 1.35375e-18)
(0.003 7.88359e-20 1.16557e-18)
(0.003 1.12325e-19 9.54993e-19)
(0.003 2.10278e-19 6.95909e-19)
(0.003 2.73683e-19 7.45499e-19)
(0.003 2.89661e-19 8.39906e-19)
(0.003 6.72217e-20 9.3489e-19)
(0.003 -1.92795e-19 9.45914e-19)
(0.003 -1.88217e-19 7.54527e-19)
(0.003 -7.79631e-20 6.14395e-19)
(0.003 -9.36235e-20 5.74167e-19)
(0.003 8.36108e-21 5.75497e-19)
(0.003 8.5176e-20 5.42769e-19)
(0.003 1.89201e-20 4.98011e-19)
(0.003 2.32694e-20 3.8816e-19)
(0.003 1.40301e-21 3.40413e-19)
(0.003 1.0362e-19 2.93838e-19)
(0.003 -1.4015e-19 2.45009e-19)
(0.003 -1.90231e-19 2.31033e-19)
(0.003 -9.96347e-20 2.1747e-19)
(0.003 -1.63021e-19 1.40097e-19)
(0.003 -1.96606e-19 8.48251e-20)
(0.003 -1.16484e-19 1.08229e-20)
(0.003 -3.42952e-20 -1.40794e-19)
(0.003 -3.34576e-22 -3.63541e-19)
(0.003 8.34936e-20 -3.03273e-19)
(0.003 -6.71422e-20 1.00649e-18)
(0.003 -1.24421e-19 1.61785e-18)
(0.003 -1.54495e-19 1.84199e-18)
(0.003 3.51927e-20 1.99663e-18)
(0.003 -1.16855e-20 2.02698e-18)
(0.003 -2.37191e-19 2.0024e-18)
(0.003 -2.42951e-19 1.98258e-18)
(0.003 -1.31718e-19 1.96005e-18)
(0.003 9.69717e-20 1.87343e-18)
(0.003 1.51931e-19 1.68228e-18)
(0.003 1.54237e-20 1.57472e-18)
(0.003 -4.02967e-25 1.55434e-18)
(0.003 1.05775e-19 1.49166e-18)
(0.003 1.06229e-19 1.39181e-18)
(0.003 4.43081e-21 1.33996e-18)
(0.003 2.02788e-21 1.20752e-18)
(0.003 6.64606e-20 1.08329e-18)
(0.003 2.11672e-19 8.72123e-19)
(0.003 3.29414e-19 8.16512e-19)
(0.003 1.69462e-19 8.31232e-19)
(0.003 -1.33378e-19 8.27823e-19)
(0.003 -1.56844e-19 7.73206e-19)
(0.003 -6.58437e-20 8.12066e-19)
(0.003 -1.48176e-20 7.15023e-19)
(0.003 -1.99597e-20 5.44856e-19)
(0.003 -8.62805e-20 5.37626e-19)
(0.003 1.03694e-19 5.29813e-19)
(0.003 1.17039e-19 4.72176e-19)
(0.003 -1.02585e-20 3.52725e-19)
(0.003 -2.41731e-20 3.08678e-19)
(0.003 -7.36514e-21 3.21215e-19)
(0.003 -7.25748e-20 1.9162e-19)
(0.003 -8.95432e-20 1.8798e-19)
(0.003 -1.90137e-22 2.92242e-19)
(0.003 -3.37572e-20 1.48186e-19)
(0.003 -1.50597e-19 5.83044e-20)
(0.003 -8.73233e-20 5.39191e-20)
(0.003 -8.05571e-20 -9.42826e-21)
(0.003 2.66435e-20 -1.426e-19)
(0.003 1.60952e-19 -2.14457e-19)
(0.003 1.22215e-19 1.04744e-18)
(0.003 1.81565e-19 1.67017e-18)
(0.003 8.58804e-20 1.79072e-18)
(0.003 -8.54839e-20 1.90148e-18)
(0.003 -1.94793e-19 1.996e-18)
(0.003 -1.77304e-19 1.92665e-18)
(0.003 -1.93548e-19 1.88107e-18)
(0.003 -1.88371e-19 1.9251e-18)
(0.003 -8.99757e-20 1.98357e-18)
(0.003 7.77412e-20 1.85192e-18)
(0.003 1.07998e-19 1.584e-18)
(0.003 9.65167e-20 1.57566e-18)
(0.003 1.64511e-19 1.44451e-18)
(0.003 2.1913e-19 1.44349e-18)
(0.003 -1.84885e-20 1.39915e-18)
(0.003 -1.25603e-19 1.22908e-18)
(0.003 -1.2143e-19 9.66884e-19)
(0.003 -1.10608e-19 8.19489e-19)
(0.003 -1.96401e-21 9.64372e-19)
(0.003 2.70203e-20 8.19342e-19)
(0.003 -6.74545e-20 7.52729e-19)
(0.003 -3.09228e-21 8.31966e-19)
(0.003 -6.41319e-20 8.75299e-19)
(0.003 -1.18991e-20 6.99876e-19)
(0.003 1.16631e-19 4.97301e-19)
(0.003 6.54871e-21 5.14771e-19)
(0.003 9.30414e-21 6.61792e-19)
(0.003 7.34393e-20 5.83806e-19)
(0.003 5.89742e-20 3.25203e-19)
(0.003 -1.73423e-20 1.81784e-19)
(0.003 -4.62072e-20 3.2714e-19)
(0.003 -1.34039e-20 2.63604e-19)
(0.003 5.36553e-21 1.77281e-19)
(0.003 -3.21007e-20 2.26489e-19)
(0.003 5.71821e-20 1.85019e-19)
(0.003 9.39996e-20 1.45139e-19)
(0.003 3.36588e-20 7.09939e-20)
(0.003 -8.4842e-20 -1.24167e-19)
(0.003 -7.94165e-20 -3.07526e-19)
(0.003 -7.55737e-20 -3.22732e-19)
(0.003 3.2761e-19 1.03122e-18)
(0.003 2.69403e-19 1.61622e-18)
(0.003 4.72795e-20 1.78039e-18)
(0.003 -9.09803e-20 1.87266e-18)
(0.003 -5.76974e-20 1.87231e-18)
(0.003 2.73183e-20 1.90967e-18)
(0.003 -2.34954e-20 1.89439e-18)
(0.003 -2.19263e-19 1.84475e-18)
(0.003 -2.7989e-19 1.88127e-18)
(0.003 -7.43385e-20 1.94631e-18)
(0.003 1.73271e-19 1.80391e-18)
(0.003 1.71744e-19 1.69373e-18)
(0.003 1.21459e-19 1.51594e-18)
(0.003 1.47658e-19 1.44174e-18)
(0.003 -6.26179e-20 1.3713e-18)
(0.003 -1.30237e-19 1.15751e-18)
(0.003 -9.17275e-20 9.46313e-19)
(0.003 -1.06578e-19 8.20368e-19)
(0.003 -1.86642e-19 9.83684e-19)
(0.003 -1.06691e-19 9.15719e-19)
(0.003 -9.5751e-20 7.89211e-19)
(0.003 -8.83254e-20 7.55403e-19)
(0.003 -6.09914e-20 7.75675e-19)
(0.003 -4.35288e-20 6.66299e-19)
(0.003 1.30859e-19 6.31545e-19)
(0.003 1.29677e-19 5.65547e-19)
(0.003 -6.31063e-20 5.21203e-19)
(0.003 -3.49864e-21 4.77243e-19)
(0.003 8.64789e-20 3.56416e-19)
(0.003 4.44013e-20 2.49768e-19)
(0.003 6.50932e-21 3.32397e-19)
(0.003 -2.88749e-20 2.17972e-19)
(0.003 -5.81643e-20 1.37898e-19)
(0.003 -1.9296e-20 1.9813e-19)
(0.003 1.44744e-19 2.1897e-19)
(0.003 2.24903e-19 1.98022e-19)
(0.003 3.16104e-20 1.97399e-21)
(0.003 -7.71449e-21 -2.45411e-19)
(0.003 -1.45225e-19 -3.45331e-19)
(0.003 -2.68473e-19 -2.03406e-19)
(0.003 2.42993e-19 1.04358e-18)
(0.003 2.18102e-19 1.6492e-18)
(0.003 -1.32603e-20 1.81484e-18)
(0.003 2.68545e-20 1.83418e-18)
(0.003 1.71308e-19 1.89392e-18)
(0.003 1.60436e-19 1.89163e-18)
(0.003 3.78866e-20 1.87593e-18)
(0.003 -1.18892e-19 1.77057e-18)
(0.003 -1.82122e-19 1.79869e-18)
(0.003 -2.12425e-19 1.96637e-18)
(0.003 -7.82037e-20 1.88841e-18)
(0.003 6.43139e-20 1.72033e-18)
(0.003 5.35494e-20 1.59214e-18)
(0.003 -1.66642e-19 1.46881e-18)
(0.003 -1.70351e-19 1.35105e-18)
(0.003 -8.77778e-20 1.20404e-18)
(0.003 -1.35338e-19 1.04105e-18)
(0.003 -1.81576e-19 8.69648e-19)
(0.003 -2.61929e-19 9.10068e-19)
(0.003 -1.27303e-19 9.0607e-19)
(0.003 -1.90694e-20 7.84793e-19)
(0.003 -3.67615e-20 7.53044e-19)
(0.003 8.36308e-20 7.61989e-19)
(0.003 7.49462e-20 6.24641e-19)
(0.003 3.71778e-20 5.37405e-19)
(0.003 1.19694e-19 5.50177e-19)
(0.003 1.95761e-20 5.28186e-19)
(0.003 4.42075e-20 5.38328e-19)
(0.003 5.04394e-20 4.37708e-19)
(0.003 2.12609e-21 2.25316e-19)
(0.003 2.46775e-20 2.36436e-19)
(0.003 4.54798e-20 1.75388e-19)
(0.003 -3.5963e-20 5.9047e-20)
(0.003 6.47539e-20 1.75649e-19)
(0.003 2.52337e-19 3.45718e-19)
(0.003 1.95242e-19 1.79713e-19)
(0.003 9.0969e-20 -2.26102e-19)
(0.003 2.29887e-20 -3.641e-19)
(0.003 1.7715e-20 -2.56309e-19)
(0.003 -4.67613e-20 -1.07742e-19)
(0.003 -1.11853e-19 1.06491e-18)
(0.003 -7.19944e-20 1.70346e-18)
(0.003 6.06009e-20 1.78781e-18)
(0.003 2.65929e-20 1.78202e-18)
(0.003 3.24655e-20 1.85296e-18)
(0.003 1.02761e-19 1.96694e-18)
(0.003 8.69027e-20 1.86855e-18)
(0.003 1.14394e-19 1.67384e-18)
(0.003 -7.61287e-20 1.793e-18)
(0.003 -1.87707e-19 1.86723e-18)
(0.003 -1.29402e-19 1.8058e-18)
(0.003 -1.35071e-19 1.77532e-18)
(0.003 -2.28063e-19 1.6476e-18)
(0.003 -2.34971e-19 1.37599e-18)
(0.003 -1.12381e-19 1.18502e-18)
(0.003 -1.18128e-19 1.14427e-18)
(0.003 -2.27409e-19 1.05112e-18)
(0.003 -1.92415e-19 9.35605e-19)
(0.003 -1.96373e-19 9.03838e-19)
(0.003 -2.36343e-19 9.52816e-19)
(0.003 -9.01509e-20 8.02348e-19)
(0.003 8.59898e-20 7.57981e-19)
(0.003 1.9433e-19 7.94034e-19)
(0.003 1.73899e-19 6.91776e-19)
(0.003 1.07491e-19 6.40161e-19)
(0.003 6.87152e-20 6.09464e-19)