/*--------------------------------*- C++ -*----------------------------------*\
| =========                 |                                                 |
| \\      /  F ield         | OpenFOAM: The Open Source CFD Toolbox           |
|  \\    /   O peration     | Version:  v2012                                 |
|   \\  /    A nd           | Website:  www.openfoam.com                      |
|    \\/     M anipulation  |                                                 |
\*---------------------------------------------------------------------------*/
FoamFile
{
    version     2.0;
    format      ascii;
    class       volScalarField;
    location    "10/leftSolid";
    object      T;
}
// * * * * * * * * * * * * * * * * * * * * * * * * * * * * * * * * * * * * * //

dimensions      [0 0 0 1 0 0 0];


internalField   nonuniform List<scalar> 
130
(
338.51714
338.54703
338.56511
338.5331
338.49582
338.4624
338.44064
338.43138
338.43092
338.4369
338.44671
338.45701
338.45461
338.49538
338.49199
338.50892
338.52826
338.53878
338.50501
338.47174
338.45446
338.45526
338.47268
338.49793
338.52372
338.51868
338.4671
338.49869
338.5439
338.57511
338.56367
338.53189
338.50146
338.47767
338.48483
338.52307
338.56193
338.58453
338.5821
338.4724
338.51483
338.56627
338.58537
338.55005
338.50122
338.46283
338.45729
338.49061
338.52828
338.53476
338.51293
338.47633
338.46403
338.50273
338.55373
338.57757
338.53007
338.47726
338.45005
338.47204
338.5215
338.5275
338.47793
338.40966
338.3285
338.46403
338.50273
338.55373
338.57757
338.53007
338.47726
338.45005
338.47204
338.5215
338.5275
338.47793
338.40966
338.3285
338.4724
338.51483
338.56627
338.58537
338.55005
338.50122
338.46283
338.45729
338.49061
338.52828
338.53476
338.51293
338.47632
338.4671
338.49869
338.5439
338.57511
338.56367
338.53189
338.50147
338.47767
338.48483
338.52307
338.56193
338.58453
338.5821
338.49538
338.49199
338.50892
338.52826
338.53878
338.50501
338.47174
338.45446
338.45526
338.47268
338.49792
338.52372
338.51868
338.51714
338.54703
338.56511
338.5331
338.49582
338.4624
338.44064
338.43138
338.43092
338.4369
338.44671
338.45701
338.45461
)
;

boundaryField
{
    minX
    {
        type            zeroGradient;
    }
    minZ
    {
        type            zeroGradient;
    }
    maxZ
    {
        type            zeroGradient;
    }
    leftSolid_to_bottomWater
    {
        type            compressible::turbulentTemperatureCoupledBaffleMixed;
        refValue        nonuniform List<scalar> 
130
(
1050.5575
1056.8645
1062.3552
1055.9234
1051.1129
1046.7775
1043.3444
1041.6827
1041.6646
1042.83
1044.384
1045.9474
1043.8477
1050.8754
1046.0639
1047.8707
1052.3987
1059.9775
1053.9752
1048.0314
1044.4916
1044.8284
1048.6725
1052.8418
1057.5613
1052.7858
1045.0907
1050.0947
1056.4022
1061.8441
1061.7908
1059.775
1056.2273
1048.1416
1049.1722
1057.9997
1063.5076
1065.5891
1064.0537
1047.1338
1053.7409
1060.5189
1063.6008
1060.1805
1054.3954
1047.3798
1045.4959
1053.6099
1060.7356
1060.2483
1057.9101
1052.4588
1045.5416
1050.8133
1058.069
1064.1851
1056.6633
1050.0927
1045.0266
1050.644
1060.75
1059.933
1053.6003
1050.7159
1040.2544
1045.5416
1050.8134
1058.069
1064.1851
1056.6633
1050.0926
1045.0265
1050.6441
1060.7499
1059.9334
1053.6003
1050.7157
1040.2539
1047.1338
1053.7409
1060.519
1063.6008
1060.1805
1054.3954
1047.3798
1045.4962
1053.6107
1060.7356
1060.2482
1057.9098
1052.4583
1045.0906
1050.0946
1056.4021
1061.8441
1061.7909
1059.7752
1056.2276
1048.1418
1049.1721
1057.9998
1063.5078
1065.5892
1064.0536
1050.8753
1046.0639
1047.8707
1052.3987
1059.9775
1053.9752
1048.0317
1044.4918
1044.828
1048.6722
1052.8418
1057.5617
1052.7858
1050.5573
1056.8642
1062.355
1055.9233
1051.1129
1046.7776
1043.3446
1041.6827
1041.6644
1042.8296
1044.3838
1045.9475
1043.8477
)
;
        refGradient     uniform 0;
        valueFraction   nonuniform List<scalar> 
130
(
0.0075140686
0.0075140686
0.0075140686
0.0075140686
0.0075140686
0.0075140686
0.0075140686
0.0075140686
0.0075140686
0.0075140686
0.0075140686
0.0075140686
0.0075140686
0.0075140686
0.0075140686
0.0075140686
0.0075140686
0.0075140686
0.0075140686
0.0075140686
0.0075140686
0.0075140686
0.0075140686
0.0075140686
0.0075140686
0.0075140686
0.0075140686
0.0075140686
0.0075140686
0.0075140686
0.0075140686
0.0075140686
0.0075140686
0.0075140686
0.0075140686
0.0075140686
0.0075140686
0.0075140686
0.0075140686
0.0075140686
0.0075140686
0.0075140686
0.0075140686
0.0075140686
0.0075140686
0.0075140686
0.0075140686
0.0075140686
0.0075140686
0.0075140686
0.0075140686
0.0075140686
0.0075140686
0.0075140686
0.0075140686
0.0075140686
0.0075140686
0.0075140686
0.0075140686
0.0075140686
0.0075140686
0.0075140686
0.0075140686
0.0075140686
0.0075140686
0.0075140686
0.0075140686
0.0075140686
0.0075140686
0.0075140686
0.0075140686
0.0075140686
0.0075140686
0.0075140686
0.0075140686
0.0075140686
0.0075140686
0.0075140686
0.0075140686
0.0075140686
0.0075140686
0.0075140686
0.0075140686
0.0075140686
0.0075140686
0.0075140686
0.0075140686
0.0075140686
0.0075140686
0.0075140686
0.0075140686
0.0075140686
0.0075140686
0.0075140686
0.0075140686
0.0075140686
0.0075140686
0.0075140686
0.0075140686
0.0075140686
0.0075140686
0.0075140686
0.0075140686
0.0075140686
0.0075140686
0.0075140686
0.0075140686
0.0075140686
0.0075140686
0.0075140686
0.0075140686
0.0075140686
0.0075140686
0.0075140686
0.0075140686
0.0075140686
0.0075140686
0.0075140686
0.0075140686
0.0075140686
0.0075140686
0.0075140686
0.0075140686
0.0075140686
0.0075140686
0.0075140686
0.0075140686
0.0075140686
0.0075140686
0.0075140686
)
;
        value           nonuniform List<scalar> 
130
(
343.78619
343.86315
343.92213
343.84202
343.76908
343.70373
343.65678
343.63536
343.63478
343.64932
343.67051
343.69236
343.67429
343.76723
343.72767
343.75788
343.8109
343.87815
343.79971
343.72245
343.67907
343.68234
343.72812
343.78412
343.84508
343.80432
343.69578
343.76448
343.85643
343.9281
343.9161
343.8695
343.81303
343.72918
343.74382
343.84753
343.92727
343.9654
343.9515
343.71627
343.80771
343.9094
343.95132
343.89044
343.79883
343.70847
343.68891
343.78245
343.8731
343.87602
343.8369
343.75971
343.69611
343.7738
343.87854
343.94797
343.84437
343.74296
343.67826
343.74201
343.86674
343.86663
343.76988
343.68048
343.52126
343.69611
343.7738
343.87855
343.94797
343.84437
343.74296
343.67826
343.74201
343.86674
343.86663
343.76988
343.68048
343.52126
343.71627
343.80771
343.9094
343.95132
343.89045
343.79884
343.70847
343.68891
343.78245
343.87311
343.87602
343.8369
343.75971
343.69578
343.76447
343.85643
343.9281
343.91611
343.8695
343.81303
343.72919
343.74382
343.84753
343.92727
343.9654
343.95149
343.76723
343.72767
343.75788
343.8109
343.87815
343.79971
343.72245
343.67907
343.68233
343.72812
343.78412
343.84508
343.80432
343.78619
343.86314
343.92213
343.84202
343.76908
343.70374
343.65678
343.63536
343.63478
343.64931
343.67051
343.69236
343.67429
)
;
        Tnbr            T;
        thicknessLayers List<scalar> 0();
        kappaLayers     List<scalar> 0();
        kappaMethod     solidThermo;
        kappa           none;
        alphaAni        none;
        alpha           none;
        field           T;
    }
    leftSolid_to_heater
    {
        type            compressible::turbulentTemperatureCoupledBaffleMixed;
        refValue        nonuniform List<scalar> 10(337.97457 337.59507 336.46976 334.28698 331.27773 331.27783 334.28703 336.46977 337.59499 337.97423);
        refGradient     uniform 0;
        valueFraction   nonuniform List<scalar> 10(2.08329e-05 2.08329e-05 2.08329e-05 2.08329e-05 2.08329e-05 2.08329e-05 2.08329e-05 2.08329e-05 2.08329e-05 2.08329e-05);
        value           nonuniform List<scalar> 10(338.3733 338.43663 338.49959 338.3941 338.24618 338.24618 338.39409 338.49959 338.43663 338.3733);
        Tnbr            T;
        thicknessLayers List<scalar> 1(0.001);
        kappaLayers     List<scalar> 1(0.0005);
        kappaMethod     solidThermo;
        kappa           none;
        alphaAni        none;
        alpha           none;
        field           T;
    }
    leftSolid_to_topAir
    {
        type            compressible::turbulentTemperatureCoupledBaffleMixed;
        refValue        nonuniform List<scalar> 
130
(
301.60155
303.16334
304.64038
306.03296
307.3446
308.57951
309.74192
310.83581
311.86486
312.83259
313.74237
314.59738
315.39926
301.60012
303.14066
304.58004
305.92489
307.18166
308.35524
309.45185
310.47764
311.43818
312.33838
313.18231
313.97315
314.70404
301.5991
303.14369
304.58803
305.93608
307.19243
308.36301
309.45427
310.47245
311.4242
312.31557
313.15086
313.93324
314.66263
301.59932
303.14549
304.59269
305.94358
307.2019
308.37374
309.46587
310.48546
311.43936
312.33248
313.16796
313.94868
314.67293
301.59901
303.14521
304.59303
305.94514
307.20434
308.37698
309.47037
310.49222
311.44879
312.343
313.17711
313.95452
314.67032
301.59901
303.14521
304.59303
305.94514
307.20434
308.37698
309.47037
310.49222
311.44879
312.343
313.17711
313.95452
314.67032
301.59932
303.14549
304.59269
305.94358
307.2019
308.37374
309.46587
310.48546
311.43936
312.33248
313.16796
313.94868
314.67293
301.5991
303.14369
304.58803
305.93608
307.19243
308.36301
309.45427
310.47245
311.4242
312.31557
313.15086
313.93324
314.66263
301.60012
303.14066
304.58004
305.92489
307.18166
308.35524
309.45185
310.47764
311.43818
312.33838
313.18231
313.97315
314.70404
301.60155
303.16334
304.64038
306.03296
307.3446
308.57951
309.74192
310.83581
311.86486
312.83258
313.74237
314.59738
315.39926
)
;
        refGradient     uniform 0;
        valueFraction   nonuniform List<scalar> 
130
(
0.00032132529
0.00032132529
0.00032132529
0.00032132529
0.00032132529
0.00032132529
0.00032132529
0.00032132529
0.00032132529
0.00032132529
0.00032132529
0.00032132529
0.00032132529
0.00032132529
0.00032132529
0.00032132529
0.00032132529
0.00032132529
0.00032132529
0.00032132529
0.00032132529
0.00032132529
0.00032132529
0.00032132529
0.00032132529
0.00032132529
0.00032132529
0.00032132529
0.00032132529
0.00032132529
0.00032132529
0.00032132529
0.00032132529
0.00032132529
0.00032132529
0.00032132529
0.00032132529
0.00032132529
0.00032132529
0.00032132529
0.00032132529
0.00032132529
0.00032132529
0.00032132529
0.00032132529
0.00032132529
0.00032132529
0.00032132529
0.00032132529
0.00032132529
0.00032132529
0.00032132529
0.00032132529
0.00032132529
0.00032132529
0.00032132529
0.00032132529
0.00032132529
0.00032132529
0.00032132529
0.00032132529
0.00032132529
0.00032132529
0.00032132529
0.00032132529
0.00032132529
0.00032132529
0.00032132529
0.00032132529
0.00032132529
0.00032132529
0.00032132529
0.00032132529
0.00032132529
0.00032132529
0.00032132529
0.00032132529
0.00032132529
0.00032132529
0.00032132529
0.00032132529
0.00032132529
0.00032132529
0.00032132529
0.00032132529
0.00032132529
0.00032132529
0.00032132529
0.00032132529
0.00032132529
0.00032132529
0.00032132529
0.00032132529
0.00032132529
0.00032132529
0.00032132529
0.00032132529
0.00032132529
0.00032132529
0.00032132529
0.00032132529
0.00032132529
0.00032132529
0.00032132529
0.00032132529
0.00032132529
0.00032132529
0.00032132529
0.00032132529
0.00032132529
0.00032132529
0.00032132529
0.00032132529
0.00032132529
0.00032132529
0.00032132529
0.00032132529
0.00032132529
0.00032132529
0.00032132529
0.00032132529
0.00032132529
0.00032132529
0.00032132529
0.00032132529
0.00032132529
0.00032132529
0.00032132529
0.00032132529
0.00032132529
)
;
        value           nonuniform List<scalar> 
130
(
338.42342
338.4537
338.47203
338.44047
338.40383
338.37122
338.35028
338.34164
338.34152
338.34765
338.35753
338.36798
338.36592
338.40192
338.39898
338.4162
338.43576
338.44654
338.41334
338.38086
338.36428
338.36534
338.38265
338.40777
338.4337
338.42903
338.37373
338.40555
338.45089
338.48233
338.47105
338.43974
338.41007
338.38714
338.39438
338.43232
338.47122
338.49412
338.49197
338.3789
338.4215
338.47309
338.49242
338.4574
338.40928
338.37171
338.3666
338.39971
338.43738
338.44427
338.42282
338.38656
338.37065
338.4095
338.46055
338.48462
338.43761
338.38557
338.35909
338.38112
338.43058
338.43693
338.38768
338.31971
338.23875
338.37065
338.4095
338.46055
338.48462
338.43761
338.38557
338.35909
338.38112
338.43058
338.43693
338.38768
338.31971
338.23875
338.3789
338.4215
338.47309
338.49242
338.4574
338.40928
338.37171
338.3666
338.39971
338.43738
338.44427
338.42282
338.38656
338.37373
338.40554
338.45089
338.48233
338.47105
338.43974
338.41007
338.38714
338.39438
338.43232
338.47122
338.49412
338.49197
338.40192
338.39898
338.4162
338.43576
338.44654
338.41334
338.38086
338.36428
338.36534
338.38265
338.40777
338.4337
338.42903
338.42342
338.4537
338.47203
338.44046
338.40383
338.37122
338.35028
338.34164
338.34152
338.34765
338.35753
338.36798
338.36592
)
;
        Tnbr            T;
        thicknessLayers List<scalar> 0();
        kappaLayers     List<scalar> 0();
        kappaMethod     solidThermo;
        kappa           none;
        alphaAni        none;
        alpha           none;
        field           T;
    }
}


// ************************************************************************* //
