/*--------------------------------*- C++ -*----------------------------------*\
| =========                 |                                                 |
| \\      /  F ield         | OpenFOAM: The Open Source CFD Toolbox           |
|  \\    /   O peration     | Version:  v2012                                 |
|   \\  /    A nd           | Website:  www.openfoam.com                      |
|    \\/     M anipulation  |                                                 |
\*---------------------------------------------------------------------------*/
FoamFile
{
    version     2.0;
    format      ascii;
    class       volScalarField;
    location    "31";
    object      p;
}
// * * * * * * * * * * * * * * * * * * * * * * * * * * * * * * * * * * * * * //

dimensions      [0 2 -2 0 0 0 0];


internalField   nonuniform List<scalar> 
64000
(
5.82022e-22
-2.8309e-21
-2.57783e-21
-4.8901e-21
-8.3743e-21
-2.86974e-21
-4.50422e-21
-4.17637e-21
-5.36249e-21
-4.24308e-21
-5.13827e-21
-6.30276e-21
-4.15191e-21
-6.34848e-21
-3.80451e-21
-5.12682e-21
-1.03772e-21
-7.07594e-22
-1.43893e-21
-1.69071e-21
-1.56664e-21
-2.06186e-21
-2.03104e-21
6.50175e-23
-5.38281e-21
-1.92024e-21
2.54954e-22
-4.45421e-21
-3.11407e-21
-1.58637e-21
-1.69017e-21
-1.90919e-22
-5.21087e-22
-8.44646e-22
-1.20363e-21
-4.60497e-21
-2.78709e-22
-5.85909e-22
-7.44242e-22
-1.21731e-21
-6.94212e-21
-9.57995e-21
-9.84845e-21
-7.79597e-21
-1.05896e-20
-1.15033e-20
-8.74795e-21
-4.97912e-21
-3.83764e-21
-9.15889e-21
-1.05347e-20
-1.05552e-20
-4.96073e-21
-4.92173e-21
-6.03167e-21
-5.64709e-21
-3.5958e-21
2.09776e-21
-1.80295e-21
-3.42323e-21
1.15888e-21
-2.98511e-21
-4.95418e-21
-7.94828e-21
-5.95357e-21
-3.51452e-21
-3.64426e-21
-5.53288e-21
-3.6666e-21
-1.015e-21
1.74978e-21
3.20496e-23
-3.78553e-21
-2.53867e-21
-1.16949e-21
-1.99981e-21
-1.04813e-21
8.41899e-22
-2.8277e-22
-1.66697e-21
-5.89039e-21
-8.62263e-21
-1.2762e-20
-1.06236e-20
-9.25867e-21
-1.13975e-20
-9.9227e-21
-7.99254e-21
-9.173e-21
-9.9117e-21
-7.58027e-21
-8.59127e-21
-7.8846e-21
-4.55188e-21
-3.58708e-21
-1.42913e-21
-8.55461e-21
-2.86454e-21
1.00823e-21
-1.33697e-21
-2.46457e-21
-5.53802e-21
-5.67693e-21
-5.91907e-21
-4.0311e-21
-5.43575e-21
-5.46069e-21
-5.47246e-21
-1.67857e-21
-1.9191e-21
-1.18249e-21
-7.17827e-22
-3.21549e-21
5.19761e-22
-9.77444e-22
-4.79643e-21
2.17692e-21
2.37705e-21
-6.47603e-23
-1.59703e-22
-8.56731e-21
-9.11599e-21
-1.06458e-20
-1.4383e-20
-1.26733e-20
-1.35314e-20
-1.06127e-20
-7.46421e-21
-9.96045e-21
-1.03888e-20
-8.6119e-21
-9.61366e-21
-8.89682e-21
-4.20876e-21
-4.8347e-21
-4.13763e-21
-5.34499e-21
-4.1376e-21
1.01757e-21
-4.30577e-22
-3.85236e-21
-6.7965e-21
-7.68977e-21
-7.01537e-21
-7.23791e-21
-3.71538e-21
-3.81148e-21
-3.11169e-21
-2.67263e-21
-2.14167e-21
2.36592e-22
-1.5369e-21
-1.1795e-21
-1.69127e-22
-9.20987e-22
-2.17604e-21
-2.22061e-22
-5.42236e-23
-1.09262e-21
-2.44376e-23
-1.56612e-20
-1.0378e-20
-1.12077e-20
-1.25369e-20
-1.24764e-20
-1.45092e-20
-1.08547e-20
-5.22685e-21
-8.88854e-21
-1.21142e-20
-9.56419e-21
-9.22698e-21
-7.27743e-21
-3.38083e-21
-9.24784e-21
-1.22295e-20
-5.03704e-21
-2.38793e-21
-2.11914e-21
-2.40145e-21
-2.72487e-21
-7.36777e-21
-9.63378e-21
-7.34568e-21
-5.16797e-21
-4.31564e-21
-2.55919e-21
-2.96519e-21
-4.82589e-21
-2.57486e-22
9.78246e-22
1.83815e-21
5.59587e-22
4.93779e-22
-2.89638e-21
-2.68075e-21
-1.29203e-21
-1.55698e-21
3.64781e-22
-3.56166e-22
-1.22779e-20
-1.20101e-20
-1.03318e-20
-1.40046e-20
-1.2486e-20
-1.17467e-20
-8.71336e-21
-1.19867e-20
-1.19063e-20
-1.12858e-20
-9.22264e-21
-9.62218e-21
-8.29043e-21
-4.00312e-21
-8.05461e-21
-1.03246e-20
-5.23765e-21
-2.12436e-21
-2.37881e-21
-4.97113e-21
-9.04909e-22
-5.52728e-21
-1.08105e-20
-7.98318e-21
-7.35283e-21
-4.01033e-21
-3.95026e-21
-7.92667e-22
-1.83651e-21
-2.31056e-21
-1.68328e-21
-1.206e-21
-1.26551e-22
5.11531e-22
-9.08007e-22
-3.36673e-22
-2.66229e-21
-1.6108e-21
-1.01571e-22
1.13599e-21
-1.28594e-20
-1.49965e-20
-9.21259e-21
-1.1089e-20
-1.22245e-20
-1.20838e-20
-9.21538e-21
-1.13573e-20
-1.26088e-20
-1.11025e-20
-9.55421e-21
-1.10659e-20
-7.6034e-21
-6.90351e-21
-7.78479e-21
-8.36402e-21
-5.41842e-21
-6.69238e-22
-7.35348e-22
-4.08039e-21
-4.55219e-21
-7.92669e-21
-1.25466e-20
-1.148e-20
-4.61133e-21
-4.36407e-21
-3.24189e-21
-3.78567e-22
-5.46101e-22
-7.131e-23
-3.4794e-21
-3.59174e-21
9.94043e-22
5.92825e-22
-6.62664e-22
-2.58442e-21
-1.73433e-21
-8.29604e-22
-1.08329e-21
-4.27434e-22
-1.37811e-20
-1.28848e-20
-1.11836e-20
-9.89719e-21
-1.18781e-20
-9.97737e-21
-9.16497e-21
-1.68159e-20
-1.43524e-20
-1.14883e-20
-9.43752e-21
-8.9276e-21
-8.44208e-21
-9.14988e-21
-6.78203e-21
-8.38419e-21
-4.14722e-21
-2.17491e-21
-4.19601e-21
-3.74028e-21
-5.29939e-21
-7.5953e-21
-8.36465e-21
-9.38376e-21
-5.76298e-21
-4.92146e-21
-2.95192e-21
-1.35132e-22
-7.39364e-22
-2.25314e-21
-2.99197e-21
-2.68515e-21
7.92467e-22
-1.22645e-21
-3.99417e-21
-5.66052e-21
-1.4661e-21
2.92614e-22
1.55559e-23
-9.0342e-22
-1.8912e-20
-1.45217e-20
-1.05028e-20
-1.12563e-20
-1.26582e-20
-1.37792e-20
-1.2249e-20
-1.18229e-20
-1.35155e-20
-1.41268e-20
-7.41545e-21
-8.48915e-21
-8.25488e-21
-1.04582e-20
-9.54748e-21
-8.66541e-21
-4.11451e-21
1.54919e-21
-6.52562e-21
-7.30462e-21
-2.85685e-21
-7.27598e-21
-9.46778e-21
-9.96719e-21
-3.05909e-21
-3.52888e-21
-5.54951e-21
-2.76147e-21
1.71084e-22
-3.48524e-21
-1.60518e-21
-1.033e-21
3.0641e-22
-1.61547e-21
-5.31918e-21
-3.31965e-21
-3.80907e-21
1.81873e-21
1.63316e-21
-8.84551e-22
-1.10744e-20
-1.30307e-20
-1.20974e-20
-1.11345e-20
-1.4028e-20
-1.46737e-20
-1.19671e-20
-1.14143e-20
-1.30079e-20
-1.33375e-20
-9.98884e-21
-8.47086e-21
-8.49694e-21
-1.04956e-20
-9.7685e-21
-6.60323e-21
-5.06735e-21
-2.99304e-21
1.15332e-22
-2.59342e-21
-6.01786e-21
-6.53925e-21
-1.08027e-20
-9.64074e-21
-6.73017e-21
-2.36491e-21
-2.81408e-21
-6.72647e-23
-2.58294e-21
-2.57312e-21
-1.90362e-21
-4.96068e-22
-1.00803e-21
-1.41063e-21
-4.99045e-21
-4.47551e-21
-2.64944e-21
1.37516e-22
5.94125e-22
3.34447e-22
-1.04129e-20
-1.36896e-20
-1.26508e-20
-1.51873e-20
-1.1899e-20
-1.36076e-20
-1.64558e-20
-9.75848e-21
-1.45198e-20
-1.485e-20
-9.31397e-21
-6.52461e-21
-6.98442e-21
-1.03207e-20
-9.86099e-21
-9.05729e-21
-5.01599e-21
-2.0941e-21
1.7427e-21
-1.62235e-21
-8.54928e-21
-1.1052e-20
-8.68681e-21
-8.15114e-21
-7.08984e-21
-3.60539e-21
9.46959e-22
-1.49544e-22
-2.16516e-21
-3.24062e-21
-4.17242e-21
1.49417e-21
-2.84815e-21
-1.51271e-21
-3.57754e-21
-5.72372e-21
-1.46675e-21
-1.88827e-21
8.40512e-22
9.89221e-22
-1.12648e-20
-1.42577e-20
-1.42043e-20
-1.32391e-20
-1.32535e-20
-1.61386e-20
-1.21775e-20
-1.32946e-20
-1.04606e-20
-1.23284e-20
-1.35831e-20
-1.09569e-20
-6.26467e-21
-1.01118e-20
-9.35988e-21
-1.17991e-20
-6.49803e-21
-1.08133e-21
-1.75574e-21
-2.42336e-21
-6.61277e-21
-1.07777e-20
-9.22754e-21
-9.09375e-21
-8.64912e-21
-1.30046e-21
-8.13371e-22
-1.47144e-21
-3.23722e-21
-1.7949e-21
-4.94228e-22
-7.27602e-22
-1.10453e-21
-7.59593e-22
-8.0635e-22
-5.10767e-21
-2.67302e-21
-1.92456e-21
-3.49633e-22
-4.90322e-22
-1.67302e-20
-1.41928e-20
-1.38297e-20
-1.40646e-20
-1.56274e-20
-1.46274e-20
-1.42517e-20
-1.4254e-20
-1.50648e-20
-1.29436e-20
-1.13697e-20
-7.82887e-21
-8.10739e-21
-1.06373e-20
-9.1346e-21
-8.80903e-21
-5.73624e-21
-2.02506e-21
-1.3486e-21
-5.50582e-21
-7.02002e-21
-7.46353e-21
-7.98436e-21
-8.23421e-21
-5.48106e-21
-1.67835e-21
-1.07021e-21
-3.24656e-21
-2.57228e-21
-1.51117e-21
-4.34569e-21
-1.62324e-21
1.23112e-21
-4.45477e-21
-5.14571e-21
-2.40658e-21
-1.39024e-21
-2.63059e-21
-9.60683e-22
-1.48845e-21
-1.86347e-20
-1.80305e-20
-1.43588e-20
-1.60316e-20
-1.26178e-20
-1.21e-20
-1.47563e-20
-1.26256e-20
-1.18183e-20
-1.5186e-20
-1.11992e-20
-9.36558e-21
-1.03427e-20
-1.27308e-20
-1.02248e-20
-8.54082e-21
-5.2259e-21
-6.79913e-22
-2.10194e-21
-4.39153e-21
-7.90688e-21
-9.03057e-21
-9.96932e-21
-1.01206e-20
-3.06325e-21
-5.13139e-22
9.40297e-22
-3.69906e-21
-4.52528e-21
2.86177e-22
-1.83159e-21
-3.67905e-21
-1.41838e-21
-2.48241e-21
-4.69463e-21
-2.53665e-21
-1.69237e-21
-2.78688e-21
7.6088e-22
-2.04437e-21
-1.21506e-20
-1.91546e-20
-1.79694e-20
-1.43071e-20
-1.12793e-20
-1.3737e-20
-1.84861e-20
-1.81889e-20
-1.31692e-20
-1.05208e-20
-8.94095e-21
-1.22221e-20
-1.14481e-20
-1.18288e-20
-8.42236e-21
-8.81654e-21
-6.41889e-21
-4.2357e-21
-5.04874e-21
-2.59369e-21
-1.03987e-20
-6.45083e-21
-7.25234e-21
-1.11287e-20
-2.61501e-21
-1.76743e-21
-2.61139e-21
-3.43586e-21
-2.01885e-21
-9.78096e-22
-2.18027e-22
-1.45629e-21
-2.46859e-21
-2.09023e-21
-4.70272e-21
-3.48871e-21
-1.31238e-21
-2.97214e-21
-8.26987e-22
7.72869e-22
-1.36208e-20
-1.44416e-20
-1.76902e-20
-1.45355e-20
-1.5209e-20
-1.32049e-20
-1.65909e-20
-1.74307e-20
-1.26618e-20
-1.03051e-20
-1.37468e-20
-1.19263e-20
-9.69394e-21
-1.04289e-20
-1.12915e-20
-1.05856e-20
-6.33398e-21
-6.04247e-21
-3.78599e-21
-2.64309e-21
-1.09352e-20
-8.53616e-21
-6.67553e-21
-5.88439e-21
-2.33548e-21
-4.44026e-21
-5.5781e-21
-2.07964e-21
-1.63083e-21
-7.56278e-22
-1.05927e-21
-9.61419e-22
-2.16738e-21
-3.37717e-21
-6.91416e-21
-5.09283e-21
-4.39746e-22
1.77551e-22
-1.20398e-21
2.1206e-23
-1.49015e-20
-1.36125e-20
-1.64121e-20
-1.21695e-20
-1.25055e-20
-1.47606e-20
-1.84483e-20
-1.87313e-20
-1.25269e-20
-1.30816e-20
-1.3174e-20
-1.19988e-20
-5.96342e-21
-9.90586e-21
-1.04062e-20
-9.27496e-21
-8.55996e-21
-5.95545e-21
-6.06054e-21
-4.76427e-21
-9.49106e-21
-6.62664e-21
-5.68035e-21
-3.79412e-21
-3.27138e-21
-3.47768e-21
-4.46759e-21
-4.6434e-21
-4.86e-22
-3.13127e-21
9.46657e-22
-3.93453e-21
-2.96802e-21
-2.04109e-21
-3.53987e-21
-3.57877e-21
-2.38378e-21
-1.83006e-21
2.04432e-22
-5.99293e-23
-1.12697e-20
-1.47675e-20
-1.89756e-20
-1.20453e-20
-9.95778e-21
-1.44985e-20
-1.82373e-20
-1.71735e-20
-1.44953e-20
-1.34754e-20
-1.20721e-20
-1.18312e-20
-7.4963e-21
-7.74085e-21
-1.14727e-20
-1.17676e-20
-8.5202e-21
-5.84073e-22
-4.99454e-21
-7.3577e-21
-1.31381e-20
-7.0143e-21
-2.79555e-21
-3.11081e-21
-2.44943e-22
-5.54461e-21
-4.13318e-21
-2.29128e-21
-2.63683e-21
-1.79366e-21
-1.4581e-21
-1.2858e-21
-2.14499e-21
-1.4414e-21
-1.50287e-21
-3.00608e-21
-2.81327e-21
-3.22099e-21
-5.01538e-23
5.31872e-22
-9.83936e-21
-1.11044e-20
-1.46495e-20
-1.42976e-20
-1.32218e-20
-1.41176e-20
-1.54038e-20
-1.45673e-20
-1.47354e-20
-1.52031e-20
-1.12565e-20
-1.18081e-20
-9.35825e-21
-6.57592e-21
-1.1482e-20
-9.76099e-21
-8.9389e-21
-7.54731e-21
-1.05045e-20
-7.72703e-21
-9.19228e-21
-9.84553e-22
-3.37897e-21
-3.63133e-21
-1.05681e-21
-2.08589e-21
-3.31117e-21
-1.0686e-21
-1.50593e-21
-1.46139e-21
-5.10825e-21
-8.15022e-22
-1.29782e-21
-1.73445e-21
-3.79618e-22
-1.14269e-21
-1.86867e-21
-1.28107e-21
-3.16828e-21
-2.17091e-21
-9.57899e-21
-1.07686e-20
-1.71429e-20
-1.56449e-20
-1.32579e-20
-1.20428e-20
-1.14413e-20
-1.62446e-20
-1.62544e-20
-1.52481e-20
-1.06519e-20
-1.05103e-20
-1.08157e-20
-9.61862e-21
-1.16137e-20
-9.79684e-21
-6.01483e-21
-4.60551e-21
-1.13454e-20
-7.11812e-21
-7.80936e-21
-5.67911e-21
-3.32069e-21
-3.88535e-21
-2.91087e-22
1.21548e-21
-7.2421e-21
-3.9042e-21
-9.28193e-22
-7.53075e-22
-2.60469e-21
-5.09801e-22
-2.11062e-21
-1.97597e-21
-2.12403e-21
9.31299e-23
-1.96061e-21
-8.49638e-22
-2.42039e-21
-1.55695e-21
-1.14443e-20
-1.38531e-20
-1.57161e-20
-1.36312e-20
-1.00515e-20
-1.23924e-20
-1.26286e-20
-1.3781e-20
-1.50407e-20
-1.50437e-20
-1.55635e-20
-1.30657e-20
-9.68396e-21
-1.23647e-20
-1.14485e-20
-5.61435e-21
-6.87584e-21
-3.88481e-21
-6.93488e-21
-7.81656e-21
-6.9838e-21
-4.60673e-21
-3.14742e-21
-4.98984e-21
-4.78375e-21
-3.57437e-22
-3.15092e-21
-2.76407e-21
-2.47851e-21
-1.27636e-21
-1.70397e-21
-6.89699e-22
-4.09607e-21
8.38874e-22
-2.14728e-21
-1.35456e-21
-2.88058e-21
-7.23449e-22
2.8261e-23
-2.50187e-21
-1.68364e-20
-1.54723e-20
-1.43165e-20
-1.36266e-20
-1.28994e-20
-1.28888e-20
-1.33047e-20
-1.01501e-20
-1.38832e-20
-1.49024e-20
-1.53589e-20
-1.48461e-20
-1.16518e-20
-1.29477e-20
-1.01039e-20
-7.24409e-21
-5.26869e-21
-3.25058e-21
-8.20675e-21
-9.46085e-21
-5.89238e-21
-1.39081e-21
-3.92739e-21
-3.97233e-21
-2.14364e-21
-2.29266e-21
-5.19831e-21
-4.82768e-21
-3.95801e-21
-1.51988e-21
-1.03934e-21
8.45649e-22
2.15515e-22
-7.55199e-22
-3.22794e-21
-5.7722e-21
-1.9688e-21
-1.78344e-21
1.18036e-21
8.00431e-22
-1.76e-20
-1.91366e-20
-1.37119e-20
-1.35104e-20
-1.39872e-20
-1.56517e-20
-1.25314e-20
-1.03181e-20
-1.54957e-20
-1.24554e-20
-1.50837e-20
-1.31045e-20
-1.11067e-20
-8.27685e-21
-8.45166e-21
-8.52954e-21
-6.50436e-21
-1.62235e-21
-2.55081e-21
-1.09013e-20
-6.88952e-21
-4.73105e-21
-6.13487e-21
-4.78729e-21
-3.74998e-21
-3.77556e-21
-3.6379e-21
-3.77548e-21
-2.56697e-21
-1.53776e-21
-2.16679e-21
-7.35723e-23
1.404e-21
7.03753e-22
-5.67515e-21
-4.84435e-21
-2.1632e-21
-1.2032e-21
-7.29366e-22
2.58849e-22
-1.34096e-20
-1.50165e-20
-1.73565e-20
-1.28454e-20
-1.33561e-20
-1.47913e-20
-1.41445e-20
-1.44997e-20
-1.15475e-20
-1.26095e-20
-1.47113e-20
-1.36951e-20
-7.07366e-21
-1.03428e-20
-1.14888e-20
-8.51475e-21
-2.45902e-21
-2.93335e-21
-5.6207e-21
-6.92056e-21
-7.55204e-21
-6.85137e-21
-8.63418e-21
-6.26422e-21
-5.76744e-21
-2.42922e-21
-3.54723e-21
-4.41632e-21
1.53841e-22
-2.15824e-21
-2.76976e-21
-5.98504e-22
1.41812e-21
-2.09464e-21
-6.25395e-21
-4.29561e-21
-2.29049e-21
-2.21916e-21
-2.45516e-21
-1.07987e-21
-1.1018e-20
-1.39455e-20
-1.57856e-20
-1.49509e-20
-1.1955e-20
-1.4874e-20
-1.36668e-20
-1.36779e-20
-1.0458e-20
-1.40776e-20
-1.67398e-20
-1.28576e-20
-5.78722e-21
-7.83749e-21
-8.92867e-21
-5.83742e-21
-4.73448e-21
-8.38435e-21
-5.06539e-21
-3.50545e-21
-7.04458e-21
-6.8744e-21
-5.05188e-21
-4.80017e-21
-7.33418e-21
-6.78552e-21
-3.77331e-21
-2.54236e-21
-2.77428e-21
-2.81886e-21
-1.27129e-21
-1.9047e-21
-2.8654e-21
1.12477e-21
-6.38558e-21
-4.30877e-21
-2.27158e-21
-1.76771e-21
-1.7788e-21
-1.13038e-21
-1.48435e-20
-1.71082e-20
-1.44639e-20
-1.23636e-20
-1.06679e-20
-1.33835e-20
-1.38411e-20
-1.647e-20
-9.22342e-21
-1.16053e-20
-1.82175e-20
-1.39109e-20
-7.9697e-21
-8.53993e-21
-2.98841e-21
-5.0066e-21
-6.9187e-21
-3.97288e-21
-1.48215e-21
-5.16413e-21
-5.31698e-21
-5.09344e-21
-1.08819e-20
-9.50085e-21
-7.02269e-21
-8.32439e-21
-2.14144e-21
-4.62219e-21
-4.47656e-21
-2.42229e-22
-1.0048e-21
-1.82266e-21
-2.14501e-21
-1.00724e-21
-3.33796e-21
-4.42152e-21
-3.16171e-21
-2.21701e-21
-7.59003e-22
1.87222e-22
-9.37269e-21
-1.33591e-20
-1.4951e-20
-1.81241e-20
-1.3177e-20
-1.45886e-20
-1.27802e-20
-1.06805e-20
-1.15926e-20
-1.28165e-20
-1.67901e-20
-1.34615e-20
-8.18663e-21
-8.66268e-21
-4.57727e-21
-9.26931e-21
-6.30015e-21
-4.41021e-21
-3.24295e-22
-2.1278e-21
-3.17118e-21
-8.39069e-21
-8.23835e-21
-8.0485e-21
-8.90179e-21
-5.90574e-21
-8.8226e-22
-5.91697e-22
-5.80147e-21
-1.78975e-21
1.1593e-21
-1.76367e-21
-2.39208e-21
-2.50387e-21
-8.26501e-21
-2.0985e-21
-3.14787e-21
-3.76194e-21
-2.54376e-21
-2.27129e-21
-9.44822e-21
-1.37741e-20
-1.46123e-20
-1.57445e-20
-1.28454e-20
-1.33409e-20
-1.24442e-20
-1.23691e-20
-1.18832e-20
-1.22164e-20
-1.48217e-20
-8.50613e-21
-9.23242e-21
-9.85046e-21
-7.07478e-21
-6.05273e-21
-6.86807e-21
-4.49846e-21
-3.73298e-21
-2.93574e-21
-3.76153e-21
-1.17461e-21
-6.02645e-21
-9.38487e-21
-8.51678e-21
-4.85156e-21
-2.05613e-21
-1.61796e-21
-3.89095e-21
-2.47884e-21
-1.31956e-21
-2.04042e-21
-4.20579e-21
-5.42158e-21
-5.24758e-21
-3.08093e-21
-2.86401e-21
-3.19738e-21
-3.21232e-21
-1.73719e-21
-1.27867e-20
-1.82457e-20
-1.47794e-20
-1.06368e-20
-1.73426e-20
-1.39405e-20
-1.20773e-20
-1.00776e-20
-1.14201e-20
-1.26003e-20
-1.27222e-20
-5.68972e-21
-8.86272e-21
-1.15131e-20
-7.27872e-21
-8.42497e-21
-8.55064e-21
-5.1363e-22
-2.54644e-21
-1.69839e-21
-5.91771e-21
-5.1518e-21
-5.36749e-21
-6.02608e-21
-6.92701e-21
-3.83702e-21
-2.2119e-21
-3.7525e-21
-1.48575e-21
-4.44969e-21
-1.45557e-21
-1.25359e-21
-4.22825e-21
-2.76963e-21
-4.97836e-21
-4.39475e-21
-3.85473e-21
-3.76732e-21
-1.3678e-21
-7.15124e-22
-1.14576e-20
-1.55907e-20
-1.70235e-20
-1.17756e-20
-1.18704e-20
-1.69379e-20
-1.30353e-20
-6.46233e-21
-9.81465e-21
-1.58457e-20
-1.07986e-20
-9.28958e-21
-7.25515e-21
-1.24484e-20
-9.47002e-21
-8.79554e-21
-5.32995e-21
-4.42698e-21
-2.39059e-21
1.21256e-21
-3.28387e-21
-7.18322e-21
-7.94832e-21
-6.69039e-21
-8.9951e-21
-6.09119e-21
-4.21936e-22
3.02647e-21
-3.03832e-21
-3.82472e-21
-1.15665e-21
-2.40468e-21
-4.87985e-21
-1.87474e-21
-3.82296e-21
-6.27213e-21
-3.73795e-21
1.16992e-21
-9.74429e-22
-1.90687e-21
-1.23065e-20
-1.30916e-20
-1.375e-20
-1.39388e-20
-1.30655e-20
-1.36595e-20
-1.27153e-20
-1.09677e-20
-9.06843e-21
-1.13468e-20
-9.55935e-21
-8.80484e-21
-8.87478e-21
-1.07089e-20
-9.40596e-21
-9.96094e-21
-5.70099e-21
-4.56671e-21
-2.04767e-21
-1.24156e-21
-2.67781e-21
-8.18705e-21
-9.18376e-21
-7.93473e-21
-6.0505e-21
-4.17182e-21
-7.31336e-22
-1.54065e-21
-3.6601e-21
-3.08585e-21
-1.95851e-21
-1.60697e-21
-6.37615e-22
-1.3899e-21
-2.73208e-21
-7.09042e-21
-3.09141e-21
-6.89572e-22
-9.90123e-22
-8.75236e-22
-1.58084e-20
-1.49953e-20
-1.22726e-20
-1.26059e-20
-1.47708e-20
-1.45764e-20
-1.12914e-20
-1.00057e-20
-1.05385e-20
-9.12056e-21
-6.97367e-21
-1.01825e-20
-1.23723e-20
-1.26525e-20
-6.96252e-21
-8.40385e-21
-6.48071e-21
-3.30592e-21
2.49959e-22
-4.13585e-21
-2.12599e-21
-5.78399e-21
-1.34137e-20
-7.84114e-21
-6.81304e-21
-5.83673e-21
-6.22356e-22
1.02772e-21
-2.34107e-21
-4.32701e-21
-2.5784e-21
-2.80545e-21
1.71488e-21
-2.29102e-22
-4.65613e-21
-5.31292e-21
-2.25062e-21
1.05572e-21
-1.15321e-21
-2.02247e-21
-1.0749e-20
-1.15066e-20
-1.29186e-20
-1.08607e-20
-1.77545e-20
-1.55692e-20
-1.30628e-20
-1.04983e-20
-9.39914e-21
-1.01993e-20
-9.57257e-21
-8.03592e-21
-1.15588e-20
-9.21596e-21
-5.63722e-21
-8.44054e-21
-8.73682e-21
-3.08602e-21
3.25882e-22
-3.44357e-21
-3.81761e-21
-5.37894e-21
-1.08671e-20
-8.11581e-21
-8.50627e-21
-6.53614e-21
1.2164e-21
9.28225e-22
-2.21474e-21
-4.0768e-21
-2.33881e-21
-2.63823e-21
3.23999e-22
7.52118e-22
-3.01292e-21
-4.36335e-21
-2.33819e-21
-9.76435e-22
-7.80985e-22
-5.57889e-22
-1.20216e-20
-1.23558e-20
-1.28319e-20
-1.43898e-20
-1.45051e-20
-1.0908e-20
-1.21882e-20
-9.22142e-21
-1.04823e-20
-7.25804e-21
-7.6559e-21
-1.29079e-20
-1.01934e-20
-7.8451e-21
-6.85099e-21
-8.57793e-21
-8.34566e-21
-3.87115e-21
-2.36313e-21
-3.45695e-21
-2.6014e-21
-4.49424e-21
-7.92209e-21
-7.936e-21
-5.65351e-21
-4.63194e-21
-2.63032e-21
-1.95505e-21
-7.53162e-22
-3.01434e-21
-2.28725e-21
-9.37073e-22
-1.99014e-21
-1.21681e-21
4.13802e-22
-1.45863e-21
-2.2561e-21
1.32019e-21
-2.5538e-21
-2.79889e-21
-1.27684e-20
-1.05493e-20
-9.99539e-21
-1.00363e-20
-1.31752e-20
-1.48341e-20
-1.27704e-20
-1.31254e-20
-1.13752e-20
-8.09981e-21
-3.95112e-21
-1.11645e-20
-5.46853e-21
-6.15775e-21
-6.61946e-21
-8.88728e-21
-1.0509e-20
-2.79655e-21
-3.61914e-23
-2.69416e-21
-5.39686e-21
-7.18576e-21
-5.11178e-21
-5.55681e-21
-4.87222e-21
-2.36213e-21
-5.68249e-21
-6.80013e-21
-1.68009e-21
-1.35777e-21
-2.68323e-21
-3.16609e-21
-4.26357e-21
-2.23301e-21
8.51945e-23
1.75832e-21
-1.22233e-21
1.22757e-21
9.33952e-22
-3.4995e-22
-8.55008e-21
-1.03852e-20
-1.09069e-20
-8.93033e-21
-8.05369e-21
-1.73306e-20
-1.16039e-20
-1.20596e-20
-1.17861e-20
-1.11086e-20
-9.67231e-21
-5.63609e-21
-7.67562e-21
-6.60717e-21
-7.14126e-21
-5.429e-21
-8.40427e-21
-5.28118e-21
-3.10624e-21
-3.98524e-21
-3.84444e-21
-4.02271e-21
-5.07594e-21
-9.18289e-21
-4.84906e-21
-1.80043e-21
-1.14453e-21
-8.54454e-22
-3.5607e-21
-1.80003e-21
-4.22367e-21
-3.45268e-21
-1.21516e-21
-3.59639e-21
-3.51809e-21
6.7114e-22
8.92818e-22
1.24934e-21
9.29579e-22
-7.35582e-22
-7.02093e-21
-9.20482e-21
-1.10871e-20
-9.36682e-21
-7.31163e-21
-1.38525e-20
-1.29955e-20
-9.95816e-21
-9.73e-21
-9.3001e-21
-9.11199e-21
-6.82347e-21
-8.27357e-21
-6.66146e-21
-7.91007e-21
-6.86773e-21
-5.54195e-21
-1.12803e-21
-3.51798e-22
-4.96272e-21
-4.46737e-21
-7.34879e-21
-6.20593e-21
-7.53318e-21
-5.33723e-21
-4.39675e-21
-2.28956e-21
-4.17766e-22
-6.44618e-22
-1.1566e-21
-5.59466e-21
-3.6378e-21
-4.21823e-21
-2.98757e-21
-1.45045e-21
7.22577e-22
1.40317e-21
-1.38385e-21
-1.16196e-21
-1.20036e-22
-5.12751e-21
-8.54463e-21
-1.16292e-20
-6.93924e-21
-6.85499e-21
-1.13024e-20
-1.00689e-20
-8.97287e-21
-9.15024e-21
-9.07988e-21
-5.97471e-21
-9.12298e-21
-9.69521e-21
-9.35046e-21
-3.74037e-21
-2.92689e-21
-1.52863e-21
-3.90381e-21
-4.38914e-21
-4.82408e-21
-4.85392e-21
-6.03218e-21
-5.95438e-21
-5.99103e-21
-3.83044e-21
-2.73761e-21
-4.78527e-21
-9.93157e-22
3.33184e-22
-2.42052e-21
-6.47481e-21
-4.76671e-21
-5.51103e-21
-1.9998e-21
-2.15696e-21
-2.64879e-22
2.33696e-21
2.03668e-21
-5.24234e-22
-1.25049e-21
-5.8972e-21
-7.52766e-21
-9.82803e-21
-5.65417e-21
-6.74307e-21
-1.13148e-20
-9.71185e-21
-5.26733e-21
-9.52379e-21
-9.3928e-21
-6.17728e-21
-6.40819e-21
-7.04353e-21
-7.21315e-21
-6.81683e-21
-3.0049e-21
-3.03333e-21
-1.21328e-21
-4.00846e-21
-3.66362e-21
-1.94779e-21
-5.43238e-21
-5.93446e-21
-7.83158e-21
-7.20427e-21
-1.18702e-21
-1.65476e-21
-4.40563e-22
-2.18168e-21
-3.09374e-21
-2.32552e-21
-3.70678e-21
-3.31354e-21
-1.2766e-21
-8.77363e-22
-3.62322e-21
-9.22265e-22
-6.03586e-22
2.3481e-21
-2.22059e-21
-6.74738e-21
-5.58456e-21
-6.16136e-21
-2.38768e-21
-2.13297e-21
-4.22185e-21
-8.30239e-21
-4.74152e-21
-6.88557e-21
-6.30961e-21
-2.43251e-21
-2.45375e-21
-5.76638e-21
-4.41506e-21
-3.9436e-21
-2.39586e-21
-6.50371e-22
5.49462e-22
-2.48426e-21
-2.55961e-22
-2.16436e-21
-7.10996e-21
-5.54364e-21
-3.92633e-21
-3.95576e-21
-6.593e-22
-7.73384e-22
-7.74346e-22
-6.78706e-22
9.08638e-22
-7.59822e-22
-1.58628e-21
-2.31104e-21
-2.33802e-21
9.66385e-23
-6.2928e-21
-3.47686e-21
-2.41126e-21
1.34369e-21
9.29696e-22
-3.5057e-21
-7.55098e-21
-1.22136e-20
-8.92515e-21
-8.66628e-21
-1.09078e-20
-6.64978e-21
-3.97593e-21
-1.25747e-20
-1.11689e-20
-6.25039e-21
-6.04589e-21
-7.86915e-21
-3.7828e-21
-5.38766e-21
-8.02506e-21
-4.93631e-21
3.7795e-22
-1.50928e-21
-3.81106e-21
-3.94103e-21
-2.9041e-21
-4.49807e-21
-3.9849e-21
-3.48483e-21
-3.31147e-21
-3.51739e-21
-4.14546e-21
-5.82778e-21
-4.51033e-21
-4.29087e-21
2.28365e-22
-1.3054e-21
-1.2695e-21
-2.96739e-21
-3.7657e-21
-3.29282e-22
-2.56501e-21
-2.32027e-21
2.00723e-22
-5.01392e-21
-1.00077e-20
-1.68034e-20
-1.45399e-20
-1.23123e-20
-1.5369e-20
-1.31363e-20
-8.04056e-21
-1.01394e-20
-1.68822e-20
-1.24645e-20
-1.07797e-20
-1.06879e-20
-7.62971e-21
-8.1122e-21
-8.27487e-21
-7.50824e-21
-4.16039e-21
-4.74874e-21
-5.06268e-21
-3.07387e-21
-2.81018e-21
-4.03084e-21
-8.52562e-21
-6.13007e-21
-3.99406e-21
-2.65483e-21
-3.47496e-21
-8.31545e-21
-2.84248e-21
1.46708e-22
8.56844e-22
-3.99585e-21
-2.14446e-21
-5.66557e-21
-3.27238e-21
7.28888e-22
1.49598e-21
-2.64901e-22
-3.97119e-22
-9.87892e-21
-1.25585e-20
-1.469e-20
-1.58033e-20
-1.52004e-20
-1.4508e-20
-1.42243e-20
-1.11907e-20
-1.45897e-20
-1.63287e-20
-1.16431e-20
-1.09577e-20
-8.79404e-21
-6.38506e-21
-9.82172e-21
-8.48664e-21
-9.45845e-21
-6.81379e-21
-9.92314e-22
-6.43215e-21
-5.19708e-21
-3.55757e-21
-2.66224e-21
-6.56655e-21
-8.0538e-21
-5.23527e-21
-5.43801e-21
-5.04995e-21
-3.98904e-21
-3.01375e-21
-3.79723e-21
-2.81423e-21
-1.84696e-21
-8.61265e-22
-3.59486e-21
-2.8344e-21
1.41144e-21
-1.70572e-22
-1.05053e-21
5.03846e-23
-1.5215e-20
-1.47842e-20
-1.57532e-20
-1.92815e-20
-1.66504e-20
-1.49787e-20
-1.52292e-20
-1.2783e-20
-1.40211e-20
-1.38998e-20
-1.26425e-20
-1.41019e-20
-1.16712e-20
-6.75179e-21
-9.43547e-21
-8.47888e-21
-7.87485e-21
-6.586e-21
-3.6705e-21
-2.72208e-21
-6.47109e-21
-6.9568e-21
-6.54858e-21
-7.37525e-21
-6.6321e-21
-6.36662e-21
-4.78822e-21
-3.24654e-21
-3.39812e-21
-4.0236e-21
-2.872e-21
-3.559e-22
-2.34581e-21
-2.8472e-21
-1.88165e-21
-7.76724e-22
7.95939e-22
-3.96616e-22
-1.42978e-21
-7.09033e-22
-1.62436e-20
-1.62437e-20
-1.61346e-20
-1.75363e-20
-1.91568e-20
-1.9168e-20
-1.40932e-20
-1.13896e-20
-1.06859e-20
-1.53232e-20
-1.40234e-20
-1.44048e-20
-9.7808e-21
-1.0404e-20
-1.37187e-20
-1.18284e-20
-8.16732e-21
-6.66552e-21
-4.81182e-21
-1.50473e-21
-4.70097e-21
-7.13055e-21
-8.18495e-21
-8.63776e-21
-7.86135e-21
-5.0668e-21
-4.71505e-21
-4.24076e-21
-1.9107e-21
-9.99575e-22
-1.33632e-21
-2.69655e-21
-4.73081e-22
-3.91673e-22
-1.21182e-21
-5.72382e-22
2.73533e-22
-6.34402e-22
-8.79287e-22
-1.1354e-21
-1.53622e-20
-1.77261e-20
-1.53378e-20
-1.62875e-20
-1.83999e-20
-1.96085e-20
-1.25655e-20
-1.51744e-20
-1.56449e-20
-1.47771e-20
-1.37797e-20
-1.52291e-20
-1.24141e-20
-1.027e-20
-1.415e-20
-1.14236e-20
-9.74596e-21
-5.94321e-21
-4.11104e-21
-3.19298e-21
-4.97182e-21
-7.94225e-21
-8.15292e-21
-7.60923e-21
-8.32216e-21
-6.21744e-21
-3.91092e-21
-2.27866e-21
-2.67165e-21
-1.76522e-21
-1.73529e-21
-8.76356e-22
1.70848e-21
-1.47481e-21
-1.32864e-21
1.31242e-22
-1.40091e-22
7.50495e-22
9.59097e-22
-1.10323e-21
-1.82238e-20
-2.05929e-20
-1.68654e-20
-1.69975e-20
-1.82479e-20
-1.70233e-20
-1.57071e-20
-1.59052e-20
-1.66947e-20
-1.48791e-20
-1.52087e-20
-1.60165e-20
-1.43948e-20
-9.0384e-21
-1.39134e-20
-1.04511e-20
-7.65838e-21
-5.0491e-21
-5.24983e-21
-4.70619e-21
-5.43613e-21
-7.05294e-21
-7.96309e-21
-9.37867e-21
-7.07015e-21
-5.3401e-21
-5.48161e-21
-2.14255e-21
3.44343e-22
-1.84746e-22
-1.99423e-21
-3.21449e-21
1.99633e-21
7.77016e-22
-2.76949e-21
-2.13749e-21
2.09006e-22
2.98093e-22
-1.94918e-21
-3.27949e-21
-1.719e-20
-1.89943e-20
-1.6892e-20
-1.74986e-20
-1.92149e-20
-1.54806e-20
-1.72299e-20
-1.86688e-20
-1.82588e-20
-1.63599e-20
-1.55739e-20
-1.49872e-20
-1.23799e-20
-1.00625e-20
-1.32305e-20
-1.0525e-20
-7.10738e-21
-5.5074e-21
-4.29651e-21
-5.09498e-21
-6.52453e-21
-8.88883e-21
-8.77334e-21
-6.79266e-21
-9.10218e-21
-4.93614e-21
-2.55021e-21
-1.55125e-21
-4.45128e-22
-2.13549e-21
-4.90191e-21
-1.96669e-21
-8.22762e-22
-1.36054e-21
-1.39205e-21
-9.90322e-22
4.25393e-22
5.53083e-22
-2.62529e-21
-7.76119e-22
-1.88113e-20
-2.23455e-20
-1.87291e-20
-1.80273e-20
-1.93795e-20
-1.69307e-20
-1.83708e-20
-1.68614e-20
-1.78352e-20
-1.72372e-20
-1.57266e-20
-1.73279e-20
-1.01164e-20
-1.1491e-20
-1.34406e-20
-1.06189e-20
-8.99152e-21
-3.92669e-21
-5.75537e-21
-6.29663e-21
-4.61777e-21
-9.80207e-21
-9.87172e-21
-1.00399e-20
-7.16544e-21
-2.72687e-21
-3.22181e-21
-2.30504e-21
2.02221e-21
-4.54996e-21
-4.05844e-21
-3.50182e-21
-2.69994e-21
-6.48421e-22
-1.4485e-21
-4.28088e-22
-1.30688e-21
-4.26983e-22
-3.77651e-22
-8.82784e-22
-2.07865e-20
-2.05063e-20
-1.71762e-20
-2.04963e-20
-2.09864e-20
-1.97983e-20
-2.06865e-20
-1.6708e-20
-1.36023e-20
-1.60909e-20
-1.7117e-20
-1.63005e-20
-1.3926e-20
-1.33403e-20
-1.25474e-20
-1.01099e-20
-7.13159e-21
-5.39485e-21
-1.35955e-21
-3.86985e-21
-7.73107e-21
-1.17312e-20
-1.17885e-20
-1.07257e-20
-6.70701e-21
-3.5681e-21
-1.58534e-21
-1.21518e-21
-2.14359e-21
-4.2374e-21
-2.12266e-21
-2.43412e-21
-3.03783e-21
-6.16597e-23
-1.97271e-21
-7.1119e-22
1.0527e-22
-4.44788e-22
-1.50258e-22
3.02947e-22
-2.20524e-20
-2.37295e-20
-2.02044e-20
-2.01184e-20
-2.00226e-20
-1.87309e-20
-1.95595e-20
-1.84783e-20
-1.5624e-20
-1.67707e-20
-1.53869e-20
-1.44734e-20
-1.40357e-20
-1.19058e-20
-1.29787e-20
-1.30259e-20
-7.04066e-21
-4.81679e-21
-1.99631e-21
-4.9929e-21
-9.27364e-21
-9.76741e-21
-1.23543e-20
-1.36752e-20
-5.14988e-21
-2.78562e-21
-2.2841e-21
-2.23093e-21
-2.24752e-21
-2.50829e-21
-3.18163e-21
-1.72165e-21
-7.20769e-22
-1.34477e-21
-3.42996e-21
-1.58284e-21
-1.90698e-21
-1.34012e-21
-1.52178e-21
-1.01193e-21
-2.22299e-20
-2.40496e-20
-2.00179e-20
-1.91411e-20
-1.86608e-20
-2.06319e-20
-1.94552e-20
-1.78567e-20
-1.5235e-20
-1.78804e-20
-1.55426e-20
-1.55351e-20
-1.59098e-20
-1.01393e-20
-1.28045e-20
-1.37579e-20
-1.02184e-20
-4.67013e-21
-3.40044e-21
-5.5151e-21
-7.82045e-21
-9.70291e-21
-1.11063e-20
-1.35958e-20
-5.55624e-21
-5.36434e-21
-3.23764e-21
-2.16158e-21
-1.00072e-21
-2.91007e-21
-2.14038e-21
-1.19084e-21
-1.20939e-21
-1.52665e-21
-2.84965e-21
-2.4903e-21
-1.07946e-21
-2.09219e-21
-2.46666e-21
6.17512e-22
-2.39272e-20
-2.32374e-20
-1.98911e-20
-2.19869e-20
-2.05938e-20
-2.09717e-20
-1.8685e-20
-1.76727e-20
-1.80118e-20
-1.5917e-20
-1.35145e-20
-1.54185e-20
-1.55183e-20
-1.27938e-20
-1.268e-20
-1.07465e-20
-7.45025e-21
-6.22818e-21
-6.72263e-21
-7.28361e-21
-7.49296e-21
-6.75578e-21
-1.0603e-20
-1.06062e-20
-6.75025e-21
-4.74358e-21
-3.12484e-21
-3.0219e-21
-3.00391e-21
-1.30034e-21
-2.90206e-21
-2.28917e-21
-1.55308e-21
-1.87082e-21
-7.56761e-21
-1.32914e-21
9.62578e-22
-4.13248e-21
-3.53707e-21
4.57493e-22
-2.55876e-20
-2.5246e-20
-2.15206e-20
-2.24287e-20
-2.05726e-20
-1.892e-20
-1.98278e-20
-1.58147e-20
-1.7534e-20
-1.85039e-20
-1.51515e-20
-1.2594e-20
-1.63683e-20
-1.31874e-20
-1.43952e-20
-1.12223e-20
-1.12636e-20
-7.06623e-21
-6.00551e-21
-3.84887e-21
-8.69563e-21
-8.95057e-21
-9.35094e-21
-1.1735e-20
-5.70991e-21
-3.87233e-21
-3.71886e-21
-3.65876e-21
-4.15187e-21
-2.75546e-21
-3.94066e-21
-2.51246e-21
-1.87179e-21
-3.79501e-21
-6.31817e-21
-1.79131e-21
-1.44631e-24
4.99425e-22
-6.87864e-22
-5.51153e-24
-2.65113e-20
-2.48481e-20
-2.12182e-20
-2.00641e-20
-2.11293e-20
-1.88109e-20
-1.98897e-20
-1.69512e-20
-1.73772e-20
-1.71135e-20
-1.49717e-20
-1.61436e-20
-1.68875e-20
-1.37655e-20
-1.38479e-20
-1.24143e-20
-6.82019e-21
-6.39799e-21
-9.20366e-21
-8.45192e-21
-7.88014e-21
-9.37831e-21
-1.08244e-20
-9.19995e-21
-5.02488e-21
-4.91574e-21
-4.19629e-21
-2.94216e-21
-3.22369e-21
-2.08614e-21
-4.43365e-21
-2.59448e-21
-1.15231e-21
-2.50767e-21
-7.3546e-21
-2.77364e-21
1.1777e-21
-1.36253e-21
-1.51766e-21
-7.09457e-22
-2.45476e-20
-2.53193e-20
-2.25108e-20
-2.18136e-20
-2.17187e-20
-2.10867e-20
-1.99673e-20
-1.84623e-20
-1.78076e-20
-1.41529e-20
-1.63025e-20
-1.88276e-20
-1.84487e-20
-1.29088e-20
-1.29964e-20
-1.19383e-20
-8.03104e-21
-8.25653e-21
-8.29436e-21
-5.38686e-21
-8.64298e-21
-9.7586e-21
-1.00603e-20
-6.81215e-21
-5.6467e-21
-6.13692e-21
-3.69094e-21
-2.51474e-21
-3.79e-21
-2.94341e-21
-2.22585e-21
-1.85798e-21
-1.10006e-22
-3.24113e-21
-6.27168e-21
-2.77735e-21
-2.03628e-22
-1.52416e-21
-9.88662e-22
-2.16695e-21
-2.3122e-20
-2.25038e-20
-2.32989e-20
-2.03938e-20
-2.36481e-20
-2.22964e-20
-2.12667e-20
-2.12353e-20
-2.08545e-20
-1.35809e-20
-1.43205e-20
-1.64558e-20
-1.66264e-20
-1.55949e-20
-1.28946e-20
-8.36307e-21
-5.22492e-21
-7.5132e-21
-1.14547e-20
-9.31896e-21
-1.06998e-20
-7.74734e-21
-6.08312e-21
-6.19317e-21
-3.64369e-21
-7.09548e-21
-4.33856e-21
-3.29601e-21
-3.9619e-21
-1.98905e-21