/*--------------------------------*- C++ -*----------------------------------*\
| =========                 |                                                 |
| \\      /  F ield         | OpenFOAM: The Open Source CFD Toolbox           |
|  \\    /   O peration     | Version:  v2012                                 |
|   \\  /    A nd           | Website:  www.openfoam.com                      |
|    \\/     M anipulation  |                                                 |
\*---------------------------------------------------------------------------*/
FoamFile
{
    version     2.0;
    format      ascii;
    class       surfaceScalarField;
    location    "31";
    object      phi;
}
// * * * * * * * * * * * * * * * * * * * * * * * * * * * * * * * * * * * * * //

dimensions      [0 3 -1 0 0 0 0];
oriented        oriented;


internalField   nonuniform List<scalar> 
187200
(
1.875e-06
3.01602e-22
1.97133e-22
1.875e-06
3.2833e-22
2.96878e-22
1.875e-06
3.79182e-22
4.63582e-22
1.875e-06
3.15824e-22
3.43081e-22
1.875e-06
3.3343e-22
2.46659e-22
1.875e-06
4.47598e-22
3.79862e-22
1.875e-06
3.7273e-22
2.76371e-22
1.875e-06
2.74289e-22
2.52035e-22
1.875e-06
2.03972e-22
4.40057e-22
1.875e-06
3.50196e-22
4.1519e-22
1.875e-06
3.69236e-22
2.54897e-22
1.875e-06
3.11706e-22
2.02903e-22
1.875e-06
2.20754e-22
2.41448e-22
1.875e-06
1.49371e-22
1.10736e-22
1.875e-06
1.68603e-22
2.10175e-22
1.875e-06
1.2589e-22
2.42225e-22
1.875e-06
1.72751e-22
2.31103e-22
1.875e-06
6.57509e-23
9.49094e-23
1.875e-06
3.63095e-23
8.35133e-23
1.875e-06
1.2835e-22
1.47085e-22
1.875e-06
2.70049e-23
1.51852e-22
1.875e-06
1.18216e-22
9.82518e-23
1.875e-06
1.82359e-22
1.35782e-22
1.875e-06
3.14281e-22
1.69205e-22
1.875e-06
1.57218e-22
5.25744e-23
1.875e-06
1.58048e-22
1.06178e-22
1.875e-06
1.80869e-22
1.82702e-22
1.875e-06
9.64634e-23
6.35324e-23
1.875e-06
9.06011e-23
1.68562e-22
1.875e-06
-1.57614e-23
1.57777e-22
1.875e-06
-1.33156e-22
1.46647e-22
1.875e-06
5.82733e-23
6.37347e-23
1.875e-06
1.43618e-22
5.91433e-23
1.875e-06
5.4001e-23
1.99983e-23
1.875e-06
-9.66152e-24
7.78854e-23
1.875e-06
-1.35438e-23
2.8766e-24
1.875e-06
9.95301e-24
1.94767e-23
1.875e-06
-1.78043e-22
9.56092e-23
1.875e-06
-7.93362e-23
1.4169e-22
-4.86124e-23
5.2303e-24
1.875e-06
6.67467e-23
9.28072e-23
1.875e-06
1.86148e-22
4.42087e-22
1.875e-06
3.24037e-22
7.37098e-22
1.875e-06
3.38515e-22
7.15735e-22
1.875e-06
2.57416e-22
5.86359e-22
1.875e-06
2.98895e-22
6.29491e-22
1.875e-06
3.35718e-22
6.33273e-22
1.875e-06
3.43197e-22
6.23398e-22
1.875e-06
4.134e-22
7.01776e-22
1.875e-06
2.85566e-22
7.74244e-22
1.875e-06
1.69201e-22
5.65208e-22
1.875e-06
1.74091e-22
5.01429e-22
1.875e-06
2.49317e-22
5.79939e-22
1.875e-06
1.41952e-22
4.70114e-22
1.875e-06
7.63593e-23
4.60388e-22
1.875e-06
3.14549e-23
4.61689e-22
1.875e-06
2.64696e-22
4.78912e-22
1.875e-06
2.98612e-22
5.09742e-22
1.875e-06
4.898e-23
4.07866e-22
1.875e-06
1.19131e-23
2.21086e-22
1.875e-06
1.8024e-22
3.32756e-22
1.875e-06
2.25332e-22
1.98454e-22
1.875e-06
1.62087e-22
1.56723e-22
1.875e-06
9.10251e-23
2.16478e-22
1.875e-06
8.73499e-23
2.1796e-22
1.875e-06
1.43483e-22
1.62507e-22
1.875e-06
1.23261e-22
1.48399e-22
1.875e-06
5.78832e-23
9.39211e-23
1.875e-06
-2.53725e-23
3.0969e-22
1.875e-06
4.39222e-23
2.22802e-22
1.875e-06
8.9439e-23
1.61545e-22
1.875e-06
6.0235e-23
7.75652e-23
1.875e-06
-2.4433e-23
-6.96743e-24
1.875e-06
-8.52221e-23
2.05446e-23
1.875e-06
-1.10025e-23
1.60805e-22
1.875e-06
4.23479e-23
1.14185e-22
1.875e-06
-1.20915e-22
-8.49984e-24
1.875e-06
-9.72933e-23
4.48689e-23
1.875e-06
-7.37152e-23
8.74021e-23
-1.01556e-22
4.68954e-23
1.875e-06
1.1368e-22
2.97286e-22
1.875e-06
1.68125e-22
5.95083e-22
1.875e-06
1.311e-22
7.0733e-22
1.875e-06
2.98317e-22
8.12683e-22
1.875e-06
3.25249e-22
8.14006e-22
1.875e-06
3.26547e-22
7.41082e-22
1.875e-06
2.71209e-22
7.6041e-22
1.875e-06
2.7487e-22
7.56146e-22
1.875e-06
2.7144e-22
8.09061e-22
1.875e-06
2.60501e-22
8.47263e-22
1.875e-06
2.57727e-22
7.37931e-22
1.875e-06
2.04638e-22
6.7877e-22
1.875e-06
1.82038e-22
6.00245e-22
1.875e-06
1.32924e-22
5.16404e-22
1.875e-06
2.04029e-22
6.56016e-22
1.875e-06
2.74127e-22
6.61187e-22
1.875e-06
1.06593e-22
4.7841e-22
1.875e-06
1.70297e-22
5.36187e-22
1.875e-06
1.82521e-22
4.70303e-22
1.875e-06
-1.16564e-23
3.69218e-22
1.875e-06
9.4619e-23
3.44622e-22
1.875e-06
9.8592e-23
1.92672e-22
1.875e-06
2.38943e-22
1.24491e-22
1.875e-06
1.51065e-22
2.27243e-22
1.875e-06
2.08707e-22
3.62347e-22
1.875e-06
1.27951e-23
2.57318e-22
1.875e-06
1.05515e-23
2.60693e-22
1.875e-06
-2.06555e-23
2.04381e-22
1.875e-06
1.22459e-23
2.89876e-22
1.875e-06
-2.24737e-27
2.22669e-22
1.875e-06
-2.59832e-23
2.10754e-22
1.875e-06
2.92599e-23
1.32286e-22
1.875e-06
-5.48735e-23
1.93735e-23
1.875e-06
-2.94265e-23
6.22871e-23
1.875e-06
-3.97206e-23
7.92525e-23
1.875e-06
-8.87259e-23
-3.24142e-23
1.875e-06
2.3858e-23
4.23838e-23
1.875e-06
3.79862e-23
1.95324e-22
1.875e-06
4.09531e-23
1.51637e-22
-2.47067e-23
5.3731e-23
1.875e-06
2.63358e-22
4.29104e-22
1.875e-06
1.94693e-22
6.97799e-22
1.875e-06
1.51441e-22
8.3748e-22
1.875e-06
1.20128e-22
8.80294e-22
1.875e-06
1.52553e-22
8.44098e-22
1.875e-06
1.99317e-22
7.48257e-22
1.875e-06
2.0427e-22
8.38344e-22
1.875e-06
1.77555e-22
8.48787e-22
1.875e-06
2.16733e-22
8.53992e-22
1.875e-06
2.70506e-22
8.6715e-22
1.875e-06
2.23331e-22
8.18065e-22
1.875e-06
1.92819e-22
8.09619e-22
1.875e-06
1.41197e-22
6.68999e-22
1.875e-06
1.5853e-22
6.48043e-22
1.875e-06
3.11924e-22
6.77117e-22
1.875e-06
4.14069e-22
6.08148e-22
1.875e-06
1.81979e-22
5.37816e-22
1.875e-06
3.46612e-23
5.35318e-22
1.875e-06
1.80284e-22
4.96137e-22
1.875e-06
1.67602e-22
3.66694e-22
1.875e-06
7.61114e-23
3.72455e-22
1.875e-06
1.43246e-22
2.92951e-22
1.875e-06
1.63252e-22
1.57251e-22
1.875e-06
1.43389e-22
2.32749e-22
1.875e-06
2.76115e-23
2.47173e-22
1.875e-06
1.05836e-22
3.68975e-22
1.875e-06
2.91625e-23
3.22712e-22
1.875e-06
-8.16185e-24
2.50695e-22
1.875e-06
3.66977e-23
2.26439e-22
1.875e-06
-3.81535e-23
2.36767e-22
1.875e-06
-1.48143e-23
1.89369e-22
1.875e-06
-7.79262e-23
9.55686e-23
1.875e-06
-6.24483e-23
1.46238e-22
1.875e-06
-6.53979e-23
9.04138e-23
1.875e-06
-1.08738e-23
4.40318e-23
1.875e-06
-1.99704e-23
-5.89078e-24
1.875e-06
3.21985e-23
1.73411e-23
1.875e-06
1.01618e-22
8.7411e-23
1.875e-06
-9.14311e-24
6.06781e-23
-2.35697e-23
7.01984e-23
1.875e-06
-8.10238e-24
2.84559e-22
1.875e-06
1.44005e-22
7.49374e-22
1.875e-06
7.92365e-23
8.60921e-22
1.875e-06
1.30459e-22
9.34339e-22
1.875e-06
1.1252e-22
9.64193e-22
1.875e-06
7.11817e-23
9.29434e-22
1.875e-06
9.81245e-23
9.17607e-22
1.875e-06
3.6231e-22
9.5654e-22
1.875e-06
3.40976e-22
8.47324e-22
1.875e-06
2.2143e-22
8.77431e-22
1.875e-06
2.06414e-22
8.86214e-22
1.875e-06
1.91662e-22
8.54374e-22
1.875e-06
1.85531e-22
7.26341e-22
1.875e-06
1.93427e-22
7.90584e-22
1.875e-06
1.70862e-22
7.16384e-22
1.875e-06
1.54763e-22
5.66411e-22
1.875e-06
1.20242e-22
5.43646e-22
1.875e-06
6.02762e-23
5.90412e-22
1.875e-06
7.74203e-23
4.04777e-22
1.875e-06
1.71301e-22
2.43355e-22
1.875e-06
4.32423e-23
2.97144e-22
1.875e-06
1.59502e-24
2.4399e-22
1.875e-06
1.32693e-22
1.63108e-22
1.875e-06
1.5708e-22
3.35617e-22
1.875e-06
2.49775e-22
4.15903e-22
1.875e-06
3.81459e-23
3.34834e-22
1.875e-06
5.90584e-23
2.86166e-22
1.875e-06
-5.52536e-23
2.25325e-22
1.875e-06
-1.01869e-22
1.25347e-22
1.875e-06
2.15862e-23
1.69875e-22
1.875e-06
7.8305e-23
1.82407e-22
1.875e-06
1.01668e-22
2.28448e-22
1.875e-06
-1.04321e-23
1.46702e-22
1.875e-06
1.27545e-23
1.21612e-22
1.875e-06
-4.23005e-23
-2.05002e-23
1.875e-06
-1.11225e-22
-4.52826e-23
1.875e-06
6.87099e-23
-1.22223e-23
1.875e-06
-1.91979e-23
-1.23719e-23
1.875e-06
7.62116e-24
2.53088e-23
3.29838e-23
1.15958e-22
1.875e-06
4.05082e-23
3.65641e-22
1.875e-06
1.47039e-22
7.6247e-22
1.875e-06
6.30195e-23
8.85373e-22
1.875e-06
-9.03963e-24
8.77045e-22
1.875e-06
1.26539e-22
1.01715e-21
1.875e-06
1.35084e-22
1.05455e-21
1.875e-06
1.65438e-22
1.00916e-21
1.875e-06
2.29871e-22
1.00136e-21
1.875e-06
2.95038e-22
9.25248e-22
1.875e-06
2.26561e-22
8.71643e-22
1.875e-06
1.8796e-22
9.05521e-22
1.875e-06
1.93203e-22
9.37643e-22
1.875e-06
1.59627e-22
8.26395e-22
1.875e-06
2.43994e-22
8.24201e-22
1.875e-06
1.60568e-22
8.14037e-22
1.875e-06
8.33008e-23
5.83707e-22
1.875e-06
8.92696e-23
6.01733e-22
1.875e-06
3.52703e-24
5.14766e-22
1.875e-06
-6.16283e-24
3.71492e-22
1.875e-06
4.80087e-23
2.74145e-22
1.875e-06
1.33408e-22
3.40507e-22
1.875e-06
1.91481e-22
3.36894e-22
1.875e-06
1.52046e-22
1.69482e-22
1.875e-06
1.77836e-22
2.42119e-22
1.875e-06
4.87786e-24
2.66606e-22
1.875e-06
1.03106e-22
3.90313e-22
1.875e-06
5.33443e-23
2.34454e-22
1.875e-06
-5.14051e-23
2.38703e-22
1.875e-06
-7.52167e-23
1.6734e-22
1.875e-06
-7.37237e-23
1.16958e-22
1.875e-06
9.49227e-23
1.31236e-22
1.875e-06
1.18525e-22
1.1337e-22
1.875e-06
-3.49394e-23
6.55606e-23
1.875e-06
-2.34007e-23
1.26199e-22
1.875e-06
5.50089e-23
5.36979e-23
1.875e-06
1.19212e-22
2.87685e-23
1.875e-06
-2.42041e-23
-6.65989e-23
1.875e-06
-5.11214e-24
-7.81758e-23
1.875e-06
5.74255e-23
-1.65e-23
7.70732e-23
9.96048e-23
1.875e-06
6.09729e-23
4.59546e-22
1.875e-06
4.88204e-23
7.8254e-22
1.875e-06
1.37835e-22
9.6045e-22
1.875e-06
6.9071e-23
1.01068e-21
1.875e-06
9.02203e-23
1.05651e-21
1.875e-06
8.65013e-23
1.05235e-21
1.875e-06
1.80748e-22
1.10171e-21
1.875e-06
3.44967e-22
1.06154e-21
1.875e-06
2.71247e-22
9.86083e-22
1.875e-06
2.17748e-22
9.46526e-22
1.875e-06
1.48846e-22
9.58014e-22
1.875e-06
9.46506e-23
9.41209e-22
1.875e-06
1.69393e-22
9.20641e-22
1.875e-06
2.28266e-22
7.58977e-22
1.875e-06
1.23634e-22
8.08763e-22
1.875e-06
8.20659e-23
6.37631e-22
1.875e-06
3.25137e-23
5.29108e-22
1.875e-06
1.00284e-22
4.98431e-22
1.875e-06
1.73236e-22
4.34775e-22
1.875e-06
4.72754e-23
3.46453e-22
1.875e-06
1.36877e-22
3.49655e-22
1.875e-06
8.35177e-23
1.89077e-22
1.875e-06
-2.4347e-23
1.52478e-22
1.875e-06
1.39655e-23
2.96022e-22
1.875e-06
2.7822e-23
3.20367e-22
1.875e-06
5.43777e-23
2.72287e-22
1.875e-06
3.86122e-23
2.51482e-22
1.875e-06
4.83184e-23
2.48706e-22
1.875e-06
-3.08745e-24
1.40925e-22
1.875e-06
2.73318e-23
9.52303e-23
1.875e-06
1.32118e-23
9.11481e-23
1.875e-06
-3.18271e-23
7.43974e-23
1.875e-06
5.65111e-23
7.14415e-23
1.875e-06
8.91364e-23
5.97497e-23
1.875e-06
1.28772e-22
7.22362e-23
1.875e-06
1.48397e-22
1.56012e-23
1.875e-06
3.52102e-23
-7.04732e-23
1.875e-06
-1.43785e-23
-7.34173e-23
1.875e-06
-4.78339e-23
1.6304e-23
1.13274e-23
1.55094e-22
1.875e-06
1.38584e-22
3.51696e-22
1.875e-06
1.00802e-22
7.49183e-22
1.875e-06
5.35541e-23
9.4209e-22
1.875e-06
1.56443e-22
1.11157e-21
1.875e-06
1.67187e-22
1.17674e-21
1.875e-06
2.71861e-22
1.11959e-21
1.875e-06
2.76491e-22
1.16562e-21
1.875e-06
3.19111e-23
1.0537e-21
1.875e-06
9.2287e-23
1.03182e-21
1.875e-06
2.34774e-22
1.00956e-21
1.875e-06
8.71808e-23
9.97068e-22
1.875e-06
7.85802e-23
9.34145e-22
1.875e-06
1.72857e-22
8.47119e-22
1.875e-06
2.09161e-22
7.24547e-22
1.875e-06
1.98014e-22
7.82436e-22
1.875e-06
1.14157e-22
6.269e-22
1.875e-06
8.27153e-23
5.15577e-22
1.875e-06
-7.11192e-25
4.5852e-22
1.875e-06
8.76007e-23
3.27773e-22
1.875e-06
1.68278e-22
3.42458e-22
1.875e-06
4.43812e-23
3.60784e-22
1.875e-06
5.5059e-23
2.85363e-22
1.875e-06
1.22837e-22
2.98043e-22
1.875e-06
4.63485e-23
3.27851e-22
1.875e-06
-1.76739e-23
3.53963e-22
1.875e-06
2.37744e-23
2.98966e-22
1.875e-06
6.83997e-23
2.0463e-22
1.875e-06
8.70229e-23
1.71179e-22
1.875e-06
3.30631e-24
9.90977e-23
1.875e-06
5.11531e-23
8.18699e-23
1.875e-06
-1.03232e-22
1.58564e-22
1.875e-06
-9.52094e-23
1.37827e-22
1.875e-06
3.89819e-23
1.28348e-22
1.875e-06
5.38501e-23
6.98245e-23
1.875e-06
8.03976e-23
-6.3195e-23
1.875e-06
-1.12154e-23
-2.07373e-22
1.875e-06
6.60984e-23
-2.00633e-22
1.875e-06
-3.18365e-23
-2.66466e-23
1.875e-06
-6.36945e-23
1.12591e-22
-1.41045e-23
5.18044e-23
1.875e-06
-1.77999e-22
2.6282e-22
1.875e-06
-2.63423e-23
8.52062e-22
1.875e-06
1.30032e-22
1.01859e-21
1.875e-06
1.48096e-22
1.12327e-21
1.875e-06
1.87297e-22
1.19368e-21
1.875e-06
2.01498e-22
1.11829e-21
1.875e-06
1.86226e-22
1.20574e-21
1.875e-06
1.48999e-22
1.12982e-21
1.875e-06
1.03987e-22
1.09817e-21
1.875e-06
6.02733e-23
9.68864e-22
1.875e-06
2.09065e-22
1.05864e-21
1.875e-06
8.86904e-23
1.05176e-21
1.875e-06
3.53871e-23
7.72331e-22
1.875e-06
1.0761e-22
6.10865e-22
1.875e-06
1.69261e-22
7.80199e-22
1.875e-06
1.05304e-22
6.34745e-22
1.875e-06
1.22719e-22
5.77183e-22
1.875e-06
1.79624e-22
4.97999e-22
1.875e-06
-1.39986e-22
3.2084e-22
1.875e-06
-1.23e-22
3.03998e-22
1.875e-06
1.23136e-22
4.14251e-22
1.875e-06
1.42862e-22
3.80275e-22
1.875e-06
1.15544e-22
3.18209e-22
1.875e-06
1.27966e-22
4.1706e-22
1.875e-06
1.58212e-22
3.72163e-22
1.875e-06
2.46123e-24
2.49013e-22
1.875e-06
-9.78428e-23
1.48245e-22
1.875e-06
-8.70295e-23
1.23245e-22
1.875e-06
7.97814e-23
6.28565e-23
1.875e-06
-1.20335e-23
1.77908e-22
1.875e-06
-1.93535e-23
2.5708e-22
1.875e-06
-5.80478e-23
1.73012e-22
1.875e-06
-3.17584e-23
1.52843e-22
1.875e-06
1.33386e-24
2.99631e-23
1.875e-06
1.84536e-23
-2.16695e-22
1.875e-06
-3.69674e-23
-3.31637e-22
1.875e-06
-2.75231e-23
-2.14292e-22
1.875e-06
8.85602e-23
2.15005e-23
1.875e-06
9.09182e-23
1.1426e-22
7.78988e-24
2.29005e-23
1.875e-06
-2.18175e-24
5.48321e-22
1.875e-06
8.04065e-23
8.64959e-22
1.875e-06
1.55237e-22
1.00092e-21
1.875e-06
2.31467e-22
1.22533e-21
1.875e-06
7.77364e-23
1.26049e-21
1.875e-06
1.04101e-22
1.21847e-21
1.875e-06
2.38066e-22
1.26183e-21
1.875e-06
1.0579e-22
1.14771e-21
1.875e-06
1.54851e-22
9.23672e-22
1.875e-06
1.04886e-22
9.30735e-22
1.875e-06
5.98132e-23
1.01361e-21
1.875e-06
6.70515e-23
1.04455e-21
1.875e-06
4.96181e-23
9.28665e-22
1.875e-06
8.6622e-23
7.59418e-22
1.875e-06
1.20121e-22
7.48769e-22
1.875e-06
1.82679e-22
6.59643e-22
1.875e-06
1.22889e-22
5.28644e-22
1.875e-06
6.04247e-23
4.64584e-22
1.875e-06
-1.12351e-23
3.58569e-22
1.875e-06
1.889e-23
4.41273e-22
1.875e-06
1.2604e-22
4.23471e-22
1.875e-06
1.72436e-22
4.2475e-22
1.875e-06
2.93484e-23
3.71839e-22
1.875e-06
2.8193e-23
4.12849e-22
1.875e-06
5.83874e-23
3.03186e-22
1.875e-06
6.82976e-23
2.79198e-22
1.875e-06
-1.40868e-22
1.76551e-22
1.875e-06
-4.8164e-23
1.43115e-22
1.875e-06
-9.7178e-24
1.28194e-22
1.875e-06
1.48123e-23
1.7818e-22
1.875e-06
2.56037e-23
1.66624e-22
1.875e-06
-8.26892e-23
1.92052e-22
1.875e-06
-3.96157e-23
1.4535e-22
1.875e-06
-2.96107e-23
-2.84859e-23
1.875e-06
-5.93117e-23
-2.16055e-22
1.875e-06
2.84805e-23
-3.03347e-22
1.875e-06
-7.04663e-23
-3.36997e-22
1.875e-06
1.45491e-22
-1.3985e-22
1.875e-06
5.94174e-23
-2.08847e-23
8.84785e-23
-7.77495e-23
1.875e-06
8.45205e-23
6.76601e-22
1.875e-06
1.29699e-22
9.75213e-22
1.875e-06
1.58229e-22
1.09734e-21
1.875e-06
8.58728e-23
1.15404e-21
1.875e-06
1.40006e-22
1.29061e-21
1.875e-06
1.56564e-22
1.19976e-21
1.875e-06
-1.62387e-23
1.13143e-21
1.875e-06
2.02086e-22
1.22396e-21
1.875e-06
-3.05731e-24
8.87887e-22
1.875e-06
1.04069e-23
9.24954e-22
1.875e-06
1.821e-22
9.99832e-22
1.875e-06
2.4294e-22
1.04704e-21
1.875e-06
1.00219e-22
9.81334e-22
1.875e-06
8.87744e-23
7.52377e-22
1.875e-06
7.00791e-23
7.57285e-22
1.875e-06
1.44629e-22
7.12538e-22
1.875e-06
1.41822e-22
5.11671e-22
1.875e-06
9.23613e-23
4.99228e-22
1.875e-06
1.76993e-22
4.58607e-22
1.875e-06
1.32791e-22
4.46688e-22
1.875e-06
5.10898e-23
3.86757e-22
1.875e-06
7.2095e-23
3.23068e-22
1.875e-06
4.31641e-23
4.58755e-22
1.875e-06
3.20795e-23
5.13857e-22
1.875e-06
2.6572e-23
2.53185e-22
1.875e-06
-1.08307e-22
1.78398e-22
1.875e-06
8.14672e-24
2.85281e-22
1.875e-06
3.25358e-23
2.10245e-22
1.875e-06
3.4865e-23
1.52697e-22
1.875e-06
-6.50402e-23
1.5957e-22
1.875e-06
-1.04836e-22
1.67266e-22
1.875e-06
3.32284e-23
2.20654e-22
1.875e-06
-9.02362e-24
5.86922e-23
1.875e-06
-1.03901e-22
-2.01319e-23
1.875e-06
-1.52946e-22
-1.53771e-22
1.875e-06
-9.17309e-23
-2.99979e-22
1.875e-06
2.37204e-23
-2.36453e-22
1.875e-06
2.98435e-23
-2.63418e-22
1.875e-06
2.06813e-22
1.26492e-23
1.70224e-22
-5.10388e-23
1.875e-06
2.07406e-22
6.57377e-22
1.875e-06
1.22856e-22
9.91271e-22
1.875e-06
1.24649e-22
1.09391e-21
1.875e-06
1.32412e-22
1.18915e-21
1.875e-06
1.53054e-22
1.23275e-21
1.875e-06
3.77812e-23
1.20011e-21
1.875e-06
1.61493e-22
1.24718e-21
1.875e-06
1.1416e-22
1.09577e-21
1.875e-06
2.19174e-22
1.00068e-21
1.875e-06
1.07828e-22
1.00641e-21
1.875e-06
2.34912e-23
9.05268e-22
1.875e-06
1.4981e-24
9.44973e-22
1.875e-06
1.37005e-22
1.03808e-21
1.875e-06
1.52782e-22
7.24837e-22
1.875e-06
9.49794e-23
7.63941e-22
1.875e-06
3.42527e-24
7.42854e-22
1.875e-06
4.31025e-23
5.51739e-22
1.875e-06
5.17199e-23
4.80742e-22
1.875e-06
9.57752e-23
5.18012e-22
1.875e-06
2.22408e-22
4.91939e-22
1.875e-06
1.27644e-22
4.21938e-22
1.875e-06
-2.80407e-23
3.35129e-22
1.875e-06
-2.91752e-23
3.80715e-22
1.875e-06
-2.48693e-23
4.53105e-22
1.875e-06
-1.22347e-22
2.45215e-22
1.875e-06
-5.3703e-23
2.9551e-22
1.875e-06
-1.5229e-23
1.94853e-22
1.875e-06
3.50281e-23
1.64033e-22
1.875e-06
-3.7991e-23
1.24971e-22
1.875e-06
-5.97504e-23
2.12213e-22
1.875e-06
5.9644e-23
2.15997e-22
1.875e-06
1.80575e-23
1.87319e-22
1.875e-06
-3.21539e-23
9.52802e-23
1.875e-06
1.32175e-22
1.95056e-23
1.875e-06
8.02207e-23
-5.225e-23
1.875e-06
-1.51295e-22
-2.30953e-22
1.875e-06
-1.29746e-22
-3.35549e-22
1.875e-06
2.1069e-23
-2.11413e-22
1.875e-06
4.17866e-23
-9.74142e-23
6.31963e-23
-2.24518e-22
1.875e-06
6.58022e-23
5.10664e-22
1.875e-06
1.87669e-22
9.53428e-22
1.875e-06
1.09746e-22
1.05578e-21
1.875e-06
1.27245e-22
1.26336e-21
1.875e-06
-3.59093e-23
1.265e-21
1.875e-06
-6.75051e-23
1.21026e-21
1.875e-06
7.71264e-23
1.17116e-21
1.875e-06
8.96123e-23
1.07976e-21
1.875e-06
3.71918e-23
9.50866e-22
1.875e-06
1.25773e-22
9.0434e-22
1.875e-06
5.67524e-23
8.32839e-22
1.875e-06
1.33628e-22
9.77502e-22
1.875e-06
1.63109e-22
1.01356e-21
1.875e-06
1.3385e-22
8.49751e-22
1.875e-06
1.30116e-22
7.87729e-22
1.875e-06
5.83993e-23
6.58896e-22
1.875e-06
3.86913e-23
5.50484e-22
1.875e-06
6.65758e-23
6.00998e-22
1.875e-06
1.34575e-22
6.17776e-22
1.875e-06
4.45729e-23
4.32458e-22
1.875e-06
1.0438e-22
4.14322e-22
1.875e-06
9.91725e-23
3.50296e-22
1.875e-06
5.45769e-23
4.32512e-22
1.875e-06
4.90032e-23
3.68962e-22
1.875e-06
-1.14904e-22
2.84486e-22
1.875e-06
-1.01811e-22
2.85749e-22
1.875e-06
-4.46288e-23
1.95489e-22
1.875e-06
3.26729e-23
1.35376e-22
1.875e-06
-1.33098e-23
1.82412e-22
1.875e-06
-9.16539e-23
1.77784e-22
1.875e-06
-1.16408e-22
1.51929e-22
1.875e-06
-7.24725e-25
2.00652e-22
1.875e-06
5.86218e-23
1.78406e-22
1.875e-06
-1.70327e-23
-5.61725e-23
1.875e-06
-1.13689e-24
-7.63912e-23
1.875e-06
-3.221e-23
-2.67625e-22
1.875e-06
-5.91687e-23
-3.4435e-22
1.875e-06
-6.54091e-23
-1.76526e-22
1.875e-06
-1.25233e-22
-5.30555e-23
-3.58882e-23
-2.25481e-22
1.875e-06
-1.5754e-22
4.99039e-22
1.875e-06
1.39661e-23
9.12904e-22
1.875e-06
1.29752e-22
1.09602e-21
1.875e-06
1.94694e-24
1.21927e-21
1.875e-06
-2.04206e-23
1.31152e-21
1.875e-06
7.57413e-23
1.28709e-21
1.875e-06
1.4815e-22
1.14639e-21
1.875e-06
2.16668e-22
1.09265e-21
1.875e-06
1.15842e-22
1.03365e-21
1.875e-06
-5.54028e-23
9.29605e-22
1.875e-06
-3.67033e-24
8.87441e-22
1.875e-06
1.19618e-22
8.55357e-22
1.875e-06
1.13848e-22
1.00255e-21
1.875e-06
9.43903e-23
8.11956e-22
1.875e-06
8.15602e-23
7.68518e-22
1.875e-06
5.89622e-23
7.15309e-22
1.875e-06
8.72777e-23
7.09521e-22
1.875e-06
1.95675e-22
6.46835e-22
1.875e-06
1.76837e-22
5.50763e-22
1.875e-06
1.00495e-22
4.47491e-22
1.875e-06
1.59891e-22
4.31658e-22
1.875e-06
1.99211e-23
3.86778e-22
1.875e-06
-3.97253e-23
3.78867e-22
1.875e-06
-7.05804e-23
3.52836e-22
1.875e-06
-9.1695e-23
3.16733e-22
1.875e-06
-3.90853e-24
2.91724e-22
1.875e-06
1.02045e-22
2.52066e-22
1.875e-06
-2.95336e-23
1.40317e-22
1.875e-06
-7.52228e-23
1.9369e-22
1.875e-06
-3.01516e-23
2.43866e-22
1.875e-06
-1.0455e-22
2.73674e-22
1.875e-06
-9.49758e-23
1.75107e-22
1.875e-06
-1.41474e-24
1.13545e-22
1.875e-06
-2.43207e-23
5.40981e-23
1.875e-06
-4.08208e-23
-1.08075e-22
1.875e-06
1.68239e-23
-3.00021e-22
1.875e-06
-4.55698e-23
-3.49027e-22
1.875e-06
-3.93791e-23
-3.46711e-22
1.875e-06
-3.69392e-23
-1.63295e-22
-1.79337e-22
-2.56607e-22
1.875e-06
-4.19848e-23
7.34513e-22
1.875e-06
-1.83704e-22
9.11974e-22
1.875e-06
-5.39212e-23
1.02396e-21
1.875e-06
-1.5307e-23
1.17582e-21
1.875e-06
9.18655e-23
1.32039e-21
1.875e-06
1.98921e-23
1.21513e-21
1.875e-06
-1.49202e-23
1.07479e-21
1.875e-06
5.73211e-23
9.75583e-22
1.875e-06
6.94991e-23
1.03403e-21
1.875e-06
4.69988e-23
1.04819e-21
1.875e-06
1.76658e-22
1.01057e-21
1.875e-06
1.24406e-22
9.53919e-22
1.875e-06
6.77982e-23
1.02235e-21
1.875e-06
2.25936e-23
8.73253e-22
1.875e-06
5.14497e-23
7.85701e-22
1.875e-06
8.38058e-23
7.22627e-22
1.875e-06
7.99836e-23
5.10865e-22
1.875e-06
1.554e-22
4.99974e-22
1.875e-06
1.20933e-22
5.74408e-22
1.875e-06
8.27005e-23
6.34311e-22
1.875e-06
1.11367e-22
3.77159e-22
1.875e-06
9.40955e-23
4.652e-22
1.875e-06
-3.91175e-23
5.14391e-22
1.875e-06
-2.24343e-22
2.64221e-22
1.875e-06
-1.31747e-22
2.96564e-22
1.875e-06
6.12264e-23
2.9812e-22
1.875e-06
1.00642e-22
1.7974e-22
1.875e-06
-3.74649e-23
1.15292e-22
1.875e-06
1.0508e-23
1.32425e-22
1.875e-06
-2.50474e-23
1.62981e-22
1.875e-06
-2.12052e-23
2.68052e-22
1.875e-06
-6.65428e-23
1.94765e-22
1.875e-06
-3.74193e-23
5.7697e-23
1.875e-06
-2.24595e-23
3.18678e-23
1.875e-06
-3.48341e-24
-2.01536e-23
1.875e-06
-2.43785e-24
-2.52459e-22
1.875e-06
-1.03816e-22
-3.31128e-22
1.875e-06
-1.38068e-22
-2.64992e-22
1.875e-06
-2.99191e-23
-2.07327e-22
-5.53261e-23
-2.19548e-22
1.875e-06
-3.32301e-23
6.66516e-22
1.875e-06
-1.01973e-22
1.04852e-21
1.875e-06
-9.17962e-23
1.08134e-21
1.875e-06
-1.21063e-22
1.26592e-21
1.875e-06
-8.21705e-23
1.29537e-21
1.875e-06
4.22459e-23
1.27739e-21
1.875e-06
7.06357e-23
1.14472e-21
1.875e-06
6.28959e-23
1.06333e-21
1.875e-06
6.67677e-23
1.07111e-21
1.875e-06
1.08895e-22
9.6422e-22
1.875e-06
2.82676e-23
9.50438e-22
1.875e-06
4.24312e-23
1.03476e-21
1.875e-06
-5.9355e-23
1.09023e-21
1.875e-06
-4.97599e-24
8.59884e-22
1.875e-06
-2.19424e-24
7.55131e-22
1.875e-06
1.65905e-23
6.8489e-22
1.875e-06
1.10268e-22
5.52335e-22
1.875e-06
5.6444e-23
4.96418e-22
1.875e-06
1.21249e-22
5.37307e-22
1.875e-06
1.36391e-22
5.10963e-22
1.875e-06
6.14234e-23
3.95125e-22
1.875e-06
-2.19259e-23
4.15927e-22
1.875e-06
-9.452e-23
4.6313e-22
1.875e-06
-1.69596e-22
3.38818e-22
1.875e-06
-6.00102e-23
3.47359e-22
1.875e-06
-5.03224e-23
2.37057e-22
1.875e-06
-1.68562e-23
4.02419e-23
1.875e-06
7.36436e-23
8.81512e-23
1.875e-06
-5.98027e-23
1.46109e-22
1.875e-06
8.15845e-23
2.01073e-22
1.875e-06
-2.26247e-23
1.81982e-22
1.875e-06
7.88966e-23
1.34525e-22
1.875e-06
-3.98837e-23
2.56534e-24
1.875e-06
-1.32012e-22
2.22836e-23
1.875e-06
-1.64079e-22
-1.25483e-22
1.875e-06
-1.78601e-22
-3.16097e-22
1.875e-06
3.02037e-23
-2.02299e-22
1.875e-06
2.86115e-23
-1.30753e-22
1.875e-06
-1.25541e-22
-2.00417e-22
-1.06919e-22
-1.23512e-22
1.875e-06
-1.3834e-22
5.89677e-22
1.875e-06
-6.99541e-23
1.0269e-21
1.875e-06
-2.36603e-23
1.18086e-21
1.875e-06
-6.70671e-23
1.32259e-21
1.875e-06
-7.91642e-23
1.41512e-21
1.875e-06
-4.07616e-23
1.32647e-21
1.875e-06
-4.96584e-23
1.15558e-21
1.875e-06
-5.12656e-23
1.13366e-21
1.875e-06
1.77879e-23
1.15953e-21
1.875e-06
6.80739e-23
9.93886e-22
1.875e-06
8.3485e-23
9.45304e-22
1.875e-06
8.09859e-23
9.6093e-22
1.875e-06
4.04394e-23
1.13825e-21
1.875e-06
-3.46959e-23
1.01328e-21
1.875e-06
8.49593e-23
7.95075e-22
1.875e-06
6.84565e-23
5.4691e-22
1.875e-06
1.96368e-23
3.83259e-22
1.875e-06
-5.38746e-23
4.86872e-22
1.875e-06
5.46639e-23
5.89861e-22
1.875e-06
1.76714e-22
5.82018e-22
1.875e-06
1.22759e-22
4.63465e-22
1.875e-06
-2.71544e-23
4.56383e-22
1.875e-06
-1.34869e-22
3.87484e-22
1.875e-06
-9.53779e-23
3.45175e-22
1.875e-06
-1.33151e-22
2.65533e-22
1.875e-06
-3.4981e-23
3.07511e-22
1.875e-06
-4.54372e-23
1.06017e-22
1.875e-06
-5.08691e-23
5.13438e-23
1.875e-06
4.92644e-23
2.12562e-22
1.875e-06
-3.76211e-23
7.41953e-23
1.875e-06
8.12981e-23
1.24015e-22
1.875e-06
-6.01131e-23
2.14305e-23
1.875e-06
-8.14866e-23
2.67004e-23
1.875e-06
-1.05372e-22
9.41044e-23
1.875e-06
-1.76477e-22
-5.59525e-23
1.875e-06
-1.1433e-22
-2.37105e-22
1.875e-06
7.8989e-24
-2.52831e-22
1.875e-06
-6.52472e-23
-2.24252e-22
1.875e-06
5.51502e-24
-2.52053e-22
4.29621e-23
-1.80059e-22
1.875e-06
-6.36689e-23
6.60107e-22
1.875e-06
-1.68295e-22
1.06146e-21
1.875e-06
-1.68707e-22
1.13349e-21
1.875e-06
3.08912e-23
1.25508e-21
1.875e-06
3.53725e-23
1.41522e-21
1.875e-06
-6.64356e-23
1.3325e-21
1.875e-06
-1.54675e-22
1.1776e-21
1.875e-06
-1.62186e-22
1.13739e-21
1.875e-06
1.39484e-23
1.21741e-21
1.875e-06
1.42112e-22
1.21403e-21
1.875e-06
7.03202e-23
9.95387e-22
1.875e-06
5.0882e-23
9.20445e-22
1.875e-06
9.75329e-23
1.08079e-21
1.875e-06
2.19633e-23
1.06394e-21
1.875e-06
8.51209e-24
7.93914e-22
1.875e-06
-1.43939e-23
5.99355e-22
1.875e-06
1.9583e-23
5.64326e-22
1.875e-06
2.33542e-22
5.49046e-22
1.875e-06
2.09989e-22
4.64097e-22
1.875e-06
9.37121e-23
4.60116e-22
1.875e-06
-1.07643e-22
3.54411e-22
1.875e-06
-2.03865e-22
4.88205e-22
1.875e-06
-3.52955e-23
5.02575e-22
1.875e-06
-1.88622e-25
3.99553e-22
1.875e-06
-1.94096e-23
4.22868e-22
1.875e-06
-1.44881e-22
2.28654e-22
1.875e-06
-5.4436e-23
1.14955e-22
1.875e-06
-3.57538e-23
1.53665e-22
1.875e-06
-4.83383e-23
1.08366e-22
1.875e-06
-5.97189e-24
7.61646e-23
1.875e-06
7.83259e-23
5.82064e-23
1.875e-06
-4.81315e-23
4.59326e-23
1.875e-06
-7.91942e-23
5.93038e-23
1.875e-06
-1.98076e-23
3.22801e-23
1.875e-06
-1.25807e-22
9.28671e-24
1.875e-06
-1.36378e-22
-4.84502e-23
1.875e-06
-1.35336e-22
-2.14357e-22
1.875e-06
-7.51123e-23
-2.40997e-22
1.875e-06
8.30259e-23
-2.55771e-22
1.70044e-22
-2.35344e-22
1.875e-06
7.54346e-24
7.63709e-22
1.875e-06
-7.27667e-24
1.05199e-21
1.875e-06
2.32632e-23
1.14927e-21
1.875e-06
3.32462e-24
1.30192e-21
1.875e-06
-3.9299e-23
1.28572e-21
1.875e-06
-1.332e-22
1.36698e-21
1.875e-06
-2.12641e-22
1.27018e-21
1.875e-06
-1.36436e-22
1.27822e-21
1.875e-06
4.32717e-23
1.22908e-21
1.875e-06
4.83301e-23
1.09897e-21
1.875e-06
3.56673e-23
1.05628e-21
1.875e-06
4.29147e-23
1.03052e-21
1.875e-06
1.40656e-22
1.05749e-21
1.875e-06
1.58617e-22
1.05334e-21
1.875e-06
3.99542e-23
8.12659e-22
1.875e-06
1.35756e-23
6.34895e-22
1.875e-06
-8.77262e-23
6.35465e-22
1.875e-06
-1.29763e-22
4.33928e-22
1.875e-06
3.48378e-23
3.46754e-22
1.875e-06
-6.25152e-24
3.13501e-22
1.875e-06
-6.55041e-23
3.50757e-22
1.875e-06
3.76646e-23
5.79755e-22
1.875e-06
-3.02926e-23
5.27644e-22
1.875e-06
1.22416e-23
4.73624e-22
1.875e-06
-3.69791e-24
3.83797e-22
1.875e-06
-9.15174e-23
2.06711e-22
1.875e-06
7.06945e-23
2.22841e-22
1.875e-06
6.58063e-23
2.45652e-22
1.875e-06
-2.01931e-23
1.79267e-22
1.875e-06
-1.06682e-23
-1.41728e-23
1.875e-06
-6.83268e-23
-1.57936e-22
1.875e-06
-3.6734e-23
-3.16198e-23
1.875e-06
-5.95029e-24
8.45008e-23
1.875e-06
1.35675e-23
1.54475e-22
1.875e-06
8.02121e-23
4.9943e-23
1.875e-06
-7.69006e-23
3.46285e-23
1.875e-06
-8.4329e-23
-8.12455e-23
1.875e-06
-5.40053e-23
-1.36874e-22
1.875e-06
-6.13478e-23
-2.47567e-22
-4.0137e-23
-2.60152e-22
1.875e-06
1.0064e-22
7.94763e-22
1.875e-06
1.50417e-22
1.14191e-21
1.875e-06
1.33894e-23
1.01187e-21
1.875e-06
-9.60384e-23
1.17453e-21
1.875e-06
-1.61749e-22
1.3512e-21
1.875e-06
-5.50041e-23
1.40898e-21
1.875e-06
-5.34505e-24
1.3444e-21
1.875e-06
-7.09409e-23
1.21092e-21
1.875e-06
-1.5201e-22
1.12466e-21
1.875e-06
5.93505e-24
1.25627e-21
1.875e-06
-1.64688e-22
1.06648e-21
1.875e-06
4.88116e-22
1.08123e-21
1.875e-06
5.77045e-23
9.83206e-22
1.875e-06
1.60176e-22
1.00712e-21
1.875e-06
1.66768e-23
9.55608e-22
1.875e-06
-9.89988e-23
6.98391e-22
1.875e-06
-8.55919e-23
4.88779e-22
1.875e-06
-1.13858e-22
2.90022e-22
1.875e-06
-1.76073e-22
4.13676e-22
1.875e-06
-3.94519e-23
4.38235e-22
1.875e-06
-6.73635e-23
4.03738e-22
1.875e-06
-5.07754e-23
4.8305e-22
1.875e-06
-3.45954e-23
6.02424e-22
1.875e-06
-1.5683e-23
3.55344e-22
1.875e-06
1.51326e-22
3.95622e-22
1.875e-06
1.06078e-22
2.792e-22
1.875e-06
-7.65618e-23
1.67867e-22
1.875e-06
-1.50781e-23
1.36065e-22
1.875e-06
-9.94866e-23
1.3855e-22
1.875e-06
2.14683e-22
-1.88464e-23
1.875e-06
-2.73195e-23
-5.44857e-23
1.875e-06
-3.32183e-23
2.75115e-23
1.875e-06
9.34198e-23
1.76042e-23
1.875e-06
-1.88747e-22
7.58655e-23
1.875e-06
-9.08889e-24
-4.76231e-23
1.875e-06
1.06556e-22
9.57291e-23
1.875e-06
3.4034e-23
-2.91562e-23
1.875e-06
9.62324e-24
-1.82619e-22
1.875e-06
-1.39404e-22
-2.52365e-22
-4.94791e-23
-2.09835e-22
1.875e-06
1.98406e-22
6.93283e-22
1.875e-06
1.38763e-22
9.76894e-22
1.875e-06
1.56493e-23
1.03467e-21
1.875e-06
-1.08493e-23
1.18576e-21
1.875e-06
7.98235e-23
1.33813e-21
1.875e-06
4.82981e-23
1.36328e-21
1.875e-06
-2.03415e-23
1.2995e-21
1.875e-06
-1.67574e-22
1.21784e-21
1.875e-06
-1.50677e-22
1.19399e-21
1.875e-06
-6.25416e-23
1.31247e-21
1.875e-06
4.0822e-23
1.13169e-21
1.875e-06
7.34705e-23
1.11841e-21
1.875e-06
1.56399e-23
1.08248e-21
1.875e-06
1.11871e-23
8.89017e-22
1.875e-06
-5.74457e-23
8.16028e-22
1.875e-06
-2.00494e-23
7.323e-22
1.875e-06
-4.61455e-23
5.49524e-22
1.875e-06
-1.12161e-22
4.09704e-22
1.875e-06
-8.57332e-23
5.01655e-22
1.875e-06
-6.01584e-23
4.53489e-22
1.875e-06
-1.14493e-22
4.18479e-22
1.875e-06
-1.33923e-22
4.36178e-22
1.875e-06
-1.22428e-23
5.32675e-22
1.875e-06
8.03487e-24
3.67483e-22
1.875e-06
-6.50664e-25
3.5868e-22
1.875e-06
1.11096e-22
3.49833e-22
1.875e-06
7.08128e-23
1.86596e-22
1.875e-06
8.61008e-23
7.53921e-23
1.875e-06
9.73581e-23
8.96545e-23
1.875e-06
2.18844e-23
2.39054e-23
1.875e-06
-1.88335e-23
-7.36784e-23
1.875e-06
-7.15986e-24
-5.24565e-23
1.875e-06
-1.02884e-22
-3.06227e-23
1.875e-06
1.40288e-23
8.75581e-23
1.875e-06
3.61391e-23
-2.35834e-23
1.875e-06
1.57028e-22
6.69997e-23
1.875e-06
6.17484e-23
-1.17573e-22
1.875e-06
5.68066e-23
-2.51897e-22
1.875e-06
-4.2179e-23
-2.43792e-22
-2.12328e-22
-1.48781e-22
1.875e-06
6.21667e-23
5.34688e-22
1.875e-06
1.40819e-22
9.35094e-22
1.875e-06
9.12998e-25
1.17081e-21
1.875e-06
1.55371e-23
1.1664e-21
1.875e-06
5.75916e-23
1.16065e-21
1.875e-06
1.00349e-22
1.29287e-21
1.875e-06
3.54682e-24
1.28654e-21
1.875e-06
-1.46718e-23
1.30986e-21
1.875e-06
-4.87349e-23
1.27852e-21
1.875e-06
-1.72131e-22
1.39044e-21
1.875e-06
-5.66147e-23
1.17449e-21
1.875e-06
-1.04469e-22
1.01582e-21
1.875e-06
-1.02637e-23
1.1031e-21
1.875e-06
-2.42889e-22
9.09551e-22
1.875e-06
-1.4721e-22
7.88782e-22
1.875e-06