/*--------------------------------*- C++ -*----------------------------------*\
| =========                 |                                                 |
| \\      /  F ield         | OpenFOAM: The Open Source CFD Toolbox           |
|  \\    /   O peration     | Version:  v2012                                 |
|   \\  /    A nd           | Website:  www.openfoam.com                      |
|    \\/     M anipulation  |                                                 |
\*---------------------------------------------------------------------------*/
FoamFile
{
    version     2.0;
    format      ascii;
    class       volVectorField;
    location    "31";
    object      U;
}
// * * * * * * * * * * * * * * * * * * * * * * * * * * * * * * * * * * * * * //

dimensions      [0 1 -1 0 0 0 0];


internalField   nonuniform List<vector> 
64000
(
(0.003 2.60169e-19 1.94042e-19)
(0.003 4.26697e-19 3.53985e-19)
(0.003 4.48592e-19 4.73896e-19)
(0.003 4.5656e-19 5.38768e-19)
(0.003 5.76608e-19 5.42314e-19)
(0.003 5.73561e-19 4.69678e-19)
(0.003 5.13068e-19 4.20383e-19)
(0.003 3.32733e-19 3.96642e-19)
(0.003 3.34282e-19 5.1784e-19)
(0.003 5.22706e-19 4.72702e-19)
(0.003 5.41481e-19 3.70622e-19)
(0.003 4.77806e-19 4.52687e-19)
(0.003 4.0657e-19 4.22662e-19)
(0.003 3.78796e-19 3.08966e-19)
(0.003 3.06387e-19 3.65882e-19)
(0.003 2.57512e-19 3.87938e-19)
(0.003 2.05855e-19 2.71605e-19)
(0.003 7.07651e-20 1.25502e-19)
(0.003 7.94871e-20 9.84544e-20)
(0.003 1.54141e-19 1.92537e-19)
(0.003 5.25692e-20 1.90275e-19)
(0.003 1.58447e-19 2.18345e-19)
(0.003 2.61312e-19 2.2954e-19)
(0.003 3.30064e-19 1.47242e-19)
(0.003 3.63161e-19 1.91624e-19)
(0.003 2.33981e-19 1.77926e-19)
(0.003 1.34636e-19 1.90783e-19)
(0.003 2.27972e-19 2.29776e-19)
(0.003 2.21171e-19 2.26536e-19)
(0.003 3.8496e-20 2.35325e-19)
(0.003 -8.85291e-20 2.18938e-19)
(0.003 -3.10924e-20 7.64568e-20)
(0.003 1.15385e-19 7.73361e-20)
(0.003 9.28959e-20 8.91003e-20)
(0.003 9.90137e-20 1.52152e-19)
(0.003 1.67806e-19 2.07801e-19)
(0.003 -5.97894e-21 4.66999e-20)
(0.003 -1.81489e-19 9.83532e-20)
(0.003 -1.64885e-19 2.18591e-19)
(0.003 -1.21483e-19 1.41407e-19)
(0.003 2.56951e-19 2.66279e-19)
(0.003 4.02447e-19 6.8566e-19)
(0.003 6.30515e-19 1.01419e-18)
(0.003 5.8212e-19 1.02209e-18)
(0.003 4.98662e-19 9.96787e-19)
(0.003 6.58302e-19 1.03885e-18)
(0.003 6.37987e-19 9.75214e-19)
(0.003 5.97258e-19 7.73129e-19)
(0.003 5.71741e-19 8.00667e-19)
(0.003 5.24088e-19 1.06057e-18)
(0.003 4.48269e-19 1.02803e-18)
(0.003 4.2152e-19 8.97773e-19)
(0.003 3.66739e-19 8.05274e-19)
(0.003 2.38974e-19 6.97057e-19)
(0.003 1.84847e-19 6.80832e-19)
(0.003 1.4428e-19 6.69555e-19)
(0.003 3.70483e-19 6.32824e-19)
(0.003 3.40256e-19 4.53219e-19)
(0.003 1.28324e-19 3.55651e-19)
(0.003 6.17371e-20 3.46179e-19)
(0.003 1.89165e-19 2.91539e-19)
(0.003 2.95391e-19 3.21716e-19)
(0.003 2.62877e-19 3.55817e-19)
(0.003 3.32429e-19 4.67885e-19)
(0.003 1.90456e-19 4.59673e-19)
(0.003 2.19541e-19 3.27928e-19)
(0.003 2.86731e-19 2.52176e-19)
(0.003 1.66876e-19 2.99528e-19)
(0.003 3.38252e-20 3.89004e-19)
(0.003 3.24204e-20 2.27048e-19)
(0.003 3.34875e-20 8.09068e-20)
(0.003 7.64866e-20 8.07379e-20)
(0.003 9.56114e-20 1.81396e-19)
(0.003 -1.07281e-20 1.87186e-19)
(0.003 -3.18332e-20 2.56388e-19)
(0.003 -6.16479e-20 2.28352e-19)
(0.003 -8.44224e-20 2.96321e-21)
(0.003 -1.33927e-19 2.75554e-20)
(0.003 -1.27466e-19 1.71736e-19)
(0.003 -1.26814e-19 1.52739e-19)
(0.003 1.84223e-19 4.48263e-19)
(0.003 2.32611e-19 8.28695e-19)
(0.003 3.25712e-19 1.12714e-18)
(0.003 4.8796e-19 1.21677e-18)
(0.003 4.4209e-19 1.17347e-18)
(0.003 4.83204e-19 1.1566e-18)
(0.003 5.30967e-19 1.19449e-18)
(0.003 5.52824e-19 1.05972e-18)
(0.003 5.59595e-19 1.11233e-18)
(0.003 4.34808e-19 1.20132e-18)
(0.003 3.33386e-19 1.04397e-18)
(0.003 3.01214e-19 9.82584e-19)
(0.003 3.5199e-19 8.93932e-19)
(0.003 2.12855e-19 7.95327e-19)
(0.003 1.98852e-19 7.83191e-19)
(0.003 1.53265e-19 7.2016e-19)
(0.003 2.6236e-19 7.88727e-19)
(0.003 4.1414e-19 6.38628e-19)
(0.003 1.53112e-19 3.86645e-19)
(0.003 1.0586e-19 3.82712e-19)
(0.003 2.86849e-19 4.32642e-19)
(0.003 3.01558e-19 4.54695e-19)
(0.003 2.88251e-19 3.90834e-19)
(0.003 2.06738e-19 4.60023e-19)
(0.003 1.955e-19 4.51853e-19)
(0.003 1.72583e-19 4.32286e-19)
(0.003 1.40847e-19 3.78368e-19)
(0.003 4.42171e-21 3.78903e-19)
(0.003 -2.84175e-20 3.39884e-19)
(0.003 3.27044e-20 2.65676e-19)
(0.003 8.8295e-20 2.4432e-19)
(0.003 1.03879e-19 1.87721e-19)
(0.003 -5.0738e-20 1.32951e-19)
(0.003 -1.06638e-19 1.08323e-19)
(0.003 -7.39891e-20 2.29647e-19)
(0.003 -4.45543e-20 1.19254e-19)
(0.003 -1.09831e-19 -6.56036e-20)
(0.003 -8.35002e-20 1.02415e-19)
(0.003 -1.47873e-20 1.78587e-19)
(0.003 -3.61621e-20 1.19304e-19)
(0.003 3.83119e-19 6.12889e-19)
(0.003 3.16702e-19 1.02115e-18)
(0.003 1.90034e-19 1.22281e-18)
(0.003 3.10049e-19 1.37144e-18)
(0.003 4.0303e-19 1.31027e-18)
(0.003 4.14056e-19 1.33179e-18)
(0.003 3.60616e-19 1.31641e-18)
(0.003 3.17875e-19 1.15089e-18)
(0.003 3.37847e-19 1.15495e-18)
(0.003 3.9809e-19 1.2141e-18)
(0.003 3.83396e-19 1.18045e-18)
(0.003 3.27758e-19 1.18291e-18)
(0.003 2.64342e-19 1.03275e-18)
(0.003 2.27716e-19 8.46722e-19)
(0.003 4.43662e-19 8.39838e-19)
(0.003 6.0595e-19 7.73088e-19)
(0.003 2.52045e-19 7.52639e-19)
(0.003 1.21346e-19 7.08313e-19)
(0.003 2.32105e-19 4.91712e-19)
(0.003 2.13916e-19 3.40709e-19)
(0.003 1.74318e-19 4.51862e-19)
(0.003 2.26376e-19 5.38846e-19)
(0.003 2.92831e-19 4.84937e-19)
(0.003 2.13781e-19 5.51735e-19)
(0.003 2.07761e-19 5.37261e-19)
(0.003 1.29815e-19 4.47446e-19)
(0.003 2.58088e-20 3.47711e-19)
(0.003 -2.24804e-20 3.06113e-19)
(0.003 4.43556e-20 3.45911e-19)
(0.003 -2.94185e-20 2.86157e-19)
(0.003 -5.28695e-20 2.12282e-19)
(0.003 -1.98778e-20 1.79031e-19)
(0.003 -1.38618e-19 1.70223e-19)
(0.003 -1.18408e-19 1.42378e-19)
(0.003 -4.80815e-20 1.38508e-19)
(0.003 -1.16277e-19 1.32133e-19)
(0.003 3.61352e-20 6.02651e-20)
(0.003 1.21547e-19 5.75769e-20)
(0.003 6.12619e-20 1.13222e-19)
(0.003 3.90629e-20 1.0222e-19)
(0.003 1.54864e-19 6.38735e-19)
(0.003 2.79664e-19 1.15083e-18)
(0.003 1.77188e-19 1.28681e-18)
(0.003 1.68173e-19 1.39348e-18)
(0.003 2.19099e-19 1.44473e-18)
(0.003 1.89641e-19 1.49785e-18)
(0.003 1.87815e-19 1.40163e-18)
(0.003 3.92015e-19 1.15467e-18)
(0.003 4.45075e-19 1.11041e-18)
(0.003 3.96366e-19 1.29448e-18)
(0.003 3.17826e-19 1.29742e-18)
(0.003 2.77938e-19 1.19711e-18)
(0.003 2.76805e-19 1.05975e-18)
(0.003 2.72295e-19 9.78682e-19)
(0.003 3.72876e-19 1.04016e-18)
(0.003 5.18285e-19 1.00691e-18)
(0.003 2.88069e-19 7.83838e-19)
(0.003 9.39316e-20 6.30793e-19)
(0.003 2.0098e-19 4.87162e-19)
(0.003 2.26984e-19 3.57422e-19)
(0.003 1.11688e-20 3.80057e-19)
(0.003 6.06903e-20 5.32349e-19)
(0.003 2.90725e-19 6.08107e-19)
(0.003 2.49328e-19 6.12903e-19)
(0.003 1.80941e-19 5.9641e-19)
(0.003 1.17854e-19 4.79159e-19)
(0.003 7.71707e-20 3.58324e-19)
(0.003 -5.18425e-21 3.33587e-19)
(0.003 1.13648e-21 3.08509e-19)
(0.003 2.0304e-20 1.87694e-19)
(0.003 4.81352e-20 1.49566e-19)
(0.003 -1.43607e-20 1.86777e-19)
(0.003 -1.03857e-19 1.09133e-19)
(0.003 -7.39473e-20 7.55694e-20)
(0.003 -7.1868e-20 1.1044e-19)
(0.003 -9.21563e-20 1.38582e-19)
(0.003 7.0468e-20 1.24724e-19)
(0.003 7.85993e-20 1.43093e-20)
(0.003 1.37928e-20 6.5881e-20)
(0.003 4.45689e-22 1.57328e-19)
(0.003 -6.96446e-21 6.98152e-19)
(0.003 1.67223e-19 1.18606e-18)
(0.003 1.14141e-19 1.2762e-18)
(0.003 1.02327e-19 1.41768e-18)
(0.003 1.61615e-19 1.51686e-18)
(0.003 1.55213e-19 1.46485e-18)
(0.003 1.87724e-19 1.39338e-18)
(0.003 4.61596e-19 1.44356e-18)
(0.003 5.26154e-19 1.34028e-18)
(0.003 3.59512e-19 1.23637e-18)
(0.003 3.1259e-19 1.24127e-18)
(0.003 3.21206e-19 1.29767e-18)
(0.003 2.88075e-19 1.1719e-18)
(0.003 3.50437e-19 9.71375e-19)
(0.003 2.73463e-19 1.10504e-18)
(0.003 1.71741e-19 1.08044e-18)
(0.003 1.35046e-19 8.50971e-19)
(0.003 2.35892e-22 6.14907e-19)
(0.003 2.74407e-20 4.80302e-19)
(0.003 1.18348e-19 3.99191e-19)
(0.003 1.43356e-19 3.68267e-19)
(0.003 1.80507e-19 5.34495e-19)
(0.003 2.75255e-19 6.52265e-19)
(0.003 2.92375e-19 6.11001e-19)
(0.003 1.46236e-19 5.69272e-19)
(0.003 1.21648e-19 5.01234e-19)
(0.003 1.39298e-19 4.22083e-19)
(0.003 -3.67668e-20 2.65943e-19)
(0.003 -1.85507e-19 2.20066e-19)
(0.003 -6.68723e-20 3.09398e-19)
(0.003 1.46723e-19 2.58494e-19)
(0.003 1.90894e-19 1.56867e-19)
(0.003 3.0468e-20 3.36401e-20)
(0.003 -2.17766e-20 1.01939e-19)
(0.003 -4.72369e-20 1.13602e-19)
(0.003 3.53355e-20 9.19835e-21)
(0.003 4.95544e-20 7.91531e-20)
(0.003 2.95232e-20 3.98487e-20)
(0.003 8.87364e-20 4.59309e-20)
(0.003 8.67448e-20 1.23365e-19)
(0.003 7.33561e-20 8.47884e-19)
(0.003 1.56676e-19 1.346e-18)
(0.003 1.69439e-19 1.33957e-18)
(0.003 7.25929e-20 1.40238e-18)
(0.003 1.45982e-19 1.5495e-18)
(0.003 1.61786e-19 1.56281e-18)
(0.003 2.73584e-19 1.46196e-18)
(0.003 5.13271e-19 1.44145e-18)
(0.003 4.9001e-19 1.42683e-18)
(0.003 3.61556e-19 1.35914e-18)
(0.003 2.89468e-19 1.3469e-18)
(0.003 2.17037e-19 1.32253e-18)
(0.003 2.32046e-19 1.20754e-18)
(0.003 3.63188e-19 1.07164e-18)
(0.003 2.22114e-19 1.09817e-18)
(0.003 1.32318e-19 1.00722e-18)
(0.003 1.14751e-19 7.6138e-19)
(0.003 8.47508e-20 5.53576e-19)
(0.003 9.98621e-20 4.44858e-19)
(0.003 8.46611e-20 4.56821e-19)
(0.003 2.20098e-19 4.91236e-19)
(0.003 1.99357e-19 5.87552e-19)
(0.003 1.04845e-19 6.78819e-19)
(0.003 1.57364e-19 6.6449e-19)
(0.003 8.97647e-20 5.67082e-19)
(0.003 1.11023e-19 4.81747e-19)
(0.003 2.97125e-20 4.26248e-19)
(0.003 -1.39183e-20 2.78542e-19)
(0.003 -4.79566e-20 1.56575e-19)
(0.003 -1.87494e-21 1.50548e-19)
(0.003 1.18693e-19 2.43834e-19)
(0.003 7.42298e-20 2.00055e-19)
(0.003 1.5858e-20 -3.55158e-20)
(0.003 7.64084e-20 -2.18154e-20)
(0.003 1.53335e-19 1.3921e-19)
(0.003 2.31484e-19 1.24178e-19)
(0.003 4.27018e-20 1.27384e-20)
(0.003 -6.05709e-20 -1.54314e-20)
(0.003 1.79989e-20 1.28729e-19)
(0.003 6.00352e-20 1.85134e-19)
(0.003 2.22813e-19 7.52295e-19)
(0.003 2.0453e-19 1.25767e-18)
(0.003 1.97867e-19 1.41296e-18)
(0.003 2.15024e-19 1.50511e-18)
(0.003 2.29199e-19 1.61758e-18)
(0.003 2.69361e-19 1.54725e-18)
(0.003 3.70823e-19 1.54452e-18)
(0.003 3.16094e-19 1.63025e-18)
(0.003 3.18273e-19 1.55909e-18)
(0.003 3.62668e-19 1.47968e-18)
(0.003 2.11946e-19 1.38759e-18)
(0.003 1.54946e-19 1.2691e-18)
(0.003 1.90021e-19 1.16562e-18)
(0.003 3.22822e-19 1.0754e-18)
(0.003 2.82185e-19 1.06954e-18)
(0.003 1.78644e-19 1.01078e-18)
(0.003 8.00024e-20 7.53899e-19)
(0.003 1.10521e-19 5.37606e-19)
(0.003 2.76379e-19 4.29069e-19)
(0.003 2.18611e-19 4.15802e-19)
(0.003 1.18119e-19 4.98698e-19)
(0.003 3.64136e-22 6.29159e-19)
(0.003 -2.50559e-20 6.62258e-19)
(0.003 7.58976e-20 6.71918e-19)
(0.003 9.05387e-20 6.43803e-19)
(0.003 8.06328e-20 5.01367e-19)
(0.003 8.41447e-20 3.38453e-19)
(0.003 6.61357e-20 2.11716e-19)
(0.003 4.15154e-21 1.70327e-19)
(0.003 5.76535e-20 2.61496e-19)
(0.003 -6.00447e-20 3.27994e-19)
(0.003 -8.31827e-20 2.31867e-19)
(0.003 3.2103e-20 8.50713e-20)
(0.003 9.60683e-20 7.8265e-20)
(0.003 2.07527e-19 4.95546e-20)
(0.003 9.99545e-20 -1.3501e-19)
(0.003 4.93445e-20 -2.26785e-19)
(0.003 -2.50157e-20 7.18902e-20)
(0.003 -1.15383e-19 2.09363e-19)
(0.003 -4.75164e-20 1.31613e-19)
(0.003 -3.54919e-20 7.85152e-19)
(0.003 4.92519e-20 1.45966e-18)
(0.003 1.91397e-19 1.50055e-18)
(0.003 2.25064e-19 1.56877e-18)
(0.003 2.74899e-19 1.66387e-18)
(0.003 4.35295e-19 1.65037e-18)
(0.003 3.9778e-19 1.65355e-18)
(0.003 1.14953e-19 1.60462e-18)
(0.003 1.12218e-19 1.59014e-18)
(0.003 2.43626e-19 1.55341e-18)
(0.003 2.31397e-19 1.42598e-18)
(0.003 1.43981e-19 1.32796e-18)
(0.003 1.54819e-19 1.11922e-18)
(0.003 2.72452e-19 1.05307e-18)
(0.003 2.96246e-19 1.12083e-18)
(0.003 1.50038e-19 1.0085e-18)
(0.003 2.01095e-19 7.85568e-19)
(0.003 1.61125e-19 4.94099e-19)
(0.003 -9.70365e-21 5.17304e-19)
(0.003 1.27553e-20 4.91941e-19)
(0.003 1.00539e-19 4.50597e-19)
(0.003 1.08481e-19 6.46795e-19)
(0.003 1.59854e-19 7.31487e-19)
(0.003 1.41425e-19 7.42453e-19)
(0.003 1.05068e-19 6.1408e-19)
(0.003 5.87881e-21 4.49274e-19)
(0.003 -2.79576e-20 3.64058e-19)
(0.003 2.81591e-20 2.48865e-19)
(0.003 5.76031e-20 1.23939e-19)
(0.003 -1.84984e-20 2.52154e-19)
(0.003 -1.36809e-19 3.01954e-19)
(0.003 -1.48571e-19 2.59949e-19)
(0.003 1.5125e-20 1.61694e-19)
(0.003 4.85861e-20 7.0865e-21)
(0.003 3.02606e-20 -1.83397e-19)
(0.003 -7.92043e-20 -3.52048e-19)
(0.003 3.5763e-20 -1.89978e-19)
(0.003 5.45692e-20 8.46705e-20)
(0.003 -6.20175e-21 2.18645e-19)
(0.003 1.7425e-20 9.15134e-20)
(0.003 -1.9138e-19 9.33037e-19)
(0.003 2.52013e-20 1.41319e-18)
(0.003 2.17388e-19 1.53242e-18)
(0.003 3.28806e-19 1.67776e-18)
(0.003 2.36837e-19 1.80865e-18)
(0.003 2.34824e-19 1.78078e-18)
(0.003 3.42999e-19 1.72845e-18)
(0.003 1.9047e-19 1.62148e-18)
(0.003 1.72341e-19 1.43857e-18)
(0.003 1.59801e-19 1.46098e-18)
(0.003 2.25249e-19 1.4496e-18)
(0.003 1.31185e-19 1.31739e-18)
(0.003 1.19614e-19 1.1919e-18)
(0.003 1.88645e-19 1.17177e-18)
(0.003 2.20886e-19 1.14245e-18)
(0.003 2.2128e-19 9.99794e-19)
(0.003 2.00617e-19 7.53455e-19)
(0.003 1.6265e-19 5.7205e-19)
(0.003 -1.33371e-19 3.8066e-19)
(0.003 -1.14384e-19 3.91966e-19)
(0.003 1.6797e-19 5.37247e-19)
(0.003 2.69787e-19 7.0859e-19)
(0.003 1.88684e-19 8.57988e-19)
(0.003 1.2362e-19 8.21786e-19)
(0.003 1.8972e-19 6.49657e-19)
(0.003 2.25131e-20 4.29404e-19)
(0.003 -2.17301e-19 3.04416e-19)
(0.003 -1.43315e-19 2.08845e-19)
(0.003 2.73077e-20 2.21491e-19)
(0.003 -5.98787e-21 2.44964e-19)
(0.003 -2.3482e-21 2.16013e-19)
(0.003 -9.42449e-20 2.53128e-19)
(0.003 -2.2268e-20 1.966e-19)
(0.003 -2.38056e-20 -1.71208e-20)
(0.003 -1.2132e-19 -1.42004e-19)
(0.003 -5.17971e-20 -3.03777e-19)
(0.003 -3.60627e-20 -3.99776e-19)
(0.003 1.65866e-19 -1.32338e-19)
(0.003 2.09436e-19 3.67703e-20)
(0.003 1.17841e-19 -6.99911e-20)
(0.003 8.32281e-20 9.67846e-19)
(0.003 1.75153e-19 1.54796e-18)
(0.003 2.38684e-19 1.70718e-18)
(0.003 2.56219e-19 1.78027e-18)
(0.003 1.85493e-19 1.79505e-18)
(0.003 2.30054e-19 1.76768e-18)
(0.003 2.05018e-19 1.76444e-18)
(0.003 2.16909e-19 1.64671e-18)
(0.003 1.24664e-19 1.5116e-18)
(0.003 1.15227e-19 1.45099e-18)
(0.003 2.46573e-19 1.36861e-18)
(0.003 2.33395e-19 1.31992e-18)
(0.003 1.47414e-19 1.18309e-18)
(0.003 1.08818e-19 1.07413e-18)
(0.003 1.43481e-19 1.14503e-18)
(0.003 3.17922e-19 1.1096e-18)
(0.003 2.27682e-19 8.06654e-19)
(0.003 1.00641e-19 5.33619e-19)
(0.003 7.09205e-20 3.96072e-19)
(0.003 8.586e-20 4.55768e-19)
(0.003 1.96503e-19 6.0306e-19)
(0.003 2.93055e-19 7.81886e-19)
(0.003 1.15705e-19 8.89986e-19)
(0.003 3.4684e-20 8.80106e-19)
(0.003 4.95543e-20 6.01157e-19)
(0.003 -5.82164e-20 3.72491e-19)
(0.003 -1.10678e-19 2.7821e-19)
(0.003 -2.35654e-20 2.24002e-19)
(0.003 2.4097e-20 2.14734e-19)
(0.003 -4.84191e-20 3.00377e-19)
(0.003 -8.24333e-20 3.40875e-19)
(0.003 -4.43246e-20 1.9412e-19)
(0.003 -2.08383e-20 3.12394e-20)
(0.003 -6.67745e-20 -7.55315e-20)
(0.003 -2.18322e-19 5.66137e-21)
(0.003 -1.12777e-19 -1.84999e-19)
(0.003 -3.14462e-20 -3.81479e-19)
(0.003 1.38091e-19 -1.90593e-19)
(0.003 2.06403e-19 -1.01482e-19)
(0.003 1.76583e-19 -1.73988e-19)
(0.003 2.42525e-19 1.01973e-18)
(0.003 2.28078e-19 1.61433e-18)
(0.003 1.86646e-19 1.719e-18)
(0.003 1.67669e-19 1.71689e-18)
(0.003 2.40427e-19 1.78291e-18)
(0.003 1.97304e-19 1.81811e-18)
(0.003 1.46267e-19 1.75686e-18)
(0.003 2.65044e-19 1.66947e-18)
(0.003 1.66094e-19 1.47871e-18)
(0.003 7.11656e-20 1.48846e-18)
(0.003 1.52854e-19 1.4356e-18)
(0.003 1.87099e-19 1.34133e-18)
(0.003 2.07566e-19 1.24896e-18)
(0.003 1.98119e-19 1.06605e-18)
(0.003 1.44981e-19 1.0898e-18)
(0.003 8.98746e-20 1.11578e-18)
(0.003 9.22574e-20 8.4876e-19)
(0.003 1.38623e-19 6.00051e-19)
(0.003 3.0071e-19 5.18909e-19)
(0.003 3.02549e-19 5.10621e-19)
(0.003 1.52346e-19 5.83555e-19)
(0.003 -2.70598e-21 7.21299e-19)
(0.003 -5.98466e-20 7.81077e-19)
(0.003 -3.89725e-20 8.65325e-19)
(0.003 -9.3599e-20 7.1804e-19)
(0.003 -9.44896e-20 4.31275e-19)
(0.003 -1.68927e-20 3.06123e-19)
(0.003 4.16684e-20 2.80262e-19)
(0.003 1.47107e-20 1.9648e-19)
(0.003 -8.54784e-20 2.55468e-19)
(0.003 -1.52931e-20 2.88814e-19)
(0.003 3.2916e-20 2.15637e-19)
(0.003 -7.05416e-20 4.1831e-20)
(0.003 3.6416e-20 -5.49705e-20)
(0.003 2.50013e-22 1.08609e-19)
(0.003 -1.50492e-19 -9.4347e-20)
(0.003 -1.44329e-19 -4.92884e-19)
(0.003 7.98911e-20 -2.26692e-19)
(0.003 1.85057e-19 -1.76287e-19)
(0.003 1.71562e-19 -3.56357e-19)
(0.003 2.51866e-19 1.05467e-18)
(0.003 2.73771e-19 1.60118e-18)
(0.003 2.27839e-19 1.69187e-18)
(0.003 2.39236e-19 1.8173e-18)
(0.003 1.14867e-19 1.86852e-18)
(0.003 -1.35977e-20 1.82711e-18)
(0.003 1.57462e-19 1.78678e-18)
(0.003 1.67893e-19 1.71219e-18)
(0.003 1.67649e-19 1.59748e-18)
(0.003 1.79006e-19 1.46153e-18)
(0.003 6.06909e-20 1.35047e-18)
(0.003 7.91035e-20 1.3058e-18)
(0.003 2.27895e-19 1.26256e-18)
(0.003 2.87525e-19 1.19778e-18)
(0.003 1.81259e-19 1.13484e-18)
(0.003 3.88581e-21 1.02576e-18)
(0.003 3.90266e-20 7.68688e-19)
(0.003 1.0298e-19 6.12379e-19)
(0.003 2.06737e-19 6.41712e-19)
(0.003 2.30871e-19 6.3893e-19)
(0.003 1.68662e-19 6.18167e-19)
(0.003 6.32361e-20 6.7576e-19)
(0.003 6.56099e-20 7.2722e-19)
(0.003 1.7506e-20 7.64984e-19)
(0.003 -2.05841e-19 6.308e-19)
(0.003 -1.45903e-19 4.21677e-19)
(0.003 -8.55465e-20 3.09651e-19)
(0.003 2.12493e-21 3.39659e-19)
(0.003 -3.97291e-20 2.70513e-19)
(0.003 -1.45029e-19 2.15967e-19)
(0.003 -3.20663e-20 2.96695e-19)
(0.003 6.10933e-20 2.43476e-19)
(0.003 2.75696e-20 1.17851e-19)
(0.003 6.95922e-20 9.94349e-20)
(0.003 1.02052e-19 5.48828e-20)
(0.003 -9.9064e-20 -3.28396e-19)
(0.003 -1.58754e-19 -5.00428e-19)
(0.003 -8.45734e-20 -2.26141e-19)
(0.003 -6.06524e-20 -1.2269e-19)
(0.003 2.14874e-20 -2.42992e-19)
(0.003 -2.17078e-20 1.10968e-18)
(0.003 1.9603e-19 1.71861e-18)
(0.003 2.43174e-19 1.77212e-18)
(0.003 1.02785e-19 1.8566e-18)
(0.003 -3.86898e-20 1.85719e-18)
(0.003 -3.10178e-21 1.84664e-18)
(0.003 1.95604e-19 1.77573e-18)
(0.003 2.67684e-19 1.63838e-18)
(0.003 1.73619e-19 1.54502e-18)
(0.003 3.90984e-20 1.51589e-18)
(0.003 -1.33604e-20 1.39546e-18)
(0.003 1.94467e-19 1.28899e-18)
(0.003 2.49142e-19 1.31888e-18)
(0.003 2.07095e-19 1.24801e-18)
(0.003 1.31622e-19 1.19232e-18)
(0.003 8.79777e-20 1.01827e-18)
(0.003 9.80144e-20 8.59072e-19)
(0.003 2.10834e-19 6.77973e-19)
(0.003 2.43455e-19 6.18762e-19)
(0.003 9.94108e-20 6.10959e-19)
(0.003 2.03459e-19 6.54831e-19)
(0.003 1.11983e-19 7.33517e-19)
(0.003 3.63604e-20 7.64323e-19)
(0.003 -1.84889e-21 7.64234e-19)
(0.003 -1.53045e-19 6.09215e-19)
(0.003 -6.61273e-20 3.74148e-19)
(0.003 2.62553e-20 1.99931e-19)
(0.003 -3.81602e-20 3.23601e-19)
(0.003 -9.88075e-20 3.39323e-19)
(0.003 -9.48661e-20 2.50587e-19)
(0.003 -1.98771e-19 3.5489e-19)
(0.003 -9.46912e-20 2.62374e-19)
(0.003 5.416e-20 1.72014e-19)
(0.003 -2.7637e-20 1.22559e-19)
(0.003 -2.7484e-20 1.50275e-20)
(0.003 -1.10982e-20 -4.04228e-19)
(0.003 -9.55266e-20 -5.96571e-19)
(0.003 -1.57196e-19 -3.81626e-19)
(0.003 -1.47521e-19 -4.06338e-19)
(0.003 -1.53526e-19 -4.18177e-19)
(0.003 -2.15554e-19 1.10233e-18)
(0.003 -1.84874e-19 1.66117e-18)
(0.003 6.42399e-20 1.82811e-18)
(0.003 3.18548e-20 1.80103e-18)
(0.003 5.75354e-20 1.83242e-18)
(0.003 5.96864e-20 1.86316e-18)
(0.003 1.3541e-19 1.84059e-18)
(0.003 2.60675e-19 1.70285e-18)
(0.003 1.23326e-19 1.58705e-18)
(0.003 -3.82867e-20 1.49332e-18)
(0.003 1.46072e-19 1.39943e-18)
(0.003 2.24999e-19 1.38165e-18)
(0.003 1.52375e-19 1.4041e-18)
(0.003 5.93647e-20 1.25209e-18)
(0.003 6.00862e-20 1.10102e-18)
(0.003 7.89402e-20 1.06394e-18)
(0.003 1.48887e-19 7.99859e-19)
(0.003 3.08311e-19 6.59749e-19)
(0.003 2.22278e-19 7.34208e-19)
(0.003 1.09168e-19 6.55022e-19)
(0.003 2.22006e-19 7.09647e-19)
(0.003 9.41432e-20 7.42558e-19)
(0.003 -1.36593e-19 8.09098e-19)
(0.003 -2.33523e-19 7.3492e-19)
(0.003 -1.62985e-19 5.26381e-19)
(0.003 6.34342e-20 4.08887e-19)
(0.003 2.29299e-19 2.76632e-19)
(0.003 2.54404e-20 2.90702e-19)
(0.003 -1.2191e-19 2.21076e-19)
(0.003 -6.45188e-20 1.61605e-19)
(0.003 -9.89276e-20 2.6947e-19)
(0.003 -1.28339e-19 2.84533e-19)
(0.003 -6.29275e-20 1.91929e-19)
(0.003 -4.11909e-20 9.69229e-20)
(0.003 -1.76473e-20 4.69999e-20)
(0.003 2.56106e-22 -3.29547e-19)
(0.003 -8.47102e-20 -5.56875e-19)
(0.003 -1.17816e-19 -4.02756e-19)
(0.003 -1.43505e-19 -4.24442e-19)
(0.003 -2.16666e-19 -4.74425e-19)
(0.003 -6.0259e-20 1.07767e-18)
(0.003 -2.52588e-19 1.69375e-18)
(0.003 -1.8821e-19 1.88141e-18)
(0.003 -1.44968e-19 1.86377e-18)
(0.003 1.95534e-20 1.90567e-18)
(0.003 6.18858e-20 1.892e-18)
(0.003 1.94034e-20 1.83856e-18)
(0.003 7.88129e-20 1.7499e-18)
(0.003 7.8854e-20 1.60764e-18)
(0.003 1.29933e-19 1.39014e-18)
(0.003 2.15256e-19 1.43054e-18)
(0.003 1.48782e-19 1.48057e-18)
(0.003 -3.56679e-21 1.42845e-18)
(0.003 -1.20307e-20 1.29718e-18)
(0.003 7.97505e-20 1.20621e-18)
(0.003 1.14625e-19 1.05799e-18)
(0.003 1.6303e-19 7.7392e-19)
(0.003 1.37942e-19 6.73332e-19)
(0.003 1.39664e-19 6.82827e-19)
(0.003 1.96722e-19 6.36926e-19)
(0.003 1.16531e-19 7.21226e-19)
(0.003 4.73468e-20 8.03601e-19)
(0.003 -8.60405e-20 7.86685e-19)
(0.003 -3.24847e-19 5.8944e-19)
(0.003 -2.24267e-19 3.88109e-19)
(0.003 -1.58847e-20 4.33137e-19)
(0.003 7.28096e-20 3.32535e-19)
(0.003 4.37871e-20 1.85044e-19)
(0.003 3.27834e-20 2.35817e-19)
(0.003 6.9735e-20 1.98509e-19)
(0.003 -2.66126e-20 2.63264e-19)
(0.003 -3.16381e-21 1.96143e-19)
(0.003 -5.41398e-20 9.4717e-20)
(0.003 -1.22603e-19 1.28067e-19)
(0.003 -1.57646e-19 1.54255e-20)
(0.003 -1.49658e-19 -3.46917e-19)
(0.003 -5.48316e-20 -4.235e-19)
(0.003 -1.42099e-19 -3.07446e-19)
(0.003 -1.84609e-19 -4.02047e-19)
(0.003 -1.02839e-19 -4.22588e-19)
(0.003 -1.42058e-19 1.00685e-18)
(0.003 -1.29193e-19 1.59853e-18)
(0.003 -4.84066e-20 1.84706e-18)
(0.003 -1.7394e-19 1.8663e-18)
(0.003 -1.9422e-19 1.92588e-18)
(0.003 -5.18664e-20 1.90519e-18)
(0.003 -2.23488e-20 1.92901e-18)
(0.003 -3.6911e-20 1.86812e-18)
(0.003 9.1279e-20 1.7147e-18)
(0.003 2.68365e-19 1.5121e-18)
(0.003 1.78224e-19 1.43281e-18)
(0.003 1.1857e-19 1.42489e-18)
(0.003 -4.96934e-20 1.40334e-18)
(0.003 -7.20508e-20 1.37192e-18)
(0.003 2.20287e-20 1.1639e-18)
(0.003 1.26453e-19 9.14773e-19)
(0.003 1.58289e-19 6.89902e-19)
(0.003 -1.65752e-20 7.06968e-19)
(0.003 1.17985e-19 7.99529e-19)
(0.003 2.59567e-19 7.16938e-19)
(0.003 1.69188e-19 7.76521e-19)
(0.003 -2.04154e-20 7.16921e-19)
(0.003 -2.03612e-19 6.32591e-19)
(0.003 -2.72364e-19 4.60826e-19)
(0.003 -1.57138e-19 3.62796e-19)
(0.003 -7.12759e-20 4.73274e-19)
(0.003 -5.94458e-20 3.51476e-19)
(0.003 2.53891e-20 3.1706e-19)
(0.003 2.48212e-20 2.46031e-19)
(0.003 3.09978e-20 1.69444e-19)
(0.003 5.83832e-20 1.44226e-19)
(0.003 1.49443e-20 1.53664e-19)
(0.003 -1.13979e-19 1.11364e-19)
(0.003 -2.43155e-19 1.5924e-19)
(0.003 -3.10075e-19 6.52398e-20)
(0.003 -2.48753e-19 -2.79132e-19)
(0.003 -1.23258e-20 -4.08903e-19)
(0.003 -9.16992e-21 -2.88559e-19)
(0.003 -5.8839e-20 -4.15259e-19)
(0.003 -5.19098e-20 -5.18923e-19)
(0.003 -1.80143e-19 9.45243e-19)
(0.003 -2.0648e-19 1.64427e-18)
(0.003 -1.69314e-19 1.94613e-18)
(0.003 -3.39664e-20 1.86419e-18)
(0.003 -3.19999e-20 1.86046e-18)
(0.003 -8.28018e-20 1.87975e-18)
(0.003 -1.79353e-19 1.87199e-18)
(0.003 -1.78749e-19 1.79614e-18)
(0.003 4.14131e-20 1.76625e-18)
(0.003 1.6598e-19 1.65049e-18)
(0.003 1.0323e-19 1.51202e-18)
(0.003 8.49859e-20 1.45802e-18)
(0.003 1.11663e-19 1.35322e-18)
(0.003 2.51392e-21 1.321e-18)
(0.003 5.91767e-20 1.23053e-18)
(0.003 5.56482e-20 1.07235e-18)
(0.003 7.06646e-20 8.40522e-19)
(0.003 1.79496e-19 5.65733e-19)
(0.003 2.66156e-19 6.42859e-19)
(0.003 2.12546e-19 7.34403e-19)
(0.003 2.91798e-21 8.28758e-19)
(0.003 -1.92174e-19 8.16658e-19)
(0.003 -1.40028e-19 6.35444e-19)
(0.003 -5.8177e-20 4.68337e-19)
(0.003 -1.29758e-19 3.6774e-19)
(0.003 -1.85975e-19 4.00713e-19)
(0.003 -9.2114e-20 3.98185e-19)
(0.003 -9.00766e-20 3.38041e-19)
(0.003 -2.25887e-20 2.53861e-19)
(0.003 4.45453e-21 1.69177e-19)
(0.003 1.37676e-19 1.42429e-19)
(0.003 -9.12274e-20 1.07324e-19)
(0.003 -1.86706e-19 8.26711e-20)
(0.003 -1.20409e-19 6.62085e-20)
(0.003 -2.40165e-19 8.92531e-20)
(0.003 -2.06741e-19 -3.11757e-20)
(0.003 -1.49018e-19 -2.51697e-19)
(0.003 -3.59414e-20 -2.504e-19)
(0.003 1.40378e-19 -3.57556e-19)
(0.003 1.57611e-19 -4.11251e-19)
(0.003 -7.06057e-20 9.81855e-19)
(0.003 -1.82909e-19 1.55503e-18)
(0.003 -1.90175e-19 1.7557e-18)
(0.003 4.17187e-20 1.87704e-18)
(0.003 3.96475e-20 1.85795e-18)
(0.003 -1.53582e-19 1.87251e-18)
(0.003 -2.67612e-19 1.88332e-18)
(0.003 -1.47565e-19 1.86486e-18)
(0.003 5.63425e-20 1.80733e-18)
(0.003 5.60233e-20 1.68531e-18)
(0.003 -1.411e-20 1.5135e-18)
(0.003 6.0029e-20 1.46362e-18)
(0.003 1.66038e-19 1.40618e-18)
(0.003 1.66243e-19 1.32977e-18)
(0.003 1.33687e-19 1.22693e-18)
(0.003 3.00758e-21 1.06582e-18)
(0.003 -5.09054e-20 9.49967e-19)
(0.003 1.05318e-19 7.19119e-19)
(0.003 2.27047e-19 7.33708e-19)
(0.003 7.94251e-20 6.85485e-19)
(0.003 -1.46689e-19 7.10951e-19)
(0.003 -1.69643e-19 6.73827e-19)
(0.003 -4.54077e-20 6.73566e-19)
(0.003 1.17319e-21 5.31969e-19)
(0.003 -1.7737e-20 3.70542e-19)
(0.003 -1.55257e-19 3.18818e-19)
(0.003 -7.31871e-21 3.58762e-19)
(0.003 3.97354e-21 3.15535e-19)
(0.003 -8.19979e-20 2.2642e-19)
(0.003 -8.03042e-21 1.13552e-19)
(0.003 2.80593e-21 1.00734e-19)
(0.003 -8.05121e-20 5.13579e-20)
(0.003 -3.67791e-21 9.20319e-20)
(0.003 3.51593e-20 1.50188e-19)
(0.003 -6.28492e-21 5.17097e-20)
(0.003 -1.78535e-19 -5.48857e-20)
(0.003 -1.51524e-19 -2.27144e-20)
(0.003 -1.06584e-19 -6.81398e-20)
(0.003 1.89213e-20 -2.53106e-19)
(0.003 1.5196e-19 -2.76038e-19)
(0.003 8.33852e-20 1.02483e-18)
(0.003 1.31671e-19 1.60557e-18)
(0.003 5.82407e-20 1.71615e-18)
(0.003 -8.75982e-20 1.79524e-18)
(0.003 -1.6242e-19 1.86937e-18)
(0.003 -1.79471e-19 1.8351e-18)
(0.003 -2.07384e-19 1.79515e-18)
(0.003 -2.06137e-19 1.84576e-18)
(0.003 -1.03781e-19 1.85506e-18)
(0.003 5.59223e-20 1.74173e-18)
(0.003 1.61148e-19 1.50677e-18)
(0.003 1.65857e-19 1.49207e-18)
(0.003 2.18057e-19 1.36068e-18)
(0.003 2.01601e-19 1.3645e-18)
(0.003 3.66589e-20 1.32773e-18)
(0.003 -1.03723e-19 1.1166e-18)
(0.003 -1.68312e-19 7.99574e-19)
(0.003 -2.15495e-19 5.80947e-19)
(0.003 -1.14133e-19 8.03066e-19)
(0.003 8.49675e-21 7.14499e-19)
(0.003 -6.69813e-20 6.78945e-19)
(0.003 -2.26887e-20 7.48888e-19)
(0.003 -3.33991e-20 7.55759e-19)
(0.003 3.90704e-20 5.04074e-19)
(0.003 1.35621e-19 3.23317e-19)
(0.003 6.61766e-21 2.96791e-19)
(0.003 2.38135e-21 4.2614e-19)
(0.003 4.88605e-20 3.11901e-19)
(0.003 4.31222e-20 1.52783e-19)
(0.003 -9.43413e-21 6.09222e-20)
(0.003 -1.04544e-19 1.23284e-19)
(0.003 -4.95949e-20 7.85802e-20)
(0.003 2.92893e-20 5.75933e-20)
(0.003 -2.03221e-20 1.32666e-19)
(0.003 6.93807e-20 1.1869e-19)
(0.003 7.16886e-20 4.65984e-20)
(0.003 1.19149e-20 -1.443e-20)
(0.003 -8.64278e-20 -1.58981e-19)
(0.003 -1.68612e-19 -2.97099e-19)
(0.003 -1.19916e-19 -3.47016e-19)
(0.003 2.41257e-19 9.58037e-19)
(0.003 2.20036e-19 1.51746e-18)
(0.003 7.45359e-21 1.68672e-18)
(0.003 -1.29257e-19 1.74828e-18)
(0.003 -9.53431e-20 1.75225e-18)
(0.003 1.42809e-20 1.84305e-18)
(0.003 -5.3685e-20 1.78647e-18)
(0.003 -2.61398e-19 1.77299e-18)
(0.003 -2.40403e-19 1.79976e-18)
(0.003 -4.7395e-20 1.83247e-18)
(0.003 2.12507e-19 1.71351e-18)
(0.003 1.83716e-19 1.62137e-18)
(0.003 1.35264e-19 1.46487e-18)
(0.003 1.48956e-19 1.38859e-18)
(0.003 -3.47961e-20 1.27002e-18)
(0.003 -1.2532e-19 1.01044e-18)
(0.003 -1.26368e-19 7.96782e-19)
(0.003 -1.61795e-19 6.10855e-19)
(0.003 -2.07555e-19 7.59961e-19)
(0.003 -1.01299e-19 7.58314e-19)
(0.003 -1.41068e-19 7.03647e-19)
(0.003 -1.20822e-19 6.77665e-19)
(0.003 -1.65093e-20 6.97373e-19)
(0.003 8.34617e-21 5.74043e-19)
(0.003 1.30921e-19 4.41938e-19)
(0.003 1.70273e-19 3.26471e-19)
(0.003 -3.74862e-20 2.97863e-19)
(0.003 4.42061e-20 2.40979e-19)
(0.003 1.58313e-19 1.49212e-19)
(0.003 8.03639e-20 7.74535e-20)
(0.003 -6.58128e-20 4.3551e-20)
(0.003 -8.4586e-20 4.00842e-21)
(0.003 -4.93085e-20 8.53233e-20)
(0.003 -3.83367e-20 9.28497e-20)
(0.003 7.85822e-20 1.36838e-19)
(0.003 2.60877e-19 9.91368e-20)
(0.003 1.11711e-19 -7.93106e-20)
(0.003 -3.30663e-20 -2.71086e-19)
(0.003 -2.51824e-19 -3.36023e-19)
(0.003 -3.21197e-19 -2.0816e-19)
(0.003 2.43288e-19 9.24285e-19)
(0.003 2.60528e-19 1.50558e-18)
(0.003 -1.46356e-20 1.69696e-18)
(0.003 -1.75836e-21 1.68487e-18)
(0.003 1.12603e-19 1.7327e-18)
(0.003 1.17516e-19 1.77287e-18)
(0.003 8.28239e-21 1.78129e-18)
(0.003 -1.42404e-19 1.72785e-18)
(0.003 -1.74891e-19 1.74111e-18)
(0.003 -1.69896e-19 1.88623e-18)
(0.003 -5.0538e-20 1.80412e-18)
(0.003 7.54005e-22 1.64036e-18)
(0.003 -1.41313e-20 1.53473e-18)
(0.003 -1.82418e-19 1.41511e-18)
(0.003 -1.87186e-19 1.22929e-18)
(0.003 -3.60377e-20 1.06267e-18)
(0.003 -1.1825e-19 8.23468e-19)
(0.003 -2.00537e-19 6.02155e-19)
(0.003 -2.36142e-19 7.51098e-19)
(0.003 -9.06488e-20 7.96517e-19)
(0.003 -1.06299e-19 6.56921e-19)
(0.003 -7.14065e-20 6.35449e-19)
(0.003 8.78384e-20 7.02695e-19)
(0.003 7.70565e-20 5.34627e-19)
(0.003 5.47973e-20 3.51488e-19)
(0.003 1.37371e-19 3.44689e-19)
(0.003 5.06404e-20 3.15047e-19)
(0.003 6.71127e-20 2.88631e-19)
(0.003 7.18515e-20 2.12705e-19)
(0.003 2.39989e-21 8.19748e-22)
(0.003 1.16974e-19 -1.38872e-19)
(0.003 1.35752e-19 -6.88109e-20)
(0.003 -6.2823e-20 1.05425e-20)
(0.003 5.62194e-21 1.07644e-19)
(0.003 1.82318e-19 2.13676e-19)
(0.003 2.17698e-19 9.34003e-20)
(0.003 1.49546e-19 -2.77346e-19)
(0.003 7.20531e-20 -2.87276e-19)
(0.003 -3.43592e-21 -2.39717e-19)
(0.003 -1.04095e-19 -1.37651e-19)
(0.003 -6.93464e-20 1.01958e-18)
(0.003 2.30091e-21 1.61679e-18)
(0.003 9.08933e-20 1.67962e-18)
(0.003 3.54368e-20 1.65736e-18)
(0.003 1.98927e-20 1.7064e-18)
(0.003 7.13633e-20 1.83227e-18)
(0.003 5.85363e-20 1.78367e-18)
(0.003 9.54868e-20 1.64084e-18)
(0.003 -8.18757e-20 1.71563e-18)
(0.003 -1.90719e-19 1.81396e-18)
(0.003 -1.8258e-19 1.78651e-18)
(0.003 -1.95789e-19 1.67692e-18)
(0.003 -2.48304e-19 1.54452e-18)
(0.003 -2.61353e-19 1.26866e-18)
(0.003 -1.69911e-19 1.06518e-18)
(0.003 -1.43123e-19 9.87243e-19)
(0.003 -1.65212e-19 8.95794e-19)
(0.003 -1.15619e-19 7.37406e-19)
(0.003 -2.08681e-19 6.8906e-19)
(0.003 -2.16256e-19 8.34238e-19)
(0.003 -8.7129e-20 6.37532e-19)
(0.003 3.85117e-20 6.35005e-19)
(0.003 9.10679e-20 7.45313e-19)
(0.003 1.11216e-19 5.7911e-19)