/*--------------------------------*- C++ -*----------------------------------*\
  =========                 |
  \\      /  F ield         | OpenFOAM: The Open Source CFD Toolbox
   \\    /   O peration     | Website:  https://openfoam.org
    \\  /    A nd           | Version:  dev
     \\/     M anipulation  |
\*---------------------------------------------------------------------------*/
FoamFile
{
    format      ascii;
    class       volScalarField;
    location    "0/air";
    object      k;
}
// * * * * * * * * * * * * * * * * * * * * * * * * * * * * * * * * * * * * * //

dimensions      [0 2 -2 0 0 0 0];

internalField   uniform 0.0006;

boundaryField
{
    inlet
    {
        type            turbulentIntensityKineticEnergyInlet;
        intensity       0.01;
        value           nonuniform List<scalar> 0();
    }
    outlet
    {
        type            inletOutlet;
        inletValue      nonuniform List<scalar> 0();
        value           nonuniform List<scalar> 0();
    }
    walls
    {
        type            kqRWallFunction;
        value           uniform 0.0006;
    }
    air_to_water
    {
        type            kqRWallFunction;
        value           uniform 0.0006;
    }
    air_to_solid
    {
        type            kqRWallFunction;
        value           uniform 0.0006;
    }
    procBoundary7to0
    {
        type            processor;
        value           uniform 0.0006;
    }
    procBoundary7to1
    {
        type            processor;
        value           uniform 0.0006;
    }
    procBoundary7to2
    {
        type            processor;
        value           uniform 0.0006;
    }
    procBoundary7to3
    {
        type            processor;
        value           uniform 0.0006;
    }
    procBoundary7to5
    {
        type            processor;
        value           uniform 0.0006;
    }
    procBoundary7to6
    {
        type            processor;
        value           uniform 0.0006;
    }
    procBoundary7to8
    {
        type            processor;
        value           uniform 0.0006;
    }
    procBoundary7to9
    {
        type            processor;
        value           uniform 0.0006;
    }
    procBoundary7to10
    {
        type            processor;
        value           uniform 0.0006;
    }
    procBoundary7to11
    {
        type            processor;
        value           uniform 0.0006;
    }
}


// ************************************************************************* //
