/*--------------------------------*- C++ -*----------------------------------*\
| =========                 |                                                 |
| \\      /  F ield         | OpenFOAM: The Open Source CFD Toolbox           |
|  \\    /   O peration     | Version:  v2012                                 |
|   \\  /    A nd           | Website:  www.openfoam.com                      |
|    \\/     M anipulation  |                                                 |
\*---------------------------------------------------------------------------*/
FoamFile
{
    version     2.0;
    format      ascii;
    class       volScalarField;
    location    "320/rightSolid";
    object      T;
}
// * * * * * * * * * * * * * * * * * * * * * * * * * * * * * * * * * * * * * //

dimensions      [0 0 0 1 0 0 0];


internalField   nonuniform List<scalar> 
130
(
736.72379
744.35059
752.33496
760.27163
767.85656
774.84872
781.11987
786.60188
791.26591
795.04389
797.86989
799.7502
800.69144
731.19264
740.10052
749.20276
758.03142
766.28387
773.76066
780.36883
786.07292
790.87477
794.73898
797.62133
799.53459
800.49215
720.02005
731.86267
743.3574
753.97983
763.51618
771.8895
779.09589
785.18177
790.21015
794.2179
797.18734
799.1504
800.12642
703.24666
720.64965
736.00622
749.17398
760.35914
769.83046
777.72196
784.22981
789.4992
793.64172
796.70995
798.73019
799.73584
683.48128
710.02665
729.96203
745.55899
758.09478
768.34251
776.69775
783.48114
788.91337
793.15154
796.28451
798.33964
799.3605
683.39121
709.92997
729.8542
745.4346
757.93999
768.13018
776.44439
783.19781
788.60681
792.82456
795.94689
797.99917
799.01711
702.93167
720.31281
735.63411
748.75077
759.85933
769.2098
776.99998
783.4226
788.6271
792.72253
795.75314
797.75136
798.74571
719.40291
731.23441
742.68083
753.22928
762.67112
770.92813
778.01275
783.98132
788.90149
792.80474
795.70422
797.6254
798.58525
730.40676
739.29548
748.34033
757.0808
765.21813
772.56759
779.04046
784.60843
789.26752
792.98502
795.76528
797.61656
798.54359
735.8635
743.46963
751.39173
759.22905
766.67833
773.53911
779.66488
784.9994
789.50855
793.12317
795.83656
797.64761
798.55527
)
;

boundaryField
{
    maxX
    {
        type            zeroGradient;
    }
    minZ
    {
        type            zeroGradient;
    }
    maxZ
    {
        type            zeroGradient;
    }
    rightSolid_to_bottomWater
    {
        type            compressible::turbulentTemperatureCoupledBaffleMixed;
        refValue        nonuniform List<scalar> 
130
(
949.89103
947.75024
948.55963
949.53133
953.50884
953.83222
953.81807
953.81603
959.90557
967.14464
967.67481
967.9575
968.44623
950.2238
949.55673
951.00063
952.24085
955.32451
955.72644
956.00071
955.82308
960.8534
967.5788
968.75095
969.15726
970.18994
948.59194
948.5128
950.03983
951.30349
954.70725
956.63256
957.39948
957.22742
959.05247
966.36064
966.81359
967.25475
966.65738
938.73419
942.73998
943.7551
944.41488
944.62876
956.97631
957.78119
958.70682
958.36204
960.29746
963.58556
964.10087
964.87312
939.44562
943.1847
943.77441
943.46616
942.97473
953.18544
954.6191
955.40952
955.43309
957.31053
962.73846
963.15852
963.79192
941.31429
945.69235
946.56106
947.09825
947.0985
951.01742
952.011
953.0116
953.32431
954.20897
959.91335
961.42734
961.77658
944.35459
945.96715
946.89037
948.01593
948.9557
953.7433
953.30424
952.6474
952.35981
956.35223
958.87929
959.48569
959.9349
943.84465
945.66503
946.37669
947.53467
951.99373
953.92408
954.02157
953.05995
954.94455
958.21333
958.71111
958.85803
959.23769
945.83845
947.85056
949.04517
950.52719
952.74259
953.12231
953.13277
953.73268
957.97787
958.49242
958.61306
958.71457
958.97514
946.18635
948.2322
949.14446
950.12668
950.15931
952.60985
951.61825
952.23726
957.90176
958.36288
958.61371
958.8201
959.10494
)
;
        refGradient     uniform 0;
        valueFraction   nonuniform List<scalar> 
130
(
0.0075140686
0.0075140686
0.0075140686
0.0075140686
0.0075140686
0.0075140686
0.0075140686
0.0075140686
0.0075140686
0.0075140686
0.0075140686
0.0075140686
0.0075140686
0.0075140686
0.0075140686
0.0075140686
0.0075140686
0.0075140686
0.0075140686
0.0075140686
0.0075140686
0.0075140686
0.0075140686
0.0075140686
0.0075140686
0.0075140686
0.0075140686
0.0075140686
0.0075140686
0.0075140686
0.0075140686
0.0075140686
0.0075140686
0.0075140686
0.0075140686
0.0075140686
0.0075140686
0.0075140686
0.0075140686
0.0075140686
0.0075140686
0.0075140686
0.0075140686
0.0075140686
0.0075140686
0.0075140686
0.0075140686
0.0075140686
0.0075140686
0.0075140686
0.0075140686
0.0075140686
0.0075140686
0.0075140686
0.0075140686
0.0075140686
0.0075140686
0.0075140686
0.0075140686
0.0075140686
0.0075140686
0.0075140686
0.0075140686
0.0075140686
0.0075140686
0.0075140686
0.0075140686
0.0075140686
0.0075140686
0.0075140686
0.0075140686
0.0075140686
0.0075140686
0.0075140686
0.0075140686
0.0075140686
0.0075140686
0.0075140686
0.0075140686
0.0075140686
0.0075140686
0.0075140686
0.0075140686
0.0075140686
0.0075140686
0.0075140686
0.0075140686
0.0075140686
0.0075140686
0.0075140686
0.0075140686
0.0075140686
0.0075140686
0.0075140686
0.0075140686
0.0075140686
0.0075140686
0.0075140686
0.0075140686
0.0075140686
0.0075140686
0.0075140686
0.0075140686
0.0075140686
0.0075140686
0.0075140686
0.0075140686
0.0075140686
0.0075140686
0.0075140686
0.0075140686
0.0075140686
0.0075140686
0.0075140686
0.0075140686
0.0075140686
0.0075140686
0.0075140686
0.0075140686
0.0075140686
0.0075140686
0.0075140686
0.0075140686
0.0075140686
0.0075140686
0.0075140686
0.0075140686
0.0075140686
0.0075140686
0.0075140686
)
;
        value           nonuniform List<scalar> 
130
(
738.32246
745.87582
753.8062
761.69044
769.24818
776.19014
782.41397
787.85472
792.52941
796.33335
799.14206
801.01032
801.94814
732.83542
741.67128
750.71588
759.48743
767.70093
775.12448
781.68498
787.34481
792.14835
796.03399
798.90343
800.80532
801.76342
721.73465
733.48757
744.9073
755.4593
764.94948
773.27426
780.43217
786.47094
791.47519
795.50767
798.45813
800.4097
801.37387
705.01343
722.31561
737.56428
750.63794
761.74056
771.23339
779.07151
785.5373
790.76442
794.89028
797.96008
799.96894
800.97281
685.40213
711.77594
731.56579
747.04312
759.48088
769.72819
778.03129
784.76951
790.16099
794.38134
797.53145
799.57422
800.59214
685.32677
711.6988
731.47969
746.94692
759.35823
769.50114
777.7602
784.47025
789.84084
794.03345
797.17508
799.22326
800.23615
704.74305
722.00553
737.2185
750.24493
761.27696
770.59294
778.32114
784.69045
789.8536
793.94819
796.97495
798.96267
799.9529
721.08654
732.84269
744.20831
754.68604
764.09027
772.29958
779.33157
785.24795
790.14526
794.04368
796.92508
798.8329
799.78838
732.02257
740.85949
749.84521
758.531
766.62367
773.92062
780.3448
785.87534
790.53124
794.22463
796.98488
798.823
799.74502
737.44082
745.00506
752.87435
760.66002
768.05342
774.88093
780.95309
786.25205
790.76983
794.36072
797.05559
798.85457
799.75755
)
;
        Tnbr            T;
        thicknessLayers List<scalar> 0();
        kappaLayers     List<scalar> 0();
        kappaMethod     solidThermo;
        kappa           none;
        alphaAni        none;
        alpha           none;
        field           T;
    }
    rightSolid_to_topAir
    {
        type            compressible::turbulentTemperatureCoupledBaffleMixed;
        refValue        nonuniform List<scalar> 
130
(
482.96574
477.37259
472.2835
468.02297
464.7014
462.31455
460.8238
460.20051
460.45153
461.66072
464.0782
468.27942
475.02847
434.59208
429.27059
425.73083
423.47951
422.10226
421.36242
421.19463
421.6334
422.76017
424.75537
428.08409
433.82249
442.83659
439.35523
430.00405
422.31883
416.25701
411.65259
408.39609
406.47083
405.87979
406.56772
408.44362
411.57169
416.84059
427.99923
485.06839
485.53767
485.5296
484.57851
482.54859
479.59048
476.05771
472.31992
468.89056
467.07918
469.43812
478.13505
488.1373
488.45329
492.92639
497.59201
502.16925
506.38769
509.99693
512.79636
514.68616
515.76853
516.54587
518.07736
521.85097
529.48048
490.02021
494.44361
499.12701
503.76944
508.08715
511.84651
514.893
517.18384
518.86361
520.42604
522.82127
527.35656
535.80251
487.05938
488.80871
489.71068
489.28844
487.53157
484.88129
481.83778
478.77829
476.29072
475.8663
479.65258
486.4044
496.23719
439.07503
430.78686
423.73681
417.8891
413.23182
409.86868
407.93091
407.45931
408.36536
410.53889
414.09818
420.21553
432.32384
431.81558
426.74008
423.51366
421.53804
420.37558
419.82398
419.86052
420.53178
421.91916
424.19031
427.787
433.855
443.6443
481.66904
476.03329
470.96685
466.7718
463.54346
461.27806
459.9449
459.51877
460.00381
461.47504
464.16827
468.66238
475.77984
)
;
        refGradient     uniform 0;
        valueFraction   nonuniform List<scalar> 
130
(
0.00032132529
0.00032132529
0.00032132529
0.00032132529
0.00032132529
0.00032132529
0.00032132529
0.00032132529
0.00032132529
0.00032132529
0.00032132529
0.00032132529
0.00032132529
0.00032132529
0.00032132529
0.00032132529
0.00032132529
0.00032132529
0.00032132529
0.00032132529
0.00032132529
0.00032132529
0.00032132529
0.00032132529
0.00032132529
0.00032132529
0.00032132529
0.00032132529
0.00032132529
0.00032132529
0.00032132529
0.00032132529
0.00032132529
0.00032132529
0.00032132529
0.00032132529
0.00032132529
0.00032132529
0.00032132529
0.00032132529
0.00032132529
0.00032132529
0.00032132529
0.00032132529
0.00032132529
0.00032132529
0.00032132529
0.00032132529
0.00032132529
0.00032132529
0.00032132529
0.00032132529
0.00032132529
0.00032132529
0.00032132529
0.00032132529
0.00032132529
0.00032132529
0.00032132529
0.00032132529
0.00032132529
0.00032132529
0.00032132529
0.00032132529
0.00032132529
0.00032132529
0.00032132529
0.00032132529
0.00032132529
0.00032132529
0.00032132529
0.00032132529
0.00032132529
0.00032132529
0.00032132529
0.00032132529
0.00032132529
0.00032132529
0.00032132529
0.00032132529
0.00032132529
0.00032132529
0.00032132529
0.00032132529
0.00032132529
0.00032132529
0.00032132529
0.00032132529
0.00032132529
0.00032132529
0.00032132529
0.00032132529
0.00032132529
0.00032132529
0.00032132529
0.00032132529
0.00032132529
0.00032132529
0.00032132529
0.00032132529
0.00032132529
0.00032132529
0.00032132529
0.00032132529
0.00032132529
0.00032132529
0.00032132529
0.00032132529
0.00032132529
0.00032132529
0.00032132529
0.00032132529
0.00032132529
0.00032132529
0.00032132529
0.00032132529
0.00032132529
0.00032132529
0.00032132529
0.00032132529
0.00032132529
0.00032132529
0.00032132529
0.00032132529
0.00032132529
0.00032132529
0.00032132529
0.00032132529
0.00032132529
0.00032132529
)
;
        value           nonuniform List<scalar> 
130
(
736.63914
744.26165
752.24174
760.1744
767.75574
774.7448
781.01336
786.49335
791.15592
794.93302
797.75885
799.63986
800.58295
731.09428
739.99751
749.0956
757.92061
766.16985
773.64391
780.24983
785.95217
790.75281
794.61635
797.49879
799.41322
800.37335
719.92694
731.76263
743.25109
753.86805
763.39977
771.76926
778.97262
785.05627
790.0832
794.09019
797.05961
799.02368
800.00294
703.17383
720.57124
735.92274
749.08584
760.26665
769.73388
777.62158
784.12602
789.39252
793.53306
796.60098
798.62329
799.63181
683.41611
709.95419
729.88451
745.4778
758.01078
768.25623
776.60955
783.39123
788.82195
793.05893
796.19128
798.24689
799.26984
683.32657
709.85801
729.77718
745.35393
757.85657
768.04454
776.35692
783.10876
788.51644
792.73325
795.85524
797.90826
798.92856
702.85959
720.23554
735.55207
748.66425
759.76855
769.11495
776.90151
783.32097
788.52291
792.61682
795.64761
797.64731
798.64448
719.30998
731.13488
742.57522
753.11824
762.55538
770.8085
777.89008
783.85647
788.7753
792.67793
795.57759
797.50009
798.46351
730.30784
739.19194
748.2327
756.96958
765.10376
772.45055
778.92122
784.48752
789.14548
792.86246
795.64296
797.49558
798.42546
735.77874
743.3805
751.2983
759.13161
766.5773
773.43502
779.55826
784.8908
789.3986
793.0125
795.72586
797.53777
798.44743
)
;
        Tnbr            T;
        thicknessLayers List<scalar> 0();
        kappaLayers     List<scalar> 0();
        kappaMethod     solidThermo;
        kappa           none;
        alphaAni        none;
        alpha           none;
        field           T;
    }
    rightSolid_to_heater
    {
        type            compressible::turbulentTemperatureCoupledBaffleMixed;
        refValue        nonuniform List<scalar> 10(729.90954 723.09568 708.84447 685.22073 645.98222 645.89766 684.89692 708.21169 722.31392 729.06111);
        refGradient     uniform 0;
        valueFraction   nonuniform List<scalar> 10(0.50000003 0.50000003 0.50000003 0.50000003 0.50000003 0.50000003 0.50000003 0.50000003 0.50000003 0.50000003);
        value           nonuniform List<scalar> 10(733.31511 727.14263 714.43079 694.23233 664.7305 664.64318 693.91294 713.80587 726.35885 732.46077);
        Tnbr            T;
        thicknessLayers List<scalar> 0();
        kappaLayers     List<scalar> 0();
        kappaMethod     solidThermo;
        kappa           none;
        alphaAni        none;
        alpha           none;
        field           T;
    }
}


// ************************************************************************* //
