/*--------------------------------*- C++ -*----------------------------------*\
| =========                 |                                                 |
| \\      /  F ield         | OpenFOAM: The Open Source CFD Toolbox           |
|  \\    /   O peration     | Version:  v2012                                 |
|   \\  /    A nd           | Website:  www.openfoam.com                      |
|    \\/     M anipulation  |                                                 |
\*---------------------------------------------------------------------------*/
FoamFile
{
    version     2.0;
    format      ascii;
    class       volScalarField;
    location    "160/rightSolid";
    object      T;
}
// * * * * * * * * * * * * * * * * * * * * * * * * * * * * * * * * * * * * * //

dimensions      [0 0 0 1 0 0 0];


internalField   nonuniform List<scalar> 
130
(
651.99484
657.15367
662.46383
667.66162
672.54614
676.95104
680.82391
684.13665
686.90266
689.14319
690.80432
691.90322
692.45088
647.86202
653.99873
660.17317
666.06113
671.46108
676.23576
680.3642
683.85449
686.73404
689.03247
690.73097
691.84969
692.40819
639.4418
647.85798
655.90106
663.17117
669.53849
674.99255
679.59752
683.3979
686.45027
688.83442
690.58582
691.73483
692.3043
626.70761
639.34897
650.43192
659.71121
667.3721
673.65782
678.77987
682.90532
686.14289
688.62504
690.43745
691.61515
692.19083
611.68309
631.30008
645.82631
657.05136
665.8029
672.71495
678.20366
682.55044
685.92587
688.47939
690.32351
691.51989
692.10381
611.69212
631.29822
645.7888
656.98993
665.74353
672.652
678.13929
682.48071
685.86313
688.42701
690.27768
691.48275
692.07932
626.82956
639.40755
650.35004
659.59004
667.23924
673.51544
678.63899
682.76641
686.02461
688.52516
690.34721
691.54432
692.13982
639.57673
647.89445
655.83585
663.02832
669.36483
674.83857
679.44923
683.24677
686.31268
688.72209
690.50203
691.67071
692.25209
647.93016
654.02241
660.1561
665.97263
671.29652
676.05739
680.21006
683.72879
686.63479
688.94721
690.66818
691.80678
692.37449
652.01746
657.14236
662.41308
667.55333
672.36931
676.75715
680.66039
684.02086
686.82756
689.07467
690.75327
691.86644
692.42168
)
;

boundaryField
{
    maxX
    {
        type            zeroGradient;
    }
    minZ
    {
        type            zeroGradient;
    }
    maxZ
    {
        type            zeroGradient;
    }
    rightSolid_to_bottomWater
    {
        type            compressible::turbulentTemperatureCoupledBaffleMixed;
        refValue        nonuniform List<scalar> 
130
(
981.14713
982.31278
982.5778
984.07936
989.08528
988.3978
989.58644
989.09885
989.53734
998.25313
999.37122
1000.2288
1000.6357
980.37675
981.95624
983.61426
986.36557
992.34514
992.04523
991.58949
991.89176
994.0396
1000.4199
1001.993
1002.2966
1003.2322
971.17613
984.67149
989.43107
990.14924
991.04039
990.20466
994.97834
998.18398
998.08704
1000.4161
1001.41
1002.0008
1002.2208
955.93543
958.37004
985.56389
990.10595
992.69668
995.44054
997.47756
1001.4309
998.65881
998.3171
1000.8976
1001.1218
999.67091
959.64512
959.04202
959.548
986.27851
993.20935
996.20622
997.13596
1000.7735
1000.147
998.36057
998.36922
998.70374
997.12536
955.696
960.42687
960.12203
981.44911
991.16615
993.15197
994.55532
995.82946
996.33126
995.78841
995.79044
996.38308
997.39382
967.83565
972.5355
975.84275
986.18824
990.20833
990.34639
993.37214
996.56403
997.18006
997.40293
997.66236
999.37887
1000.7213
982.05975
986.1505
987.57341
983.93192
983.56857
991.77483
995.74885
995.33467
994.63337
998.58663
1001.9913
1002.5947
1003.0945
981.50491
984.80843
991.54241
991.27155
987.85524
988.20304
991.74418
993.46756
996.36993
1000.6381
1003.226
1004.5131
1005.2344
981.59224
984.34674
985.80792
986.07816
985.03141
984.7375
989.34017
992.05383
995.33884
998.91403
1000.8354
1001.5794
1001.8838
)
;
        refGradient     uniform 0;
        valueFraction   nonuniform List<scalar> 
130
(
0.0075140686
0.0075140686
0.0075140686
0.0075140686
0.0075140686
0.0075140686
0.0075140686
0.0075140686
0.0075140686
0.0075140686
0.0075140686
0.0075140686
0.0075140686
0.0075140686
0.0075140686
0.0075140686
0.0075140686
0.0075140686
0.0075140686
0.0075140686
0.0075140686
0.0075140686
0.0075140686
0.0075140686
0.0075140686
0.0075140686
0.0075140686
0.0075140686
0.0075140686
0.0075140686
0.0075140686
0.0075140686
0.0075140686
0.0075140686
0.0075140686
0.0075140686
0.0075140686
0.0075140686
0.0075140686
0.0075140686
0.0075140686
0.0075140686
0.0075140686
0.0075140686
0.0075140686
0.0075140686
0.0075140686
0.0075140686
0.0075140686
0.0075140686
0.0075140686
0.0075140686
0.0075140686
0.0075140686
0.0075140686
0.0075140686
0.0075140686
0.0075140686
0.0075140686
0.0075140686
0.0075140686
0.0075140686
0.0075140686
0.0075140686
0.0075140686
0.0075140686
0.0075140686
0.0075140686
0.0075140686
0.0075140686
0.0075140686
0.0075140686
0.0075140686
0.0075140686
0.0075140686
0.0075140686
0.0075140686
0.0075140686
0.0075140686
0.0075140686
0.0075140686
0.0075140686
0.0075140686
0.0075140686
0.0075140686
0.0075140686
0.0075140686
0.0075140686
0.0075140686
0.0075140686
0.0075140686
0.0075140686
0.0075140686
0.0075140686
0.0075140686
0.0075140686
0.0075140686
0.0075140686
0.0075140686
0.0075140686
0.0075140686
0.0075140686
0.0075140686
0.0075140686
0.0075140686
0.0075140686
0.0075140686
0.0075140686
0.0075140686
0.0075140686
0.0075140686
0.0075140686
0.0075140686
0.0075140686
0.0075140686
0.0075140686
0.0075140686
0.0075140686
0.0075140686
0.0075140686
0.0075140686
0.0075140686
0.0075140686
0.0075140686
0.0075140686
0.0075140686
0.0075140686
0.0075140686
0.0075140686
0.0075140686
)
;
        value           nonuniform List<scalar> 
130
(
654.45238
659.58072
664.85246
670.02197
674.90693
679.27312
683.12538
686.40916
689.15731
691.44619
693.10303
694.19997
694.74649
650.3451
656.44699
662.58692
668.45076
673.85455
678.59061
682.68415
686.15009
689.02377
691.35258
693.04993
694.16239
694.72366
641.91953
650.3731
658.39088
665.61116
671.93675
677.34305
681.94881
685.74429
688.77258
691.15601
692.90151
694.04618
694.61295
629.16738
641.73114
652.93439
662.17727
669.79931
676.05779
681.15614
685.27984
688.47188
690.93247
692.75041
693.92078
694.48116
614.2844
633.74829
648.16844
659.50912
668.24596
675.12784
680.58175
684.92271
688.26769
690.78827
692.61836
693.80807
694.37567
614.26362
633.75671
648.13528
659.41183
668.17173
675.04248
680.49853
684.81642
688.17678
690.717
692.55352
693.75379
694.35338
629.37759
641.89546
652.77987
662.02754
669.64881
675.87829
680.98556
685.10545
688.34338
690.8265
692.63655
693.83739
694.43841
642.13504
650.42028
658.31204
665.42253
671.70828
677.20205
681.80741
685.57284
688.61005
691.03075
692.82268
693.98696
694.56765
650.42097
656.49173
662.62944
668.39968
673.65742
678.38468
682.53229
686.0371
688.94271
691.26955
692.99682
694.13641
694.7052
654.47789
659.58453
664.82612
669.92936
674.70083
679.05303
682.96107
686.31628
689.12624
691.38306
693.06329
694.17357
694.72686
)
;
        Tnbr            T;
        thicknessLayers List<scalar> 0();
        kappaLayers     List<scalar> 0();
        kappaMethod     solidThermo;
        kappa           none;
        alphaAni        none;
        alpha           none;
        field           T;
    }
    rightSolid_to_topAir
    {
        type            compressible::turbulentTemperatureCoupledBaffleMixed;
        refValue        nonuniform List<scalar> 
130
(
446.90788
444.39231
441.71797
439.22082
437.09982
435.44244
434.27702
433.62134
433.5258
434.12253
435.70764
438.87598
444.14706
413.98738
410.7923
408.30337
406.49276
405.23846
404.41481
403.9468
403.8385
404.19805
405.30373
407.7859
412.89048
419.95004
420.3704
413.67508
407.58721
402.64392
398.87905
396.11141
394.17354
392.99747
392.61286
393.17091
395.23167
400.6111
412.21082
450.61899
448.71404
446.21569
443.63324
441.12794
438.70964
436.45328
434.58428
433.40247
433.40643
436.01863
443.42203
451.9956
451.02751
453.14687
456.73321
460.9803
465.00186
468.69229
471.93851
474.65154
476.83101
478.69657
480.90276
484.8482
492.03689
451.33492
453.28634
456.65367
460.70325
464.69825
468.34066
471.52027
474.13529
476.17313
477.84241
479.82101
483.59447
490.83831
450.92954
448.90497
446.22058
443.45576
440.78608
438.23043
435.84302
433.79102
432.30586
431.83041
433.79968
441.37011
449.8503
420.44257
413.70592
407.56324
402.56938
398.77349
396.00357
394.08721
392.94039
392.57435
393.12191
395.10208
400.23031
411.65425
414.06878
410.86504
408.34964
406.50342
405.21546
404.37107
403.89821
403.79438
404.15622
405.25186
407.69754
412.71461
419.72574
446.97756
444.45464
441.76383
439.24206
437.09218
435.40837
434.22337
433.55448
433.44765
434.02903
435.58975
438.7164
443.93354
)
;
        refGradient     uniform 0;
        valueFraction   nonuniform List<scalar> 
130
(
0.00032132529
0.00032132529
0.00032132529
0.00032132529
0.00032132529
0.00032132529
0.00032132529
0.00032132529
0.00032132529
0.00032132529
0.00032132529
0.00032132529
0.00032132529
0.00032132529
0.00032132529
0.00032132529
0.00032132529
0.00032132529
0.00032132529
0.00032132529
0.00032132529
0.00032132529
0.00032132529
0.00032132529
0.00032132529
0.00032132529
0.00032132529
0.00032132529
0.00032132529
0.00032132529
0.00032132529
0.00032132529
0.00032132529
0.00032132529
0.00032132529
0.00032132529
0.00032132529
0.00032132529
0.00032132529
0.00032132529
0.00032132529
0.00032132529
0.00032132529
0.00032132529
0.00032132529
0.00032132529
0.00032132529
0.00032132529
0.00032132529
0.00032132529
0.00032132529
0.00032132529
0.00032132529
0.00032132529
0.00032132529
0.00032132529
0.00032132529
0.00032132529
0.00032132529
0.00032132529
0.00032132529
0.00032132529
0.00032132529
0.00032132529
0.00032132529
0.00032132529
0.00032132529
0.00032132529
0.00032132529
0.00032132529
0.00032132529
0.00032132529
0.00032132529
0.00032132529
0.00032132529
0.00032132529
0.00032132529
0.00032132529
0.00032132529
0.00032132529
0.00032132529
0.00032132529
0.00032132529
0.00032132529
0.00032132529
0.00032132529
0.00032132529
0.00032132529
0.00032132529
0.00032132529
0.00032132529
0.00032132529
0.00032132529
0.00032132529
0.00032132529
0.00032132529
0.00032132529
0.00032132529
0.00032132529
0.00032132529
0.00032132529
0.00032132529
0.00032132529
0.00032132529
0.00032132529
0.00032132529
0.00032132529
0.00032132529
0.00032132529
0.00032132529
0.00032132529
0.00032132529
0.00032132529
0.00032132529
0.00032132529
0.00032132529
0.00032132529
0.00032132529
0.00032132529
0.00032132529
0.00032132529
0.00032132529
0.00032132529
0.00032132529
0.00032132529
0.00032132529
0.00032132529
0.00032132529
0.00032132529
0.00032132529
)
;
        value           nonuniform List<scalar> 
130
(
651.91309
657.06897
662.37605
667.57086
672.45265
676.85515
680.72596
684.03701
686.80174
689.04143
690.70232
691.80174
692.35084
647.7713
653.90443
660.07551
665.96044
671.35773
676.13012
680.25663
683.74536
686.62373
688.92148
690.62003
691.73989
692.30041
639.35636
647.7669
655.8048
663.07039
669.43387
674.88479
679.48717
683.28551
686.33637
688.71962
690.47091
691.62113
692.19407
626.63685
639.27263
650.35045
659.62511
667.28197
673.56426
678.68343
682.80649
686.04226
688.52327
690.3357
691.51524
692.0934
611.61807
631.22826
645.75024
656.97217
665.72116
672.63142
678.11886
682.46462
685.83928
688.39226
690.23625
691.43332
692.01928
611.62713
631.2263
645.71247
656.91063
665.66176
672.56844
678.05443
682.39481
685.77638
688.33966
690.19011
691.39581
691.99441
626.75862
639.33099
650.26838
659.50389
667.14911
673.42187
678.54248
682.66742
685.92367
688.42294
690.24479
691.44376
692.04171
639.49107
647.80323
655.73945
662.92742
669.26025
674.73084
679.33888
683.13437
686.19879
688.60728
690.38707
691.55686
692.14165
647.83921
653.92794
660.05835
665.87186
671.19315
675.95176
680.10248
683.61961
686.52443
688.83618
690.55717
691.69689
692.2666
651.93544
657.05744
662.32508
667.46245
672.27574
676.66116
680.56231
683.92108
686.72651
688.97281
690.65118
691.76487
692.32155
)
;
        Tnbr            T;
        thicknessLayers List<scalar> 0();
        kappaLayers     List<scalar> 0();
        kappaMethod     solidThermo;
        kappa           none;
        alphaAni        none;
        alpha           none;
        field           T;
    }
    rightSolid_to_heater
    {
        type            compressible::turbulentTemperatureCoupledBaffleMixed;
        refValue        nonuniform List<scalar> 10(647.31577 642.21668 631.46543 613.50341 583.50395 583.53154 613.64074 631.64653 642.3392 647.38324);
        refGradient     uniform 0;
        valueFraction   nonuniform List<scalar> 10(0.50000003 0.50000003 0.50000003 0.50000003 0.50000003 0.50000003 0.50000003 0.50000003 0.50000003 0.50000003);
        value           nonuniform List<scalar> 10(649.64738 645.03156 635.44609 620.09842 597.58682 597.6051 620.22794 635.60401 645.12677 649.69228);
        Tnbr            T;
        thicknessLayers List<scalar> 0();
        kappaLayers     List<scalar> 0();
        kappaMethod     solidThermo;
        kappa           none;
        alphaAni        none;
        alpha           none;
        field           T;
    }
}


// ************************************************************************* //
