/*--------------------------------*- C++ -*----------------------------------*\
| =========                 |                                                 |
| \\      /  F ield         | OpenFOAM: The Open Source CFD Toolbox           |
|  \\    /   O peration     | Version:  v2012                                 |
|   \\  /    A nd           | Website:  www.openfoam.com                      |
|    \\/     M anipulation  |                                                 |
\*---------------------------------------------------------------------------*/
FoamFile
{
    version     2.0;
    format      ascii;
    class       volScalarField;
    location    "690/rightSolid";
    object      T;
}
// * * * * * * * * * * * * * * * * * * * * * * * * * * * * * * * * * * * * * //

dimensions      [0 0 0 1 0 0 0];


internalField   nonuniform List<scalar> 
130
(
750.69349
758.75714
767.19078
775.55693
783.51846
790.8488
797.40844
803.11036
807.90593
811.7721
814.70069
816.66071
817.63723
744.95612
754.3434
763.93837
773.23455
781.90133
789.74473
796.66619
802.61903
807.58694
811.56809
814.5759
816.57832
817.57462
733.40196
745.83153
757.91354
769.077
779.08004
787.86429
795.4244
801.80955
807.06855
811.24658
814.37981
816.45532
817.48251
716.10765
734.30052
750.39632
764.211
775.93686
785.83622
794.12013
800.9807
806.56223
810.95805
814.21073
816.35608
817.42227
695.6482
723.36218
744.22265
760.57212
773.71438
784.43559
793.22778
800.41874
806.22513
810.75623
814.08929
816.28388
817.37407
695.74801
723.43847
744.2715
760.59584
773.71676
784.41232
793.17835
800.34322
806.13406
810.68826
814.03435
816.23674
817.33113
716.41673
734.53215
750.53969
764.27285
775.92125
785.74439
793.97445
800.79813
806.36498
810.786
814.05826
816.22129
817.30136
733.89126
746.19964
758.14342
769.17992
779.06498
787.74703
795.23572
801.57379
806.81294
811.00638
814.16195
816.25413
817.30038
745.55698
754.79622
764.20391
773.33966
781.87776
789.62436
796.4725
802.37585
807.32105
811.31771
814.34701
816.36425
817.37359
751.31243
759.21687
767.46331
775.66651
783.50157
790.73919
797.22631
802.87753
807.65227
811.53625
814.48287
816.44972
817.4344
)
;

boundaryField
{
    maxX
    {
        type            zeroGradient;
    }
    minZ
    {
        type            zeroGradient;
    }
    maxZ
    {
        type            zeroGradient;
    }
    rightSolid_to_bottomWater
    {
        type            compressible::turbulentTemperatureCoupledBaffleMixed;
        refValue        nonuniform List<scalar> 
130
(
914.84418
915.17748
916.93798
918.81953
919.45722
919.08033
919.10964
919.18497
919.11591
918.97823
921.52498
923.1027
922.41845
914.29776
915.81985
917.92358
919.51529
920.82327
920.70502
920.70863
920.77474
921.0885
920.29498
924.31905
924.96915
924.33542
913.01039
914.8304
917.15453
918.86009
919.01795
922.11277
921.73266
921.77727
921.4373
921.22909
925.70311
926.86193
925.31962
911.67416
914.56979
916.93037
917.97368
918.55751
921.67085
921.31898
920.80318
921.63475
925.94695
927.74964
928.00947
928.14993
911.44931
915.37628
916.45712
917.60658
917.00713
916.99349
917.37051
919.22083
925.56519
928.31611
929.2696
930.01293
930.31495
913.82565
915.4846
916.274
917.50624
918.4279
918.15039
917.63769
917.2692
920.34979
929.37921
930.42717
931.09763
931.36738
918.39385
916.68004
916.99122
917.93656
918.04771
917.90505
917.84499
917.61396
918.82978
928.46421
929.71434
930.34696
931.44614
922.29475
919.7754
919.83744
921.36546
919.22104
918.80023
918.49056
918.42147
918.1153
921.67911
927.45545
927.81958
928.66858
925.02093
924.50327
918.75284
918.79029
919.05112
919.37902
919.27844
919.2839
918.77755
921.82824
927.54485
928.15435
928.53593
923.82655
921.03755
917.56489
918.10226
918.7155
919.71272
919.62524
919.01141
918.50244
922.62422
926.75263
927.12165
927.25892
)
;
        refGradient     uniform 0;
        valueFraction   nonuniform List<scalar> 
130
(
0.0075140686
0.0075140686
0.0075140686
0.0075140686
0.0075140686
0.0075140686
0.0075140686
0.0075140686
0.0075140686
0.0075140686
0.0075140686
0.0075140686
0.0075140686
0.0075140686
0.0075140686
0.0075140686
0.0075140686
0.0075140686
0.0075140686
0.0075140686
0.0075140686
0.0075140686
0.0075140686
0.0075140686
0.0075140686
0.0075140686
0.0075140686
0.0075140686
0.0075140686
0.0075140686
0.0075140686
0.0075140686
0.0075140686
0.0075140686
0.0075140686
0.0075140686
0.0075140686
0.0075140686
0.0075140686
0.0075140686
0.0075140686
0.0075140686
0.0075140686
0.0075140686
0.0075140686
0.0075140686
0.0075140686
0.0075140686
0.0075140686
0.0075140686
0.0075140686
0.0075140686
0.0075140686
0.0075140686
0.0075140686
0.0075140686
0.0075140686
0.0075140686
0.0075140686
0.0075140686
0.0075140686
0.0075140686
0.0075140686
0.0075140686
0.0075140686
0.0075140686
0.0075140686
0.0075140686
0.0075140686
0.0075140686
0.0075140686
0.0075140686
0.0075140686
0.0075140686
0.0075140686
0.0075140686
0.0075140686
0.0075140686
0.0075140686
0.0075140686
0.0075140686
0.0075140686
0.0075140686
0.0075140686
0.0075140686
0.0075140686
0.0075140686
0.0075140686
0.0075140686
0.0075140686
0.0075140686
0.0075140686
0.0075140686
0.0075140686
0.0075140686
0.0075140686
0.0075140686
0.0075140686
0.0075140686
0.0075140686
0.0075140686
0.0075140686
0.0075140686
0.0075140686
0.0075140686
0.0075140686
0.0075140686
0.0075140686
0.0075140686
0.0075140686
0.0075140686
0.0075140686
0.0075140686
0.0075140686
0.0075140686
0.0075140686
0.0075140686
0.0075140686
0.0075140686
0.0075140686
0.0075140686
0.0075140686
0.0075140686
0.0075140686
0.0075140686
0.0075140686
0.0075140686
0.0075140686
0.0075140686
0.0075140686
)
;
        value           nonuniform List<scalar> 
130
(
751.92744
759.93301
768.3165
776.63391
784.54037
791.81277
798.32333
803.98296
808.74198
812.57806
815.50378
817.46093
818.42496
746.22901
755.55722
765.09591
774.33419
782.94564
790.72919
797.59866
803.50725
808.44019
812.38547
815.40092
817.39317
818.37722
734.75194
747.1018
759.11051
770.20291
780.13194
788.87339
796.37385
802.71136
807.9283
812.07339
815.21669
817.28532
818.29319
717.57752
735.65544
751.64804
765.36676
777.00887
786.85723
795.07625
801.8814
807.42727
811.82245
815.06422
817.19539
818.25462
697.27005
724.80531
745.51716
761.7524
774.79141
785.43196
794.16093
801.31176
807.12216
811.63984
814.955
817.13868
818.22294
697.38697
724.88185
745.56427
761.77519
774.80444
785.41754
794.11384
801.22207
806.99246
811.58026
814.90908
817.09996
818.18816
717.93474
735.90117
751.79077
765.42782
776.98951
786.73776
794.90551
801.67613
807.2102
811.67034
814.92742
817.07896
818.15918
735.30732
747.50425
759.35873
770.32377
780.11843
788.73208
796.16216
802.45206
807.64948
811.8381
815.01337
817.09258
818.13734
746.9059
756.0718
765.36555
774.43291
782.9088
790.59964
797.39555
803.25456
808.15875
812.14825
815.19773
817.20437
818.20899
752.60903
760.43316
768.59153
776.73711
784.51789
791.70859
798.14629
803.75041
808.48542
812.37116
815.32661
817.28142
818.25972
)
;
        Tnbr            T;
        thicknessLayers List<scalar> 0();
        kappaLayers     List<scalar> 0();
        kappaMethod     solidThermo;
        kappa           none;
        alphaAni        none;
        alpha           none;
        field           T;
    }
    rightSolid_to_topAir
    {
        type            compressible::turbulentTemperatureCoupledBaffleMixed;
        refValue        nonuniform List<scalar> 
130
(
495.58896
488.09183
481.58001
476.32979
472.38927
469.6883
468.1136
467.55483
467.94795
469.3221
471.87109
476.1096
482.9241
438.34423
432.54593
428.99345
426.95693
425.92662
425.62904
425.94638
426.83453
428.32475
430.55683
433.89897
439.31954
449.00051
448.96422
439.9895
432.28944
425.82697
420.61653
416.75929
414.36739
413.48267
414.0359
415.91942
419.1364
424.45422
433.73223
503.16462
503.32221
502.18768
499.45176
495.2967
490.17206
484.50759
478.78177
473.86902
471.25839
472.96838
480.7752
491.74443
508.19955
512.03033
516.00787
519.74532
522.8789
525.10648
526.24481
526.30129
525.59527
524.8809
525.37218
528.62682
536.29754
510.07554
513.81119
517.72483
521.41136
524.49228
526.67025
527.78073
527.84294
527.16567
526.48202
526.97564
530.10831
537.52531
505.41856
505.9654
505.01688
502.23778
497.91784
492.68634
487.09425
481.58156
476.91054
474.57837
476.56765
483.61772
494.18956
449.51151
440.94763
433.40887
426.93823
421.71016
417.99007
415.96296
415.61413
416.74231
419.11208
422.66848
428.30312
438.03595
437.91065
432.53224
429.22087
427.26548
426.22164
425.91638
426.32655
427.45579
429.33126
432.05127
435.93701
441.96962
451.96586
495.42731
488.0596
481.67343
476.51855
472.64307
470.00188
468.51907
468.11465
468.73645
470.40647
473.29952
477.91998
485.10121
)
;
        refGradient     uniform 0;
        valueFraction   nonuniform List<scalar> 
130
(
0.00032132529
0.00032132529
0.00032132529
0.00032132529
0.00032132529
0.00032132529
0.00032132529
0.00032132529
0.00032132529
0.00032132529
0.00032132529
0.00032132529
0.00032132529
0.00032132529
0.00032132529
0.00032132529
0.00032132529
0.00032132529
0.00032132529
0.00032132529
0.00032132529
0.00032132529
0.00032132529
0.00032132529
0.00032132529
0.00032132529
0.00032132529
0.00032132529
0.00032132529
0.00032132529
0.00032132529
0.00032132529
0.00032132529
0.00032132529
0.00032132529
0.00032132529
0.00032132529
0.00032132529
0.00032132529
0.00032132529
0.00032132529
0.00032132529
0.00032132529
0.00032132529
0.00032132529
0.00032132529
0.00032132529
0.00032132529
0.00032132529
0.00032132529
0.00032132529
0.00032132529
0.00032132529
0.00032132529
0.00032132529
0.00032132529
0.00032132529
0.00032132529
0.00032132529
0.00032132529
0.00032132529
0.00032132529
0.00032132529
0.00032132529
0.00032132529
0.00032132529
0.00032132529
0.00032132529
0.00032132529
0.00032132529
0.00032132529
0.00032132529
0.00032132529
0.00032132529
0.00032132529
0.00032132529
0.00032132529
0.00032132529
0.00032132529
0.00032132529
0.00032132529
0.00032132529
0.00032132529
0.00032132529
0.00032132529
0.00032132529
0.00032132529
0.00032132529
0.00032132529
0.00032132529
0.00032132529
0.00032132529
0.00032132529
0.00032132529
0.00032132529
0.00032132529
0.00032132529
0.00032132529
0.00032132529
0.00032132529
0.00032132529
0.00032132529
0.00032132529
0.00032132529
0.00032132529
0.00032132529
0.00032132529
0.00032132529
0.00032132529
0.00032132529
0.00032132529
0.00032132529
0.00032132529
0.00032132529
0.00032132529
0.00032132529
0.00032132529
0.00032132529
0.00032132529
0.00032132529
0.00032132529
0.00032132529
0.00032132529
0.00032132529
0.00032132529
0.00032132529
0.00032132529
0.00032132529
0.00032132529
0.00032132529
)
;
        value           nonuniform List<scalar> 
130
(
750.61203
758.67069
767.09952
775.46128
783.41895
790.74604
797.30305
803.00295
807.7971
811.66247
814.59094
816.55169
817.53008
744.85805
754.24048
763.83123
773.12377
781.7874
789.62815
796.54748
802.49868
807.46547
811.44607
814.45399
816.4575
817.45658
733.31095
745.73366
757.80934
768.96714
778.96526
787.7454
795.30232
801.68514
806.94264
811.11994
814.2532
816.32976
817.35959
716.0396
734.22666
750.31694
764.12631
775.84704
785.74156
794.02098
800.87752
806.45571
810.84926
814.10144
816.24859
817.31795
695.58828
723.2946
744.14965
760.49505
773.63411
784.35258
793.14232
800.331
806.13526
810.66463
813.99676
816.19168
817.28398
695.68866
723.37145
744.19904
760.5193
773.63699
784.32981
793.09337
800.25592
806.04459
810.59709
813.94226
816.14495
817.24137
716.34928
734.45906
750.46115
764.18899
775.83224
785.65053
793.87614
800.6958
806.25927
810.67807
813.94993
816.11454
817.19767
733.80027
746.10191
758.03941
769.07027
778.95046
787.62853
795.11415
801.45004
806.68781
810.88057
814.03628
816.12961
817.17865
745.45854
754.69306
764.09663
773.22878
781.76379
789.50779
796.35384
802.25563
807.1998
811.196
814.22556
816.24407
817.25629
751.23053
759.1301
767.37183
775.57071
783.40199
790.63641
797.12096
802.7702
807.54358
811.42682
814.37338
816.34105
817.32771
)
;
        Tnbr            T;
        thicknessLayers List<scalar> 0();
        kappaLayers     List<scalar> 0();
        kappaMethod     solidThermo;
        kappa           none;
        alphaAni        none;
        alpha           none;
        field           T;
    }
    rightSolid_to_heater
    {
        type            compressible::turbulentTemperatureCoupledBaffleMixed;
        refValue        nonuniform List<scalar> 10(743.50221 736.45469 721.71661 697.31882 656.58155 656.6754 697.65423 722.26668 737.14582 744.23075);
        refGradient     uniform 0;
        valueFraction   nonuniform List<scalar> 10(0.50000003 0.50000003 0.50000003 0.50000003 0.50000003 0.50000003 0.50000003 0.50000003 0.50000003 0.50000003);
        value           nonuniform List<scalar> 10(747.09811 740.70563 727.55948 706.71342 676.11503 676.21186 707.03565 728.07917 741.35161 747.77175);
        Tnbr            T;
        thicknessLayers List<scalar> 0();
        kappaLayers     List<scalar> 0();
        kappaMethod     solidThermo;
        kappa           none;
        alphaAni        none;
        alpha           none;
        field           T;
    }
}


// ************************************************************************* //
