/*--------------------------------*- C++ -*----------------------------------*\
| =========                 |                                                 |
| \\      /  F ield         | OpenFOAM: The Open Source CFD Toolbox           |
|  \\    /   O peration     | Version:  v2012                                 |
|   \\  /    A nd           | Website:  www.openfoam.com                      |
|    \\/     M anipulation  |                                                 |
\*---------------------------------------------------------------------------*/
FoamFile
{
    version     2.0;
    format      ascii;
    class       volScalarField;
    location    "10/bottomWater";
    object      p;
}
// * * * * * * * * * * * * * * * * * * * * * * * * * * * * * * * * * * * * * //

dimensions      [1 -1 -2 0 0 0 0];


internalField   nonuniform List<scalar> 
1460
(
353.32291
353.32609
353.3212
353.33224
353.32658
353.33455
353.34351
353.34518
353.34834
353.3426
353.33726
353.33359
353.32627
353.33846
353.3399
353.3399
353.33846
353.32627
353.33359
353.33726
353.3426
353.34834
353.34518
353.34351
353.33455
353.32658
353.33224
353.3212
353.32609
353.32291
274.55587
274.52822
274.52086
274.52395
274.49846
274.50246
274.53107
274.54998
274.55197
274.5359
274.52098
274.51418
274.5168
274.54943
274.57588
274.57588
274.54943
274.5168
274.51417
274.52097
274.5359
274.55196
274.54998
274.53107
274.50247
274.49847
274.52396
274.52087
274.52822
274.55587
196.22836
196.23634
196.25702
196.24007
196.25275
196.26451
196.23851
196.23621
196.23042
196.23874
196.2428
196.23742
196.22233
196.18822
196.19155
196.19155
196.18823
196.22234
196.23742
196.2428
196.23874
196.23042
196.23621
196.23851
196.26451
196.25275
196.24008
196.25702
196.23635
196.22836
117.6695
117.63772
117.63226
117.6353
117.66239
117.66723
117.68843
117.69654
117.69744
117.68897
117.67774
117.67517
117.67619
117.68376
117.68474
117.68474
117.68376
117.67619
117.67517
117.67774
117.68897
117.69744
117.69654
117.68843
117.66723
117.66239
117.6353
117.63227
117.63772
117.6695
39.22545
39.229971
39.267247
39.242776
39.211958
39.198091
39.193078
39.19569
39.195156
39.19512
39.199088
39.211036
39.212394
39.20224
39.209631
39.209631
39.20224
39.212394
39.211039
39.19909
39.195122
39.195156
39.195691
39.193078
39.198092
39.211958
39.242777
39.267248
39.229973
39.225452
353.32044
353.31688
353.32422
353.33522
353.33536
353.33914
353.34137
353.34266
353.34558
353.34252
353.33925
353.33649
353.33179
353.32809
353.32673
353.32673
353.32809
353.33179
353.33649
353.33925
353.34252
353.34558
353.34266
353.34137
353.33914
353.33535
353.33522
353.32422
353.31688
353.32044
274.55633
274.50717
274.49875
274.48927
274.48862
274.48299
274.48424
274.48646
274.48683
274.48431
274.48326
274.48539
274.48522
274.48808
274.49193
274.49193
274.48808
274.48522
274.48539
274.48326
274.48431
274.48683
274.48646
274.48425
274.48299
274.48862
274.48928
274.49876
274.50718
274.55633
196.2063
196.21992
196.23941
196.25453
196.25297
196.25157
196.25283
196.26386
196.25952
196.25308
196.25032
196.25514
196.25008
196.24146
196.23914
196.23914
196.24146
196.25008
196.25514
196.25032
196.25309
196.25953
196.26386
196.25283
196.25157
196.25297
196.25453
196.23941
196.21992
196.2063
117.67495
117.67519
117.69582
117.68443
117.66041
117.65973
117.66407
117.67616
117.6787
117.66194
117.65973
117.66417
117.67939
117.67634
117.67447
117.67447
117.67634
117.67939
117.66417
117.65973
117.66194
117.6787
117.67616
117.66406
117.65973
117.66041
117.68443
117.69582
117.67519
117.67495
39.222254
39.208489
39.215094
39.211079
39.225862
39.20609
39.186314
39.18031
39.177188
39.183234
39.198665
39.216108
39.214634
39.217946
39.220179
39.220178
39.217948
39.214635
39.216113
39.198668
39.183235
39.177186
39.180305
39.186313
39.206092
39.225865
39.211081
39.215096
39.20849
39.222256
353.32714
353.32656
353.33174
353.3387
353.33229
353.34164
353.34101
353.34245
353.34601
353.34051
353.34234
353.3404
353.33596
353.33178
353.32977
353.32977
353.33178
353.33596
353.3404
353.34234
353.34049
353.34601
353.34245
353.34101
353.34164
353.33229
353.3387
353.33174
353.32656
353.32714
274.54297
274.50553
274.49319
274.48922
274.49092
274.5057
274.50521
274.50548
274.49858
274.49542
274.49655
274.49717
274.49207
274.48751
274.49458
274.49458
274.48751
274.49207
274.49717
274.49656
274.49536
274.49859
274.5055
274.50521
274.50569
274.49092
274.48922
274.49319
274.50553
274.54298
196.2299
196.24355
196.25368
196.27245
196.25441
196.26162
196.27237
196.27197
196.26811
196.27524
196.27007
196.27172
196.26579
196.25676
196.26225
196.26225
196.25676
196.26579
196.27172
196.27006
196.27531
196.26811
196.27202
196.27238
196.26162
196.25441
196.27246
196.25368
196.24355
196.2299
117.69135
117.66652
117.68961
117.63643
117.62123
117.61465
117.59722
117.61574
117.61854
117.59897
117.61947
117.62192
117.64141
117.6696
117.68314
117.68314
117.6696
117.64141
117.62193
117.61947
117.59899
117.61853
117.61568
117.59722
117.61466
117.62124
117.63644
117.68962
117.66652
117.69135
39.215167
39.215516
39.229006
39.243616
39.284071
39.289554
39.267503
39.245066
39.234661
39.269235
39.299439
39.289389
39.244891
39.218419
39.216904
39.216905
39.218419
39.244894
39.289392
39.299443
39.269235
39.234648
39.245045
39.267497
39.289557
39.284072
39.243617
39.229008
39.215517
39.215168
353.33293
353.33572
353.34505
353.35075
353.3746
353.37493
353.37067
353.35561
353.38807
353.37497
353.35743
353.35266
353.34703
353.33995
353.33661
353.33661
353.33995
353.34703
353.35266
353.35743
353.37498
353.38807
353.35561
353.37067
353.37493
353.3746
353.35075
353.34505
353.33572
353.33293
274.53578
274.50479
274.47981
274.48292
274.53193
274.53274
274.50296
274.47474
274.5412
274.51535
274.47584
274.47882
274.50323
274.52612
274.53983
274.53983
274.52612
274.50323
274.47882
274.47584
274.51535
274.5412
274.47473
274.50296
274.53274
274.53192
274.48292
274.47981
274.50479
274.53578
196.21861
196.22472
196.22427
196.23554
196.18211
196.20183
196.23094
196.28387
196.18972
196.19383
196.23704
196.24604
196.23749
196.22796
196.23005
196.23005
196.22796
196.23749
196.24604
196.23704
196.19383
196.18972
196.28387
196.23094
196.20183
196.18211
196.23554
196.22427
196.22472
196.21861
117.68528
117.64988
117.69192
117.6278
117.64318
117.62749
117.6725
117.66717
117.61426
117.62915
117.63925
117.67084
117.63146
117.65463
117.68282
117.68282
117.65463
117.63147
117.67085
117.63926
117.62916
117.61425
117.66716
117.67249
117.62749
117.64318
117.6278
117.69192
117.64988
117.68528
39.211746
39.216523
39.229748
39.25764
39.273561
39.230353
39.197039
39.185725
39.233431
39.284212
39.261382
39.241162
39.224568
39.206781
39.207595
39.207596
39.206782
39.224569
39.24116
39.261382
39.284214
39.233428
39.185713
39.197033
39.230352
39.27356
39.257639
39.229748
39.216524
39.211747
353.33629
353.33768
353.3454
353.3463
353.37191
353.3557
353.37735
353.35374
353.39031
353.36675
353.36465
353.35399
353.35524
353.35524
353.354
353.36465
353.36675
353.39031
353.35375
353.37735
353.3557
353.37192
353.3463
353.3454
353.33768
353.33629
274.53791
274.50425
274.47791
274.49892
274.50517
274.4513
274.4513
274.45052
274.51212
274.4689
274.46922
274.48941
274.52449
274.52449
274.48941
274.46922
274.4689
274.51211
274.45052
274.4513
274.4513
274.50517
274.49892
274.47791
274.50425
274.53791
196.2195
196.23255
196.21524
196.27146
196.19684
196.28283
196.29918
196.26327
196.17931
196.28084
196.23741
196.26169
196.23521
196.23521
196.26169
196.23741
196.28084
196.17932
196.26328
196.29919
196.28283
196.19684
196.27146
196.21524
196.23255
196.2195
117.69197
117.65664
117.69725
117.61965
117.64703
117.66982
117.72596
117.66148
117.64036
117.65989
117.68521
117.66198
117.69026
117.69026
117.66198
117.6852
117.65989
117.64036
117.66149
117.72596
117.66982
117.64703
117.61965
117.69725
117.65664
117.69197
39.213086
39.219241
39.224925
39.26232
39.24598
39.205023
39.206881
39.218511
39.255568
39.246052
39.231762
39.222165
39.223749
39.223751
39.22217
39.231776
39.246059
39.255567
39.218512
39.206884
39.205021
39.245981
39.26232
39.224925
39.219241
39.213086
353.33629
353.33768
353.3454
353.3463
353.37191
353.3557
353.37735
353.35374
353.39031
353.36675
353.36465
353.35399
353.35524
353.35524
353.354
353.36465
353.36675
353.39031
353.35374
353.37735
353.3557
353.37192
353.3463
353.3454
353.33768
353.33629
274.53791
274.50425
274.47791
274.49892
274.50517
274.4513
274.4513
274.45052
274.51212
274.4689
274.46922
274.48941
274.52449
274.52449
274.48941
274.46922
274.4689
274.51211
274.45052
274.4513
274.4513
274.50517
274.49892
274.47791
274.50425
274.53791
196.2195
196.23255
196.21524
196.27146
196.19684
196.28283
196.29918
196.26327
196.17931
196.28084
196.23741
196.26169
196.23521
196.23521
196.26169
196.23741
196.28084
196.17931
196.26328
196.29919
196.28283
196.19684
196.27146
196.21524
196.23255
196.2195
117.69197
117.65664
117.69725
117.61965
117.64703
117.66982
117.72596
117.66148
117.64036
117.65989
117.68521
117.66198
117.69026
117.69026
117.66198
117.6852
117.65989
117.64036
117.66149
117.72596
117.66982
117.64703
117.61965
117.69725
117.65664
117.69197
39.213086
39.219241
39.224925
39.26232
39.245981
39.205023
39.206881
39.218509
39.255567
39.246054
39.231765
39.222166
39.223749
39.223751
39.222169
39.231775
39.246059
39.255566
39.218511
39.206882
39.205022
39.245982
39.26232
39.224926
39.219241
39.213086
353.33293
353.33572
353.34505
353.35075
353.3746
353.37493
353.37067
353.3556
353.38807
353.37497
353.35743
353.35266
353.34703
353.33995
353.33661
353.33661
353.33995
353.34703
353.35266
353.35743
353.37497
353.38807
353.3556
353.37067
353.37493
353.3746
353.35075
353.34505
353.33572
353.33293
274.53578
274.50479
274.47981
274.48292
274.53193
274.53274
274.50296
274.47474
274.5412
274.51535
274.47584
274.47882
274.50323
274.52612
274.53983
274.53983
274.52612
274.50323
274.47882
274.47584
274.51535
274.5412
274.47474
274.50297
274.53274
274.53193
274.48292
274.47981
274.50479
274.53578
196.21861
196.22473
196.22427
196.23554
196.18212
196.20183
196.23094
196.28387
196.18972
196.19383
196.23704
196.24604
196.23749
196.22796
196.23005
196.23005
196.22796
196.23749
196.24604
196.23704
196.19383
196.18972
196.28388
196.23094
196.20183
196.18212
196.23554
196.22427
196.22472
196.21861
117.68528
117.64988
117.69192
117.6278
117.64318
117.62749
117.67249
117.66717
117.61425
117.62916
117.63925
117.67085
117.63146
117.65463
117.68282
117.68283
117.65463
117.63147
117.67085
117.63926
117.62916
117.61425
117.66716
117.67249
117.62749
117.64318
117.6278
117.69192
117.64988
117.68528
39.211747
39.216524
39.229749
39.257641
39.273563
39.230354
39.197038
39.185724
39.233432
39.284213
39.261381
39.24116
39.224568
39.206781
39.207595
39.207596
39.206782
39.224569
39.241159
39.261381
39.284213
39.233426
39.18571
39.197032
39.230353
39.273561
39.25764
39.229749
39.216524
39.211747
353.32714
353.32656
353.33174
353.3387
353.33229
353.34164
353.34101
353.34245
353.34601
353.3405
353.34234
353.3404
353.33596
353.33178
353.32977
353.32977
353.33178
353.33596
353.3404
353.34234
353.34049
353.34601
353.34245
353.34101
353.34164
353.33228
353.3387
353.33174
353.32656
353.32714
274.54297
274.50553
274.49319
274.48921
274.49092
274.50569
274.50521
274.50549
274.49859
274.49538
274.49656
274.49717
274.49206
274.48751
274.49458
274.49458
274.48751
274.49207
274.49717
274.49656
274.49535
274.4986
274.5055
274.50521
274.50569
274.49091
274.48921
274.49319
274.50553
274.54298
196.2299
196.24355
196.25368
196.27246
196.25441
196.26162
196.27237
196.27199
196.26811
196.27529
196.27006
196.27172
196.26579
196.25676
196.26225
196.26225
196.25676
196.26579
196.27172
196.27006
196.27532
196.26811
196.27203
196.27238
196.26162
196.25441
196.27246
196.25368
196.24355
196.2299
117.69135
117.66652
117.68961
117.63644
117.62124
117.61466
117.59722
117.61571
117.61854
117.59898
117.61947
117.62193
117.64141
117.6696
117.68314
117.68314
117.6696
117.64141
117.62193
117.61948
117.59899
117.61852
117.61565
117.59721
117.61467
117.62124
117.63644
117.68962
117.66652
117.69135
39.215167
39.215517
39.229007
39.243617
39.284073
39.289557
39.2675
39.245053
39.234654
39.269234
39.29944
39.289388
39.244891
39.218419
39.216904
39.216904
39.218419
39.244892
39.28939
39.299441
39.269233
39.234642
39.245031
39.267491
39.289555
39.284073
39.243617
39.229008
39.215517
39.215168
353.32044
353.31688
353.32422
353.33522
353.33536
353.33914
353.34137
353.34266
353.34558
353.34252
353.33925
353.33649
353.33179
353.32809
353.32673
353.32673
353.32809
353.33179
353.33649
353.33925
353.34252
353.34558
353.34266
353.34137
353.33914
353.33535
353.33522
353.32422
353.31688
353.32044
274.55633
274.50717
274.49875
274.48927
274.48862
274.48299
274.48424
274.48646
274.48683
274.48431
274.48326
274.48539
274.48522
274.48808
274.49193
274.49193
274.48808
274.48522
274.48539
274.48326
274.48431
274.48683
274.48647
274.48425
274.48299
274.48862
274.48928
274.49876
274.50718
274.55633
196.2063
196.21992
196.23941
196.25453
196.25297
196.25157
196.25283
196.26386
196.25953
196.25308
196.25032
196.25514
196.25008
196.24146
196.23914
196.23914
196.24146
196.25008
196.25514
196.25032
196.25309
196.25953
196.26387
196.25284
196.25157
196.25297
196.25453
196.23941
196.21992
196.2063
117.67495
117.67519
117.69582
117.68443
117.66041
117.65973
117.66406
117.67616
117.6787
117.66194
117.65973
117.66417
117.67939
117.67634
117.67447
117.67447
117.67634
117.6794
117.66417
117.65973
117.66194
117.6787
117.67615
117.66406
117.65974
117.66041
117.68443
117.69582
117.67519
117.67495
39.222255
39.20849
39.215095
39.21108
39.225863
39.20609
39.186314
39.180307
39.177186
39.183234
39.198666
39.21611
39.214635
39.217947
39.220179
39.220179
39.217948
39.214635
39.216112
39.198667
39.183233
39.177182
39.1803
39.18631
39.20609
39.225864
39.21108
39.215096
39.208491
39.222256
353.32291
353.32609
353.3212
353.33224
353.32658
353.33455
353.34351
353.34518
353.34834
353.3426
353.33726
353.33359
353.32627
353.33846
353.3399
353.3399
353.33846
353.32627
353.33359
353.33726
353.3426
353.34834
353.34518
353.34351
353.33455
353.32658
353.33224
353.32121
353.32609
353.32291
274.55587
274.52822
274.52086
274.52395
274.49846
274.50246
274.53107
274.54998
274.55197
274.5359
274.52098
274.51418
274.5168
274.54943
274.57588
274.57588
274.54943
274.5168
274.51418
274.52098
274.5359
274.55197
274.54998
274.53107
274.50247
274.49847
274.52396
274.52087
274.52822
274.55587
196.22836
196.23634
196.25702
196.24008
196.25275
196.26451
196.23851
196.23621
196.23042
196.23874
196.2428
196.23742
196.22234
196.18822
196.19155
196.19155
196.18823
196.22234
196.23742
196.2428
196.23874
196.23042
196.23621
196.23851
196.26451
196.25275
196.24007
196.25702
196.23635
196.22836
117.6695
117.63772
117.63226
117.6353
117.66239
117.66723
117.68843
117.69654
117.69744
117.68897
117.67774
117.67517
117.67619
117.68376
117.68474
117.68474
117.68376
117.67619
117.67517
117.67774
117.68897
117.69744
117.69654
117.68843
117.66724
117.66239
117.63531
117.63227
117.63772
117.6695
39.225451
39.229971
39.267247
39.242777
39.211958
39.198091
39.193078
39.19569
39.195155
39.19512
39.199089
39.211037
39.212395
39.20224
39.209631
39.209631
39.20224
39.212395
39.211038
39.199089
39.19512
39.195154
39.195688
39.193076
39.198091
39.211958
39.242777
39.267248
39.229973
39.225453
)
;

boundaryField
{
    minX
    {
        type            calculated;
        value           nonuniform List<scalar> 
50
(
353.32291
274.55587
196.22836
117.6695
39.22545
353.32044
274.55633
196.2063
117.67495
39.222254
353.32714
274.54297
196.2299
117.69135
39.215167
353.33293
274.53578
196.21861
117.68528
39.211746
353.33629
274.53791
196.2195
117.69197
39.213086
353.33629
274.53791
196.2195
117.69197
39.213086
353.33293
274.53578
196.21861
117.68528
39.211747
353.32714
274.54297
196.2299
117.69135
39.215167
353.32044
274.55633
196.2063
117.67495
39.222255
353.32291
274.55587
196.22836
117.6695
39.225451
)
;
    }
    maxX
    {
        type            calculated;
        value           nonuniform List<scalar> 
50
(
353.32291
274.55587
196.22836
117.6695
39.225452
353.32044
274.55633
196.2063
117.67495
39.222256
353.32714
274.54298
196.2299
117.69135
39.215168
353.33293
274.53578
196.21861
117.68528
39.211747
353.33629
274.53791
196.2195
117.69197
39.213086
353.33629
274.53791
196.2195
117.69197
39.213086
353.33293
274.53578
196.21861
117.68528
39.211747
353.32714
274.54298
196.2299
117.69135
39.215168
353.32044
274.55633
196.2063
117.67495
39.222256
353.32291
274.55587
196.22836
117.6695
39.225453
)
;
    }
    minY
    {
        type            calculated;
        value           nonuniform List<scalar> 
292
(
392.4
392.4
392.4
392.4
392.4
392.4
392.4
392.4
392.4
392.4
392.4
392.4
392.4
392.4
392.4
392.4
392.4
392.4
392.4
392.4
392.4
392.4
392.4
392.4
392.4
392.4
392.4
392.4
392.4
392.4
392.4
392.4
392.4
392.4
392.4
392.4
392.4
392.4
392.4
392.4
392.4
392.4
392.4
392.4
392.4
392.4
392.4
392.4
392.4
392.4
392.4
392.4
392.4
392.4
392.4
392.4
392.4
392.4
392.4
392.4
392.4
392.4
392.4
392.4
392.4
392.4
392.4
392.4
392.4
392.4
392.4
392.4
392.4
392.4
392.4
392.4
392.4
392.4
392.4
392.4
392.4
392.4
392.4
392.4
392.4
392.4
392.4
392.4
392.4
392.4
392.4
392.4
392.4
392.4
392.4
392.4
392.4
392.4
392.4
392.4
392.4
392.4
392.4
392.4
392.4
392.4
392.4
392.4
392.4
392.4
392.4
392.4
392.4
392.4
392.4
392.4
392.4
392.4
392.4
392.4
392.4
392.4
392.4
392.4
392.4
392.4
392.4
392.4
392.4
392.4
392.4
392.4
392.4
392.4
392.4
392.4
392.4
392.4
392.4
392.4
392.4
392.4
392.4
392.4
392.4
392.4
392.4
392.4
392.4
392.4
392.4
392.4
392.4
392.4
392.4
392.4
392.4
392.4
392.4
392.4
392.4
392.4
392.4
392.4
392.4
392.4
392.4
392.4
392.4
392.4
392.4
392.4
392.4
392.4
392.4
392.4
392.4
392.4
392.4
392.4
392.4
392.4
392.4
392.4
392.4
392.4
392.4
392.4
392.4
392.4
392.4
392.4
392.4
392.4
392.4
392.4
392.4
392.4
392.4
392.4
392.4
392.4
392.4
392.4
392.4
392.4
392.4
392.4
392.4
392.4
392.4
392.4
392.4
392.4
392.4
392.4
392.4
392.4
392.4
392.4
392.4
392.4
392.4
392.4
392.4
392.4
392.4
392.4
392.4
392.4
392.4
392.4
392.4
392.4
392.4
392.4
392.4
392.4
392.4
392.4
392.4
392.4
392.4
392.4
392.4
392.4
392.4
392.4
392.4
392.4
392.4
392.4
392.4
392.4
392.4
392.4
392.4
392.4
392.4
392.4
392.4
392.4
392.4
392.4
392.4
392.4
392.4
392.4
392.4
392.4
392.4
392.4
392.4
392.4
392.4
392.4
392.4
392.4
392.4
392.4
392.4
392.4
392.4
392.4
392.4
392.4
392.4
392.4
392.4
392.4
392.4
392.4
)
;
    }
    minZ
    {
        type            calculated;
        value           nonuniform List<scalar> 
150
(
353.32291
274.55587
196.22836
117.6695
39.22545
353.32609
274.52822
196.23634
117.63772
39.229971
353.3212
274.52086
196.25702
117.63226
39.267247
353.33224
274.52395
196.24007
117.6353
39.242776
353.32658
274.49846
196.25275
117.66239
39.211958
353.33455
274.50246
196.26451
117.66723
39.198091
353.34351
274.53107
196.23851
117.68843
39.193078
353.34518
274.54998
196.23621
117.69654
39.19569
353.34834
274.55197
196.23042
117.69744
39.195156
353.3426
274.5359
196.23874
117.68897
39.19512
353.33726
274.52098
196.2428
117.67774
39.199088
353.33359
274.51418
196.23742
117.67517
39.211036
353.32627
274.5168
196.22233
117.67619
39.212394
353.33846
274.54943
196.18822
117.68376
39.20224
353.3399
274.57588
196.19155
117.68474
39.209631
353.3399
274.57588
196.19155
117.68474
39.209631
353.33846
274.54943
196.18823
117.68376
39.20224
353.32627
274.5168
196.22234
117.67619
39.212394
353.33359
274.51417
196.23742
117.67517
39.211039
353.33726
274.52097
196.2428
117.67774
39.19909
353.3426
274.5359
196.23874
117.68897
39.195122
353.34834
274.55196
196.23042
117.69744
39.195156
353.34518
274.54998
196.23621
117.69654
39.195691
353.34351
274.53107
196.23851
117.68843
39.193078
353.33455
274.50247
196.26451
117.66723
39.198092
353.32658
274.49847
196.25275
117.66239
39.211958
353.33224
274.52396
196.24008
117.6353
39.242777
353.3212
274.52087
196.25702
117.63227
39.267248
353.32609
274.52822
196.23635
117.63772
39.229973
353.32291
274.55587
196.22836
117.6695
39.225452
)
;
    }
    maxZ
    {
        type            calculated;
        value           nonuniform List<scalar> 
150
(
353.32291
274.55587
196.22836
117.6695
39.225451
353.32609
274.52822
196.23634
117.63772
39.229971
353.3212
274.52086
196.25702
117.63226
39.267247
353.33224
274.52395
196.24008
117.6353
39.242777
353.32658
274.49846
196.25275
117.66239
39.211958
353.33455
274.50246
196.26451
117.66723
39.198091
353.34351
274.53107
196.23851
117.68843
39.193078
353.34518
274.54998
196.23621
117.69654
39.19569
353.34834
274.55197
196.23042
117.69744
39.195155
353.3426
274.5359
196.23874
117.68897
39.19512
353.33726
274.52098
196.2428
117.67774
39.199089
353.33359
274.51418
196.23742
117.67517
39.211037
353.32627
274.5168
196.22234
117.67619
39.212395
353.33846
274.54943
196.18822
117.68376
39.20224
353.3399
274.57588
196.19155
117.68474
39.209631
353.3399
274.57588
196.19155
117.68474
39.209631
353.33846
274.54943
196.18823
117.68376
39.20224
353.32627
274.5168
196.22234
117.67619
39.212395
353.33359
274.51418
196.23742
117.67517
39.211038
353.33726
274.52098
196.2428
117.67774
39.199089
353.3426
274.5359
196.23874
117.68897
39.19512
353.34834
274.55197
196.23042
117.69744
39.195154
353.34518
274.54998
196.23621
117.69654
39.195688
353.34351
274.53107
196.23851
117.68843
39.193076
353.33455
274.50247
196.26451
117.66724
39.198091
353.32658
274.49847
196.25275
117.66239
39.211958
353.33224
274.52396
196.24007
117.63531
39.242777
353.32121
274.52087
196.25702
117.63227
39.267248
353.32609
274.52822
196.23635
117.63772
39.229973
353.32291
274.55587
196.22836
117.6695
39.225453
)
;
    }
    bottomWater_to_rightSolid
    {
        type            calculated;
        value           nonuniform List<scalar> 
130
(
-0.027605502
-0.028961321
-0.040909532
-0.044878338
-0.044844377
-0.044309078
-0.046922128
-0.041908189
-0.028041745
0.0027774734
0.027248253
-0.010027442
-0.014547716
-0.025364691
-0.023887212
-0.041331957
-0.056764795
-0.062814339
-0.05969515
-0.053687224
-0.033908142
-0.014135225
-0.028919328
-0.024904319
-0.031509682
-0.017744299
0.0048936366
0.049391996
0.059442508
0.029235203
-0.0053515454
0.0050450537
0.027496534
0.049556534
0.044072101
0.0036166382
-0.010992244
-0.024482792
-0.024832135
-0.015430624
0.0011601332
0.021382159
0.044213835
-0.0065715637
-0.054287139
-0.042967178
-0.0096484059
0.033559891
0.017638759
-0.010251565
-0.023476347
-0.028252911
-0.016248655
-0.017830482
-0.0082241916
0.0060592783
0.015566738
-0.021487789
-0.033116328
-0.034978965
0.0059809319
0.022319771
-0.015074765
-0.020758705
-0.026913851
-0.016248669
-0.017830727
-0.0082248229
0.0060585019
0.015566237
-0.021488656
-0.033117521
-0.034978438
0.0059816263
0.022320404
-0.015074397
-0.020758525
-0.026913702
-0.015430999
0.001159394
0.021381153
0.044213281
-0.0065740282
-0.054290303
-0.042968202
-0.0096469889
0.033561299
0.017639846
-0.010251009
-0.023476101
-0.028252722
0.0048918946
0.049390031
0.059441371
0.02923301
-0.0053582763
0.0050305514
0.027490839
0.049555226
0.044072978
0.0036171781
-0.010991934
-0.024482555
-0.024831906
-0.025364896
-0.023887746
-0.041332729
-0.056766699
-0.062818099
-0.059699533
-0.053690057
-0.033910472
-0.014136043
-0.028919599
-0.024903884
-0.031509064
-0.01774368
-0.027605361
-0.028961859
-0.040910529
-0.044880278
-0.044845885
-0.044312183
-0.046924001
-0.041908955
-0.028041782
0.0027767467
0.02724849
-0.010026871
-0.014547246
)
;
    }
    bottomWater_to_leftSolid
    {
        type            calculated;
        value           nonuniform List<scalar> 
130
(
-0.014549582
-0.010029171
0.027246616
0.0027763733
-0.028042343
-0.041908555
-0.04692155
-0.044309569
-0.044844418
-0.044880135
-0.040911573
-0.028963743
-0.02760556
-0.017745791
-0.031511221
-0.024906086
-0.028921086
-0.014137753
-0.03390973
-0.053685619
-0.059689987
-0.062811899
-0.0567659
-0.041334793
-0.023891899
-0.025366252
-0.024833377
-0.024483848
-0.010993509
0.0036158214
0.044071222
0.049554272
0.027503225
0.0050660202
-0.0053391372
0.029234882
0.059439464
0.049389059
0.0048914464
-0.028253598
-0.023477075
-0.010252067
0.017639562
0.033561206
-0.0096471474
-0.042960952
-0.054274583
-0.0065693716
0.0442123
0.021381599
0.0011615008
-0.015432249
-0.026914094
-0.020759094
-0.015075395
0.022319788
0.0059800684
-0.034976803
-0.033119456
-0.021489419
0.015567682
0.0060521376
-0.0082376473
-0.017834524
-0.016251445
-0.026913901
-0.020758854
-0.015074944
0.022320222
0.0059808001
-0.034976754
-0.033118855
-0.021490555
0.015566973
0.0060539444
-0.008234928
-0.017834462
-0.016251151
-0.028253146
-0.023476472
-0.010251165
0.017640756
0.033562799
-0.0096456104
-0.042962164
-0.054275948
-0.0065676372
0.044213382
0.021380844
0.0011601556
-0.015431885
-0.024832746
-0.02448314
-0.010992516
0.003617396
0.044073437
0.049556721
0.02750013
0.005053177
-0.0053459326
0.029234486
0.059439719
0.049388405
0.0048905274
-0.017745127
-0.031510442
-0.024905113
-0.028919997
-0.014137023
-0.033909778
-0.053686487
-0.059693271
-0.062813652
-0.056765634
-0.041333806
-0.023890011
-0.025365461
-0.014548995
-0.010028551
0.0272472
0.0027772679
-0.028041903
-0.04190863
-0.04692222
-0.044309678
-0.04484476
-0.044879541
-0.040910757
-0.028962611
-0.027605452
)
;
    }
    bottomWater_to_heater
    {
        type            calculated;
        value           nonuniform List<scalar> 
92
(
-0.037760343
-0.030368735
-0.030368618
-0.037759835
-0.022053726
-0.019821485
-0.019821631
-0.02205221
-0.021581381
-0.023095593
-0.023095336
-0.021580954
353.33995
353.33661
353.33661
353.33995
274.52612
274.53983
274.53983
274.52612
196.22796
196.23005
196.23005
196.22796
117.65463
117.68282
117.68282
117.65463
-0.033219468
39.206781
-0.032404784
39.207595
-0.032404123
39.207596
-0.033217858
39.206782
353.35524
353.35524
274.52449
274.52449
196.23521
196.23521
117.69026
117.69026
39.223749
39.223751
353.35524
353.33995
353.33661
353.33661
353.35524
353.33995
274.52449
274.52612
274.53983
274.53983
274.52449
274.52612
196.23521
196.22796
196.23005
196.23005
196.23521
196.22796
117.69026
117.65463
117.68282
117.68283
117.69026
117.65463
39.223749
39.206781
39.207595
39.207596
39.223751
39.206782
-0.033218895
-0.032404685
-0.032404207
-0.033218016
-0.021581244
-0.023095653
-0.023095528
-0.021581042
-0.022052849
-0.019821166
-0.019821488
-0.022052412
-0.037760138
-0.03036884
-0.030368866
-0.037759898
)
;
    }
}


// ************************************************************************* //
