/*--------------------------------*- C++ -*----------------------------------*\
| =========                 |                                                 |
| \\      /  F ield         | OpenFOAM: The Open Source CFD Toolbox           |
|  \\    /   O peration     | Version:  v2012                                 |
|   \\  /    A nd           | Website:  www.openfoam.com                      |
|    \\/     M anipulation  |                                                 |
\*---------------------------------------------------------------------------*/
FoamFile
{
    version     2.0;
    format      ascii;
    class       volScalarField;
    location    "10/bottomWater";
    object      p_rgh;
}
// * * * * * * * * * * * * * * * * * * * * * * * * * * * * * * * * * * * * * //

dimensions      [1 -1 -2 0 0 0 0];


internalField   nonuniform List<scalar> 
1460
(
0.16290755
0.16608906
0.16120435
0.17224447
0.16658021
0.17455107
0.18350993
0.18517824
0.18834248
0.18260003
0.17725607
0.17359148
0.16626522
0.17845557
0.17990085
0.17990107
0.17845557
0.16626558
0.17359198
0.1772564
0.18260058
0.18834304
0.18517911
0.18351075
0.17455044
0.1665788
0.17224027
0.16120337
0.16608922
0.16290794
-0.12412678
-0.15178384
-0.15913738
-0.15605411
-0.1815388
-0.17753673
-0.14893039
-0.13001843
-0.12803483
-0.14410277
-0.15902483
-0.1658249
-0.16319637
-0.13056834
-0.10412271
-0.10412229
-0.13056917
-0.16319708
-0.16582516
-0.15902579
-0.14410362
-0.12803521
-0.13001679
-0.1489263
-0.17753439
-0.18153436
-0.15604362
-0.15913388
-0.15178204
-0.12412533
0.02835547
0.036343608
0.057017358
0.040072896
0.052750212
0.064505366
0.038505436
0.036206525
0.030418774
0.038736044
0.042800641
0.037422188
0.02233454
-0.011776429
-0.0084493942
-0.0084506754
-0.011774762
0.022337104
0.037423968
0.04280333
0.038738411
0.030421231
0.036209552
0.038507715
0.064509637
0.052753072
0.04008122
0.057020171
0.036345833
0.028357087
-0.050504713
-0.082283495
-0.087736194
-0.084697304
-0.057613835
-0.052765707
-0.031566293
-0.02345999
-0.022556061
-0.031033068
-0.042256104
-0.044833814
-0.043807504
-0.036243624
-0.035258553
-0.035258123
-0.03624332
-0.043806368
-0.044834079
-0.042255225
-0.031031742
-0.022555159
-0.023459772
-0.031565433
-0.052766448
-0.057609817
-0.084695311
-0.087733372
-0.082281145
-0.050502637
-0.014549582
-0.010029171
0.027246616
0.0027763733
-0.028042343
-0.041908555
-0.04692155
-0.044309569
-0.044844418
-0.044880135
-0.040911573
-0.028963743
-0.02760556
-0.037760343
-0.030368735
-0.030368618
-0.037759835
-0.027605502
-0.028961321
-0.040909532
-0.044878338
-0.044844377
-0.044309078
-0.046922128
-0.041908189
-0.028041745
0.0027774734
0.027248253
-0.010027442
-0.014547716
0.16044458
0.15688199
0.16421558
0.17522105
0.17535522
0.17914009
0.18137157
0.18266238
0.18557603
0.18251623
0.1792494
0.17648594
0.1717872
0.16808775
0.16673408
0.1667342
0.16808826
0.1717879
0.17648671
0.17924994
0.18251545
0.18557689
0.18266452
0.18137221
0.17914006
0.17535489
0.17522102
0.16421588
0.15688222
0.16044483
-0.12367153
-0.17282572
-0.18124613
-0.19072527
-0.19137981
-0.19700944
-0.19575822
-0.19354452
-0.19317386
-0.19568791
-0.19673791
-0.19461219
-0.19478352
-0.19192311
-0.18806601
-0.1880661
-0.19192276
-0.19478363
-0.19461155
-0.19673802
-0.19569275
-0.19317098
-0.19353625
-0.19575287
-0.19700789
-0.19137785
-0.19072256
-0.18124437
-0.17282442
-0.1236706
0.0063015885
0.019919035
0.039412357
0.054527743
0.052972311
0.051569458
0.052832362
0.0638577
0.059524409
0.053077097
0.050319811
0.055138251
0.050082924
0.041461666
0.039135906
0.039136018
0.041462415
0.050083628
0.055139643
0.050322525
0.053086352
0.05953063
0.06386415
0.052834879
0.051570259
0.052973879
0.054530265
0.039414176
0.019920771
0.0063029795
-0.045054588
-0.044812057
-0.024181023
-0.035569298
-0.05959096
-0.060267428
-0.055932991
-0.043837133
-0.041302358
-0.058061264
-0.060269923
-0.055825784
-0.040605562
-0.043659056
-0.045531676
-0.045530963
-0.043659639
-0.040605014
-0.055825343
-0.060266874
-0.058055645
-0.041301183
-0.043842132
-0.055938311
-0.060266609
-0.059590227
-0.035567711
-0.024179378
-0.04481067
-0.045052878
-0.017745791
-0.031511221
-0.024906086
-0.028921086
-0.014137753
-0.03390973
-0.053685619
-0.059689987
-0.062811899
-0.0567659
-0.041334793
-0.023891899
-0.025366252
-0.022053726
-0.019821485
-0.019821631
-0.02205221
-0.025364691
-0.023887212
-0.041331957
-0.056764795
-0.062814339
-0.05969515
-0.053687224
-0.033908142
-0.014135225
-0.028919328
-0.024904319
-0.031509682
-0.017744299
0.16714154
0.16655749
0.1717403
0.17870031
0.1722873
0.18163852
0.18100621
0.18244923
0.18600586
0.1805051
0.18233604
0.18040125
0.17595557
0.17178378
0.16976985
0.16976992
0.17178382
0.17595612
0.18040186
0.18233607
0.18049422
0.18600721
0.18245119
0.18100796
0.18163731
0.17228611
0.17869991
0.1717405
0.16655767
0.1671418
-0.13702534
-0.17447299
-0.18680604
-0.19078426
-0.18907657
-0.17430447
-0.17479484
-0.17452171
-0.18142261
-0.18458008
-0.18344762
-0.18283439
-0.187935
-0.19248996
-0.18542217
-0.18542217
-0.19248924
-0.18793378
-0.18283246
-0.18343886
-0.18463817
-0.18140715
-0.17450475
-0.17478937
-0.17430841
-0.18907972
-0.19078462
-0.18680529
-0.17447233
-0.13702463
0.02990055
0.043546911
0.053676624
0.072454491
0.054410337
0.061624892
0.072369165
0.071965202
0.068108339
0.075240405
0.070068057
0.071722863
0.065790926
0.056764823
0.062252398
0.06225273
0.056764919
0.065791627
0.071722597
0.070062162
0.075306014
0.068113266
0.072015424
0.072378808
0.061621068
0.054412661
0.072457087
0.053677794
0.043548202
0.029901384
-0.028649324
-0.053477342
-0.030386623
-0.083565258
-0.098765691
-0.10534896
-0.12278044
-0.10425942
-0.10145894
-0.12102907
-0.10053097
-0.0980751
-0.07859066
-0.050396876
-0.036856341
-0.036856308
-0.050397365
-0.078590607
-0.098072806
-0.10052514
-0.12101432
-0.10146779
-0.10431544
-0.12278424
-0.10533642
-0.098764163
-0.083563205
-0.03038493
-0.053476205
-0.028647957
-0.024833377
-0.024483848
-0.010993509
0.0036158214
0.044071222
0.049554272
0.027503225
0.0050660202
-0.0053391372
0.029234882
0.059439464
0.049389059
0.0048914464
-0.021581381
-0.023095593
-0.023095336
-0.021580954
0.0048936366
0.049391996
0.059442508
0.029235203
-0.0053515454
0.0050450537
0.027496534
0.049556534
0.044072101
0.0036166382
-0.010992244
-0.024482792
-0.024832135
0.17292943
0.17572072
0.18505341
0.19075074
0.21460301
0.21493259
0.21066548
0.19560521
0.22807357
0.21497495
0.19743404
0.19266077
0.1870278
0.17994857
0.17661255
0.1766127
0.17994981
0.18702946
0.19266215
0.1974343
0.21497549
0.22807155
0.19560889
0.21066632
0.21493442
0.21460304
0.19075095
0.18505385
0.17572122
0.17292995
-0.14422378
-0.17521009
-0.20018599
-0.19707862
-0.14807486
-0.14725805
-0.17704169
-0.20526295
-0.13879823
-0.16464708
-0.20415663
-0.20118154
-0.17677292
-0.1538835
-0.14017112
-0.14017087
-0.15388176
-0.17677345
-0.20118369
-0.20415867
-0.16465236
-0.13879911
-0.205265
-0.17704122
-0.14725813
-0.14807539
-0.19707904
-0.20018593
-0.17520979
-0.14422342
0.018606176
0.024724684
0.024271624
0.035541014
-0.017885652
0.0018349682
0.030938399
0.083873892
-0.010283863
-0.0061690893
0.037037859
0.046042139
0.037494388
0.027960667
0.030050225
0.030050765
0.027958259
0.03749262
0.046039144
0.037038744
-0.0061686736
-0.010277676
0.083869772
0.03094125
0.0018330383
-0.01788616
0.035541052
0.024271868
0.024724692
0.018606321
-0.034721599
-0.070124047
-0.028078283
-0.092203045
-0.076824727
-0.092514048
-0.047504747
-0.052828099
-0.10574427
-0.09084851
-0.080747877
-0.049157317
-0.088536889
-0.065372253
-0.037175585
-0.037175127
-0.065367573
-0.0885337
-0.049148694
-0.080744167
-0.090836894
-0.10574575
-0.052837858
-0.047509345
-0.092513309
-0.076822845
-0.092202074
-0.02807647
-0.070123464
-0.034719972
-0.028253598
-0.023477075
-0.010252067
0.017639562
0.033561206
-0.0096471474
-0.042960952
-0.054274583
-0.0065693716
0.0442123
0.021381599
0.0011615008
-0.015432249
-0.033219468
-0.032404784
-0.032404123
-0.033217858
-0.015430624
0.0011601332
0.021382159
0.044213835
-0.0065715637
-0.054287139
-0.042967178
-0.0096484059
0.033559891
0.017638759
-0.010251565
-0.023476347
-0.028252911
0.17628893
0.1776837
0.18539993
0.18629849
0.21191349
0.19570267
0.21734698
0.19374432
0.23030971
0.20674664
0.20464832
0.19399447
0.19523925
0.19523977
0.19399516
0.20464843
0.2067471
0.23030734
0.19374502
0.21734757
0.19570375
0.21191508
0.18629903
0.18540069
0.17768433
0.17628947
-0.14209152
-0.17575065
-0.20209424
-0.18107825
-0.17482789
-0.22869957
-0.22869991
-0.22948027
-0.16788361
-0.21110462
-0.21078294
-0.1905885
-0.15550874
-0.15550897
-0.19058954
-0.21078393
-0.21110404
-0.16788547
-0.22948314
-0.2286994
-0.22870097
-0.17482734
-0.18107896
-0.20209462
-0.17575054
-0.14209149
0.019502667
0.032548693
0.015235936
0.071456841
-0.0031628038
0.082829635
0.099184425
0.063271931
-0.020687212
0.08083964
0.037411182
0.061687722
0.03521379
0.035213559
0.06168721
0.037408166
0.080839766
-0.020683934
0.063278776
0.099186239
0.082828536
-0.0031643576
0.071456455
0.015235815
0.032548616
0.019502931
-0.028033243
-0.063359141
-0.022753483
-0.10035269
-0.072969191
-0.050178583
0.0059577951
-0.058516938
-0.079643828
-0.060112709
-0.034789575
-0.058019877
-0.02973902
-0.02973879
-0.058020864
-0.034795709
-0.060114437
-0.079640657
-0.058509881
0.0059619128
-0.050180258
-0.072967675
-0.10035178
-0.022752554
-0.063359645
-0.028032751
-0.026914094
-0.020759094
-0.015075395
0.022319788
0.0059800684
-0.034976803
-0.033119456
-0.021489419
0.015567682
0.0060521376
-0.0082376473
-0.017834524
-0.016251445
-0.016248655
-0.017830482
-0.0082241916
0.0060592783
0.015566738
-0.021487789
-0.033116328
-0.034978965
0.0059809319
0.022319771
-0.015074765
-0.020758705
-0.026913851
0.176289
0.1776838
0.18540008
0.1862986
0.21191389
0.19570263
0.21734725
0.19374391
0.23030874
0.20674667
0.20464826
0.19399459
0.19523942
0.19524005
0.19399547
0.20464889
0.20674765
0.23030747
0.19374417
0.21734852
0.19570414
0.21191528
0.18629911
0.18540072
0.17768422
0.1762894
-0.14209145
-0.17575053
-0.20209413
-0.18107815
-0.17482728
-0.22869959
-0.22869914
-0.22947985
-0.1678848
-0.21110433
-0.21078305
-0.19058888
-0.15550868
-0.15550884
-0.19058951
-0.21078375
-0.21110383
-0.16788562
-0.22948027
-0.22869836
-0.22870009
-0.17482716
-0.18107891
-0.20209448
-0.17575048
-0.14209143
0.019502812
0.032548915
0.015236163
0.07145701
-0.0031625111
0.082828723
0.099184278
0.063272557
-0.020686588
0.080839881
0.037410393
0.061689114
0.035214358
0.035213727
0.06168717
0.037407971
0.080839016
-0.020686369
0.063275209
0.099185457
0.082828524
-0.0031640284
0.071456938
0.015236024
0.032548653
0.019503067
-0.028033085
-0.063358936
-0.022753056
-0.10035208
-0.072968235
-0.050178891
0.0059586211
-0.058515823
-0.079643409
-0.060114217
-0.034791624
-0.05802091
-0.029738781
-0.029738173
-0.058020673
-0.034795217
-0.060114275
-0.079640643
-0.058509633
0.0059610484
-0.050179937
-0.07296738
-0.10035127
-0.022752729
-0.063359788
-0.02803307
-0.026913901
-0.020758854
-0.015074944
0.022320222
0.0059808001
-0.034976754
-0.033118855
-0.021490555
0.015566973
0.0060539444
-0.008234928
-0.017834462
-0.016251151
-0.016248669
-0.017830727
-0.0082248229
0.0060585019
0.015566237
-0.021488656
-0.033117521
-0.034978438
0.0059816263
0.022320404
-0.015074397
-0.020758525
-0.026913702
0.17292948
0.17572069
0.18505332
0.19075052
0.21460269
0.21493223
0.21066536
0.19560274
0.22807067
0.2149749
0.197434
0.19266128
0.18702849
0.17994906
0.17661267
0.17661284
0.17994996
0.18702961
0.19266228
0.19743466
0.21497423
0.22807125
0.19560226
0.21067029
0.2149347
0.21460335
0.19075101
0.18505374
0.17572104
0.17292979
-0.14422356
-0.1752098
-0.20018553
-0.19707796
-0.14807378
-0.14725871
-0.17703979
-0.20526226
-0.13880031
-0.1646488
-0.20415626
-0.20118183
-0.17677285
-0.15388292
-0.14017188
-0.14017119
-0.15388107
-0.17677357
-0.20118332
-0.20415777
-0.16465201
-0.138799
-0.20526366
-0.1770309
-0.14725518
-0.1480744
-0.19707875
-0.20018573
-0.17520963
-0.14422338
0.018606545
0.024725172
0.024272436
0.035543308
-0.017880615
0.0018338054
0.030942168
0.083874199
-0.010279436
-0.0061680538
0.037038206
0.046040131
0.037493303
0.027959962
0.030050663
0.030050896
0.027957576
0.037491665
0.0460386
0.037038231
-0.006166982
-0.01028194
0.083878568
0.030939611
0.0018338261
-0.017884776
0.035541534
0.024272151
0.02472479
0.018606366
-0.034721172
-0.070123567
-0.028077405
-0.092202036
-0.07682197
-0.09251236
-0.04750647
-0.052834486
-0.10574684
-0.090841344
-0.080747728
-0.049153166
-0.088536023
-0.065370058
-0.037175396
-0.037174864
-0.065366985
-0.088533648
-0.049148703
-0.080744667
-0.090837143
-0.10574716
-0.052843309
-0.047510774
-0.092510739
-0.076820885
-0.092201423
-0.028076493
-0.07012361
-0.034720296
-0.028253146
-0.023476472
-0.010251165
0.017640756
0.033562799
-0.0096456104
-0.042962164
-0.054275948
-0.0065676372
0.044213382
0.021380844
0.0011601556
-0.015431885
-0.033218895
-0.032404685
-0.032404207
-0.033218016
-0.015430999
0.001159394
0.021381153
0.044213281
-0.0065740282
-0.054290303
-0.042968202
-0.0096469889
0.033561299
0.017639846
-0.010251009
-0.023476101
-0.028252722
0.16714164
0.16655752
0.17174027
0.17869961
0.17228589
0.18163751
0.18100783
0.18245126
0.18600704
0.18049784
0.18233703
0.180402
0.17595591
0.171784
0.16977015
0.16977014
0.17178387
0.17595612
0.18040226
0.18233651
0.18049273
0.18600834
0.18245403
0.18100938
0.1816368
0.17228498
0.17869991
0.17174023
0.16655757
0.16714171
-0.13702512
-0.17447289
-0.18680604
-0.19078548
-0.18908433
-0.17430859
-0.17479213
-0.17451277
-0.1814135
-0.18462046
-0.1834368
-0.18283252
-0.18793513
-0.19248976
-0.18542262
-0.1854224
-0.19248927
-0.18793472
-0.18283247
-0.18343717
-0.18464808
-0.18139952
-0.17449754
-0.17478668
-0.17431109
-0.18908706
-0.19078573
-0.18680555
-0.17447229
-0.13702461
0.029901048
0.043547678
0.053677528
0.072457025
0.054414144
0.061620122
0.072372782
0.071991298
0.068109874
0.075285546
0.070061212
0.071722237
0.065791206
0.056764955
0.062252279
0.062252606
0.056764777
0.065791484
0.071722102
0.070059708
0.075316277
0.068109538
0.072031561
0.072377791
0.061618584
0.054414632
0.072457728
0.053677815
0.043548166
0.029901264
-0.028648695
-0.053476587
-0.030385555
-0.083563325
-0.098761461
-0.10533996
-0.12278455
-0.1042923
-0.10146451
-0.12101953
-0.10053008
-0.098074916
-0.078588182
-0.050395741
-0.036855391
-0.036855685
-0.050396368
-0.078588077
-0.098072767
-0.1005241
-0.12101385
-0.10147599
-0.10434789
-0.12278798
-0.10533334
-0.098759392
-0.083562047
-0.030384173
-0.053475889
-0.028647573
-0.024832746
-0.02448314
-0.010992516
0.003617396
0.044073437
0.049556721
0.02750013
0.005053177
-0.0053459326
0.029234486
0.059439719
0.049388405
0.0048905274
-0.021581244
-0.023095653
-0.023095528
-0.021581042
0.0048918946
0.049390031
0.059441371
0.02923301
-0.0053582763
0.0050305514
0.027490839
0.049555226
0.044072978
0.0036171781
-0.010991934
-0.024482555
-0.024831906
0.16044468
0.15688205
0.16421562
0.17522071
0.17535505
0.17913991
0.181372
0.18266344
0.18557643
0.18251554
0.17924987
0.1764865
0.17178765
0.16808806
0.16673428
0.16673438
0.16808849
0.17178812
0.17648691
0.17925008
0.1825153
0.18557742
0.18266481
0.18137283
0.17914043
0.1753548
0.17522137
0.16421579
0.15688225
0.16044471
-0.12367142
-0.17282571
-0.18124616
-0.19072541
-0.19138064
-0.19700982
-0.19575538
-0.19353954
-0.19317207
-0.19569085
-0.19673702
-0.19461145
-0.19478335
-0.19192286
-0.18806593
-0.18806598
-0.19192279
-0.19478375
-0.19461136
-0.19673748
-0.1956922
-0.19316822
-0.19353008
-0.19575042
-0.1970084
-0.19137876
-0.19072331
-0.18124399
-0.172824
-0.12367052
0.0063020013
0.019919359
0.039412846
0.054528799
0.052973229
0.05156976
0.052834146
0.063862947
0.059528435
0.053082991
0.050320428
0.055138711
0.050083174
0.041461932
0.039136082
0.039136154
0.041462266
0.050083383
0.055139282
0.050321978
0.053087297
0.059531251
0.063869042
0.052835689
0.05157021
0.052973937
0.05452915
0.03941444
0.01992018
0.0063029962
-0.04505415
-0.044811387
-0.024180287
-0.035568111
-0.059589547
-0.060266113
-0.055936851
-0.043840296
-0.041302062
-0.058058114
-0.060268488
-0.055825367
-0.040605148
-0.043659984
-0.045532001
-0.045531392
-0.043659745
-0.040604802
-0.055825648
-0.06026753
-0.058057952
-0.04130407
-0.043848236
-0.055939424
-0.060264361
-0.059588815
-0.035566441
-0.024178292
-0.04480919
-0.045052347
-0.017745127
-0.031510442
-0.024905113
-0.028919997
-0.014137023
-0.033909778
-0.053686487
-0.059693271
-0.062813652
-0.056765634
-0.041333806
-0.023890011
-0.025365461
-0.022052849
-0.019821166
-0.019821488
-0.022052412
-0.025364896
-0.023887746
-0.041332729
-0.056766699
-0.062818099
-0.059699533
-0.053690057
-0.033910472
-0.014136043
-0.028919599
-0.024903884
-0.031509064
-0.01774368
0.16290777
0.16608918
0.16120413
0.17224484
0.16658029
0.17455094
0.1835107
0.18517871
0.1883432
0.18260062
0.17725679
0.17359206
0.16626567
0.1784559
0.17990096
0.17990114
0.17845583
0.16626589
0.17359218
0.17725675
0.18260067
0.18834321
0.18517976
0.18351094
0.17455153
0.16657865
0.17223868
0.1612058
0.16608944
0.16290758
-0.12412664
-0.15178393
-0.1591378
-0.15605474
-0.18153867
-0.17753657
-0.14892901
-0.13001804
-0.12803449
-0.14410216
-0.15902405
-0.16582485
-0.16319628
-0.13056865
-0.10412332
-0.10412305
-0.13056891
-0.16319674
-0.16582485
-0.15902481
-0.14410304
-0.12803432
-0.13001557
-0.14892704
-0.17753484
-0.18153493
-0.15603999
-0.15913092
-0.15178081
-0.12412534
0.028355986
0.036344258
0.057017795
0.040075324
0.052750825
0.064507402
0.03850675
0.036207957
0.030420015
0.03873672
0.042800404
0.037422224
0.022335216
-0.011775132
-0.0084489545
-0.0084494622
-0.011774765
0.022336119
0.037423118
0.042802063
0.038738497
0.030420656
0.036209711
0.038507916
0.064508014
0.052752592
0.040072953
0.057021081
0.036345312
0.028356997
-0.050504365
-0.082283225
-0.087735976
-0.084697639
-0.057613815
-0.052766015
-0.031566783
-0.023460404
-0.022555648
-0.03103234
-0.042255601
-0.044833848
-0.043807078
-0.036243368
-0.035258247
-0.035258018
-0.036243444
-0.043806799
-0.044834451
-0.042255801
-0.031032448
-0.022556213
-0.023460915
-0.031566224
-0.052764818
-0.057609711
-0.084691753
-0.087732212
-0.082279835
-0.050501929
-0.014548995
-0.010028551
0.0272472
0.0027772679
-0.028041903
-0.04190863
-0.04692222
-0.044309678
-0.04484476
-0.044879541
-0.040910757
-0.028962611
-0.027605452
-0.037760138
-0.03036884
-0.030368866
-0.037759898
-0.027605361
-0.028961859
-0.040910529
-0.044880278
-0.044845885
-0.044312183
-0.046924001
-0.041908955
-0.028041782
0.0027767467
0.02724849
-0.010026871
-0.014547246
)
;

boundaryField
{
    minX
    {
        type            fixedFluxPressure;
        gradient        uniform 0;
        value           nonuniform List<scalar> 
50
(
0.16290755
-0.12412678
0.02835547
-0.050504713
-0.014549582
0.16044458
-0.12367153
0.0063015885
-0.045054588
-0.017745791
0.16714154
-0.13702534
0.02990055
-0.028649324
-0.024833377
0.17292943
-0.14422378
0.018606176
-0.034721599
-0.028253598
0.17628893
-0.14209152
0.019502667
-0.028033243
-0.026914094
0.176289
-0.14209145
0.019502812
-0.028033085
-0.026913901
0.17292948
-0.14422356
0.018606545
-0.034721172
-0.028253146
0.16714164
-0.13702512
0.029901048
-0.028648695
-0.024832746
0.16044468
-0.12367142
0.0063020013
-0.04505415
-0.017745127
0.16290777
-0.12412664
0.028355986
-0.050504365
-0.014548995
)
;
    }
    maxX
    {
        type            fixedFluxPressure;
        gradient        uniform 0;
        value           nonuniform List<scalar> 
50
(
0.16290794
-0.12412533
0.028357087
-0.050502637
-0.014547716
0.16044483
-0.1236706
0.0063029795
-0.045052878
-0.017744299
0.1671418
-0.13702463
0.029901384
-0.028647957
-0.024832135
0.17292995
-0.14422342
0.018606321
-0.034719972
-0.028252911
0.17628947
-0.14209149
0.019502931
-0.028032751
-0.026913851
0.1762894
-0.14209143
0.019503067
-0.02803307
-0.026913702
0.17292979
-0.14422338
0.018606366
-0.034720296
-0.028252722
0.16714171
-0.13702461
0.029901264
-0.028647573
-0.024831906
0.16044471
-0.12367052
0.0063029962
-0.045052347
-0.01774368
0.16290758
-0.12412534
0.028356997
-0.050501929
-0.014547246
)
;
    }
    minY
    {
        type            fixedValue;
        value           uniform 0;
    }
    minZ
    {
        type            fixedFluxPressure;
        gradient        uniform 0;
        value           nonuniform List<scalar> 
150
(
0.16290755
-0.12412678
0.02835547
-0.050504713
-0.014549582
0.16608906
-0.15178384
0.036343608
-0.082283495
-0.010029171
0.16120435
-0.15913738
0.057017358
-0.087736194
0.027246616
0.17224447
-0.15605411
0.040072896
-0.084697304
0.0027763733
0.16658021
-0.1815388
0.052750212
-0.057613835
-0.028042343
0.17455107
-0.17753673
0.064505366
-0.052765707
-0.041908555
0.18350993
-0.14893039
0.038505436
-0.031566293
-0.04692155
0.18517824
-0.13001843
0.036206525
-0.02345999
-0.044309569
0.18834248
-0.12803483
0.030418774
-0.022556061
-0.044844418
0.18260003
-0.14410277
0.038736044
-0.031033068
-0.044880135
0.17725607
-0.15902483
0.042800641
-0.042256104
-0.040911573
0.17359148
-0.1658249
0.037422188
-0.044833814
-0.028963743
0.16626522
-0.16319637
0.02233454
-0.043807504
-0.02760556
0.17845557
-0.13056834
-0.011776429
-0.036243624
-0.037760343
0.17990085
-0.10412271
-0.0084493942
-0.035258553
-0.030368735
0.17990107
-0.10412229
-0.0084506754
-0.035258123
-0.030368618
0.17845557
-0.13056917
-0.011774762
-0.03624332
-0.037759835
0.16626558
-0.16319708
0.022337104
-0.043806368
-0.027605502
0.17359198
-0.16582516
0.037423968
-0.044834079
-0.028961321
0.1772564
-0.15902579
0.04280333
-0.042255225
-0.040909532
0.18260058
-0.14410362
0.038738411
-0.031031742
-0.044878338
0.18834304
-0.12803521
0.030421231
-0.022555159
-0.044844377
0.18517911
-0.13001679
0.036209552
-0.023459772
-0.044309078
0.18351075
-0.1489263
0.038507715
-0.031565433
-0.046922128
0.17455044
-0.17753439
0.064509637
-0.052766448
-0.041908189
0.1665788
-0.18153436
0.052753072
-0.057609817
-0.028041745
0.17224027
-0.15604362
0.04008122
-0.084695311
0.0027774734
0.16120337
-0.15913388
0.057020171
-0.087733372
0.027248253
0.16608922
-0.15178204
0.036345833
-0.082281145
-0.010027442
0.16290794
-0.12412533
0.028357087
-0.050502637
-0.014547716
)
;
    }
    maxZ
    {
        type            fixedFluxPressure;
        gradient        uniform 0;
        value           nonuniform List<scalar> 
150
(
0.16290777
-0.12412664
0.028355986
-0.050504365
-0.014548995
0.16608918
-0.15178393
0.036344258
-0.082283225
-0.010028551
0.16120413
-0.1591378
0.057017795
-0.087735976
0.0272472
0.17224484
-0.15605474
0.040075324
-0.084697639
0.0027772679
0.16658029
-0.18153867
0.052750825
-0.057613815
-0.028041903
0.17455094
-0.17753657
0.064507402
-0.052766015
-0.04190863
0.1835107
-0.14892901
0.03850675
-0.031566783
-0.04692222
0.18517871
-0.13001804
0.036207957
-0.023460404
-0.044309678
0.1883432
-0.12803449
0.030420015
-0.022555648
-0.04484476
0.18260062
-0.14410216
0.03873672
-0.03103234
-0.044879541
0.17725679
-0.15902405
0.042800404
-0.042255601
-0.040910757
0.17359206
-0.16582485
0.037422224
-0.044833848
-0.028962611
0.16626567
-0.16319628
0.022335216
-0.043807078
-0.027605452
0.1784559
-0.13056865
-0.011775132
-0.036243368
-0.037760138
0.17990096
-0.10412332
-0.0084489545
-0.035258247
-0.03036884
0.17990114
-0.10412305
-0.0084494622
-0.035258018
-0.030368866
0.17845583
-0.13056891
-0.011774765
-0.036243444
-0.037759898
0.16626589
-0.16319674
0.022336119
-0.043806799
-0.027605361
0.17359218
-0.16582485
0.037423118
-0.044834451
-0.028961859
0.17725675
-0.15902481
0.042802063
-0.042255801
-0.040910529
0.18260067
-0.14410304
0.038738497
-0.031032448
-0.044880278
0.18834321
-0.12803432
0.030420656
-0.022556213
-0.044845885
0.18517976
-0.13001557
0.036209711
-0.023460915
-0.044312183
0.18351094
-0.14892704
0.038507916
-0.031566224
-0.046924001
0.17455153
-0.17753484
0.064508014
-0.052764818
-0.041908955
0.16657865
-0.18153493
0.052752592
-0.057609711
-0.028041782
0.17223868
-0.15603999
0.040072953
-0.084691753
0.0027767467
0.1612058
-0.15913092
0.057021081
-0.087732212
0.02724849
0.16608944
-0.15178081
0.036345312
-0.082279835
-0.010026871
0.16290758
-0.12412534
0.028356997
-0.050501929
-0.014547246
)
;
    }
    bottomWater_to_rightSolid
    {
        type            fixedFluxPressure;
        gradient        uniform 0;
        value           nonuniform List<scalar> 
130
(
-0.027605502
-0.028961321
-0.040909532
-0.044878338
-0.044844377
-0.044309078
-0.046922128
-0.041908189
-0.028041745
0.0027774734
0.027248253
-0.010027442
-0.014547716
-0.025364691
-0.023887212
-0.041331957
-0.056764795
-0.062814339
-0.05969515
-0.053687224
-0.033908142
-0.014135225
-0.028919328
-0.024904319
-0.031509682
-0.017744299
0.0048936366
0.049391996
0.059442508
0.029235203
-0.0053515454
0.0050450537
0.027496534
0.049556534
0.044072101
0.0036166382
-0.010992244
-0.024482792
-0.024832135
-0.015430624
0.0011601332
0.021382159
0.044213835
-0.0065715637
-0.054287139
-0.042967178
-0.0096484059
0.033559891
0.017638759
-0.010251565
-0.023476347
-0.028252911
-0.016248655
-0.017830482
-0.0082241916
0.0060592783
0.015566738
-0.021487789
-0.033116328
-0.034978965
0.0059809319
0.022319771
-0.015074765
-0.020758705
-0.026913851
-0.016248669
-0.017830727
-0.0082248229
0.0060585019
0.015566237
-0.021488656
-0.033117521
-0.034978438
0.0059816263
0.022320404
-0.015074397
-0.020758525
-0.026913702
-0.015430999
0.001159394
0.021381153
0.044213281
-0.0065740282
-0.054290303
-0.042968202
-0.0096469889
0.033561299
0.017639846
-0.010251009
-0.023476101
-0.028252722
0.0048918946
0.049390031
0.059441371
0.02923301
-0.0053582763
0.0050305514
0.027490839
0.049555226
0.044072978
0.0036171781
-0.010991934
-0.024482555
-0.024831906
-0.025364896
-0.023887746
-0.041332729
-0.056766699
-0.062818099
-0.059699533
-0.053690057
-0.033910472
-0.014136043
-0.028919599
-0.024903884
-0.031509064
-0.01774368
-0.027605361
-0.028961859
-0.040910529
-0.044880278
-0.044845885
-0.044312183
-0.046924001
-0.041908955
-0.028041782
0.0027767467
0.02724849
-0.010026871
-0.014547246
)
;
    }
    bottomWater_to_leftSolid
    {
        type            fixedFluxPressure;
        gradient        uniform 0;
        value           nonuniform List<scalar> 
130
(
-0.014549582
-0.010029171
0.027246616
0.0027763733
-0.028042343
-0.041908555
-0.04692155
-0.044309569
-0.044844418
-0.044880135
-0.040911573
-0.028963743
-0.02760556
-0.017745791
-0.031511221
-0.024906086
-0.028921086
-0.014137753
-0.03390973
-0.053685619
-0.059689987
-0.062811899
-0.0567659
-0.041334793
-0.023891899
-0.025366252
-0.024833377
-0.024483848
-0.010993509
0.0036158214
0.044071222
0.049554272
0.027503225
0.0050660202
-0.0053391372
0.029234882
0.059439464
0.049389059
0.0048914464
-0.028253598
-0.023477075
-0.010252067
0.017639562
0.033561206
-0.0096471474
-0.042960952
-0.054274583
-0.0065693716
0.0442123
0.021381599
0.0011615008
-0.015432249
-0.026914094
-0.020759094
-0.015075395
0.022319788
0.0059800684
-0.034976803
-0.033119456
-0.021489419
0.015567682
0.0060521376
-0.0082376473
-0.017834524
-0.016251445
-0.026913901
-0.020758854
-0.015074944
0.022320222
0.0059808001
-0.034976754
-0.033118855
-0.021490555
0.015566973
0.0060539444
-0.008234928
-0.017834462
-0.016251151
-0.028253146
-0.023476472
-0.010251165
0.017640756
0.033562799
-0.0096456104
-0.042962164
-0.054275948
-0.0065676372
0.044213382
0.021380844
0.0011601556
-0.015431885
-0.024832746
-0.02448314
-0.010992516
0.003617396
0.044073437
0.049556721
0.02750013
0.005053177
-0.0053459326
0.029234486
0.059439719
0.049388405
0.0048905274
-0.017745127
-0.031510442
-0.024905113
-0.028919997
-0.014137023
-0.033909778
-0.053686487
-0.059693271
-0.062813652
-0.056765634
-0.041333806
-0.023890011
-0.025365461
-0.014548995
-0.010028551
0.0272472
0.0027772679
-0.028041903
-0.04190863
-0.04692222
-0.044309678
-0.04484476
-0.044879541
-0.040910757
-0.028962611
-0.027605452
)
;
    }
    bottomWater_to_heater
    {
        type            fixedFluxPressure;
        gradient        uniform 0;
        value           nonuniform List<scalar> 
92
(
-0.037760343
-0.030368735
-0.030368618
-0.037759835
-0.022053726
-0.019821485
-0.019821631
-0.02205221
-0.021581381
-0.023095593
-0.023095336
-0.021580954
0.17994857
0.17661255
0.1766127
0.17994981
-0.1538835
-0.14017112
-0.14017087
-0.15388176
0.027960667
0.030050225
0.030050765
0.027958259
-0.065372253
-0.037175585
-0.037175127
-0.065367573
-0.033219468
-0.033219468
-0.032404784
-0.032404784
-0.032404123
-0.032404123
-0.033217858
-0.033217858
0.19523925
0.19523977
-0.15550874
-0.15550897
0.03521379
0.035213559
-0.02973902
-0.02973879
-0.016251445
-0.016248655
0.19523942
0.17994906
0.17661267
0.17661284
0.19524005
0.17994996
-0.15550868
-0.15388292
-0.14017188
-0.14017119
-0.15550884
-0.15388107
0.035214358
0.027959962
0.030050663
0.030050896
0.035213727
0.027957576
-0.029738781
-0.065370058
-0.037175396
-0.037174864
-0.029738173
-0.065366985
-0.016251151
-0.033218895
-0.032404685
-0.032404207
-0.016248669
-0.033218016
-0.033218895
-0.032404685
-0.032404207
-0.033218016
-0.021581244
-0.023095653
-0.023095528
-0.021581042
-0.022052849
-0.019821166
-0.019821488
-0.022052412
-0.037760138
-0.03036884
-0.030368866
-0.037759898
)
;
    }
}


// ************************************************************************* //
