/*--------------------------------*- C++ -*----------------------------------*\
| =========                 |                                                 |
| \\      /  F ield         | OpenFOAM: The Open Source CFD Toolbox           |
|  \\    /   O peration     | Version:  v2012                                 |
|   \\  /    A nd           | Website:  www.openfoam.com                      |
|    \\/     M anipulation  |                                                 |
\*---------------------------------------------------------------------------*/
FoamFile
{
    version     2.0;
    format      ascii;
    class       surfaceScalarField;
    location    "10/bottomWater";
    object      phi;
}
// * * * * * * * * * * * * * * * * * * * * * * * * * * * * * * * * * * * * * //

dimensions      [1 0 -1 0 0 0 0];
oriented        oriented;


internalField   nonuniform List<scalar> 
3858
(
0.00012467545
-0.00013109819
1.380394e-05
9.4269836e-05
5.8630895e-06
3.0719251e-05
1.4904819e-06
8.3447332e-05
1.7217737e-05
3.5639714e-06
-5.865642e-05
6.0349476e-05
-0.00010481071
0.00011089511
3.4351515e-06
-0.00018016504
4.7259665e-05
3.1321844e-05
-8.6932731e-05
-0.00017723092
8.4190068e-05
1.5877404e-06
-0.00018949365
0.00010035423
9.8075664e-05
-0.00020145061
0.00010322936
0.00012816536
-0.00012197281
9.2285133e-05
9.6143298e-05
-4.4097108e-05
7.8340987e-05
-5.819163e-05
0.00010167658
5.6170375e-05
-0.00020270684
9.7832793e-05
5.2987925e-05
-9.1872692e-05
-0.00023567391
0.00012703774
-3.8881608e-10
-0.00023267533
0.00014222385
9.1872965e-05
-0.00023267661
0.000142224
0.00020270743
-0.00023567297
0.00012703648
5.8194608e-05
9.7832021e-05
5.2986182e-05
-9.6138259e-05
0.00010167749
5.6167225e-05
-0.00012816464
-4.4089771e-05
7.8337836e-05
-9.8076397e-05
-0.00012196741
9.2280977e-05
-1.5944139e-06
-0.000201444
0.0001032285
8.6920626e-05
-0.0001894853
0.00010035097
0.0001801675
-0.00017725095
8.419526e-05
0.00010481874
4.725339e-05
3.1322773e-05
-3.5570675e-06
0.00011089597
3.4359457e-06
-1.4920899e-06
-5.8645272e-05
6.0348354e-05
-9.4271713e-05
8.3447595e-05
1.7218105e-05
-0.00012467581
5.8610246e-06
3.0719737e-05
-0.00013109916
1.3804413e-05
0.00021606265
-0.00038944524
4.2284396e-05
0.0001733587
-9.8293325e-05
0.00014686038
5.5365065e-05
-7.0339347e-07
0.00020214436
4.4674402e-05
-0.00019853335
0.00015056759
-0.00017609028
0.00028153731
5.0122488e-05
-0.00025621594
6.2540147e-05
6.4845178e-05
-8.9501848e-05
-0.00044651502
0.00010257001
8.6400639e-07
-0.0004347661
0.00015490659
0.00010297205
-0.00045268646
0.00014912779
0.00015125844
-0.00032287792
0.00015261871
0.00013444043
-0.00017648902
0.00014920991
-8.4391194e-05
0.00014695583
0.00017355236
-0.00016598289
1.7926425e-05
0.00016149806
-3.3485247e-05
-0.00054720598
0.00017903443
3.8486721e-10
-0.00048809738
0.00022193642
3.3487529e-05
-0.00048810002
0.00022193626
0.00016598504
-0.00054720409
0.00017903361
8.4395751e-05
1.7926245e-05
0.00016149506
-0.00013443591
0.00014696055
0.00017354859
-0.00015125994
-0.00017647589
0.00014921014
-0.00010297556
-0.00032286987
0.00015261808
-8.6893859e-07
-0.00045267859
0.00014912797
8.948577e-05
-0.0004347505
0.00015491049
0.00025621673
-0.0004465526
0.00010257069
0.00017610382
6.2523125e-05
6.4843172e-05
-4.4670845e-05
0.00028155103
5.0119598e-05
-5.5368905e-05
-0.00019851556
0.00015056834
-0.00017336143
-7.0324583e-07
0.00020214337
-0.00021606311
-9.8297075e-05
0.00014685979
-0.00038944693
4.2284657e-05
-0.00016634058
-0.00026211829
3.9013637e-05
-0.00013527911
-0.00013000108
6.4628864e-07
-7.5162585e-05
-8.7777759e-05
2.6957841e-05
-0.00020533452
-3.0531585e-05
-3.7829827e-05
-2.0093611e-05
4.515348e-05
5.1142926e-05
0.00022626651
-0.00020164334
1.7823364e-05
0.00015069444
-0.00029233251
-7.8610439e-05
5.1350226e-05
-0.00021939082
-0.00011603108
-7.1631607e-05
-0.00020298318
-0.00012672146
-7.5473555e-05
-0.00022907449
-8.99615e-05
3.3739334e-05
-0.00021515489
-7.0547033e-05
0.0002595861
-3.7430032e-05
-4.146092e-05
0.00042700287
-6.0552283e-05
-8.8938076e-05
0.00020868035
-0.00014246563
-0.00018641784
-5.3293961e-10
-6.0246913e-05
-0.00021916958
-0.00020868586
-6.0242252e-05
-0.00021917245
-0.00042700341
-0.00014247321
-0.00018641333
-0.00025958098
-6.0561421e-05
-8.8934782e-05
-3.374007e-05
-3.7420926e-05
-4.1459435e-05
7.5477801e-05
-0.00021514816
-7.0545606e-05
7.1633477e-05
-0.00022906412
-8.9961427e-05
-5.1342544e-05
-0.00020297945
-0.00012672312
-0.00015068237
-0.00021938359
-0.00011602709
-0.00022626822
-0.00029235278
-7.8613977e-05
2.0087074e-05
-0.000201654
1.7821823e-05
0.0002053239
4.5172597e-05
5.1141603e-05
7.5165642e-05
-3.0531223e-05
-3.782608e-05
0.00013528331
-8.777833e-05
2.6957417e-05
0.00016634211
-0.00013000192
6.4605759e-07
-0.00026211802
3.9013208e-05
0.00014333319
-0.00028833509
-0.00011711638
0.00010058977
0.00011589005
-0.00020314771
-0.00013289904
0.00037759411
-0.00023188306
-0.00025557028
0.00020940537
-0.00011726572
-0.00010078261
-0.00014412826
3.449408e-05
-6.2944395e-05
-0.0003070475
6.7565948e-05
-4.0370845e-05
-0.00038047781
6.5571747e-05
-1.7017879e-05
-0.00029046949
4.7725694e-05
1.7307297e-05
-0.00026652569
2.9217322e-05
1.9133223e-05
-0.00029766508
6.6764637e-05
-1.4014889e-05
-0.00026040006
7.8393256e-05
-5.1342313e-05
-8.6898788e-05
8.6796156e-05
-8.5354701e-05
-6.3138168e-05
3.6598256e-05
-4.6978032e-05
-0.00014889263
-3.1949674e-05
-1.4436823e-10
-5.6575868e-05
-5.0648944e-05
4.6979001e-05
-5.6570938e-05
-5.0650471e-05
8.5354493e-05
-0.00014890233
-3.1946392e-05
5.1345991e-05
-6.3152563e-05
3.6599629e-05
1.4012009e-05
-8.6886257e-05
8.6799302e-05
-1.9138415e-05
-0.00026038982
7.8392084e-05
-1.7310277e-05
-0.00029765161
6.6759356e-05
1.7019031e-05
-0.00026652019
2.921143e-05
4.0372252e-05
-0.00029046323
4.7726408e-05
6.2943102e-05
-0.00038050089
6.5577253e-05
0.0001007731
-0.0003070482
6.7564182e-05
0.00025557205
-0.00014412495
3.4498595e-05
0.00013289991
0.00020940492
-0.000117264
-0.00010058922
0.00037759328
-0.00023188247
-0.00014333327
0.00011589006
-0.00020314792
-0.00028833375
-0.00011711754
-0.00027470287
-1.3632219e-05
-0.00021987222
6.1059405e-05
0.00012547526
3.2246627e-05
0.00037930133
-4.442069e-05
0.00036826807
-0.000133095
0.00025204523
-0.00019082466
8.4146009e-05
-0.00021257859
-1.9841155e-05
-0.00018648234
-8.9380195e-05
-0.00019698667
-0.00015243988
-0.00023460542
-0.00016868379
-0.00024415617
-6.2743651e-05
-0.00019283894
1.4275076e-05
-0.00014015691
-3.2463037e-05
-0.00010215453
-2.0741293e-10
-8.9038705e-05
3.2464826e-05
-8.9035983e-05
-1.4279868e-05
-0.00010215765
6.2728777e-05
-0.00014016122
0.00016867762
-0.0001928351
0.00015243882
-0.00024415102
8.938608e-05
-0.00023459888
1.984895e-05
-0.00019698306
-8.4134544e-05
-0.00018647974
-0.00025204978
-0.00021258566
-0.00036827104
-0.00019082694
-0.00037930152
-0.00013309448
-0.00012547654
-4.4420051e-05
0.0002198708
3.2245945e-05
0.00027470154
6.1059337e-05
-1.3632212e-05
0.00018488164
-0.00015991745
-2.7823091e-06
0.00013041939
0.00011245057
-1.7490119e-05
3.4977004e-05
0.00015049335
-3.0852002e-05
9.7798344e-07
0.00012189016
-2.4722364e-05
-2.8488968e-05
0.00012498629
-8.9312812e-05
-4.4971572e-05
0.00011976057
-7.0504573e-05
-2.4133761e-05
0.00010685354
-4.2851651e-05
6.8073542e-06
8.1338464e-05
-1.1851109e-05
5.6614236e-05
8.6252616e-05
-3.3733994e-05
7.3096641e-05
0.00010150042
-2.5403113e-05
4.4784781e-05
0.00011880864
-1.0703062e-05
-1.0892502e-05
0.00012987142
-1.5652186e-05
-6.7434871e-05
0.00013930537
-2.5637383e-05
-4.9497502e-05
9.4491574e-05
2.0172728e-05
-1.4832691e-09
8.0762108e-05
1.7936334e-05
4.9494389e-05
8.0762167e-05
1.7936526e-05
6.7434097e-05
9.4491194e-05
2.0169304e-05
1.0892798e-05
0.00013930533
-2.5640417e-05
-4.4784108e-05
0.00012987059
-1.5655163e-05
-7.3096534e-05
0.00011880885
-1.070605e-05
-5.6613779e-05
0.00010150141
-2.5408323e-05
-6.8089914e-06
8.6253061e-05
-3.3733516e-05
2.4134334e-05
8.1337248e-05
-1.1856132e-05
4.4973339e-05
0.00010685262
-4.2846961e-05
2.849047e-05
0.00011976114
-7.0503932e-05
-9.7586423e-07
0.000124986
-8.9312222e-05
-3.4976801e-05
0.00012189139
-2.4722799e-05
-0.00013041924
0.00015049342
-3.0851756e-05
-0.00018488136
0.00011245087
-1.7490149e-05
-0.0001599167
-2.7824077e-06
0.00027354066
-0.00042068342
2.9509701e-05
0.00033192941
0.00015123733
4.9684874e-05
0.00011859544
0.00049150533
7.4466353e-05
-7.3204606e-05
0.00045600033
8.2574626e-06
-8.5494909e-05
0.00027937356
-9.1974475e-05
-7.4482262e-05
0.00026736924
-9.3776134e-05
-4.2601418e-05
0.00022855352
-5.1010806e-05
-2.549727e-06
0.00018434021
1.1853148e-05
5.1224248e-05
0.00021488186
-3.3275435e-05
7.4382121e-05
0.00025183452
-2.087328e-05
6.437214e-05
0.00026679776
1.1230758e-05
2.7860697e-05
0.00031583846
2.4096761e-05
-2.1055753e-05
0.00036673328
-1.7013414e-05
-2.724027e-05
0.00021377307
6.5937447e-05
4.8424543e-10
0.00021778212
5.7675656e-05
2.7240732e-05
0.0002177829
5.7675277e-05
2.1058511e-05
0.00021377142
6.5935595e-05
-2.7857878e-05
0.00036672941
-1.7012637e-05
-6.4365783e-05
0.00031582496
2.4102124e-05
-7.43786e-05
0.0002668011
1.1230711e-05
-5.1227928e-05
0.00025184394
-2.0875117e-05
2.5385411e-06
0.00021489069
-3.3276127e-05
4.2586036e-05
0.00018435147
1.1848775e-05
7.4485976e-05
0.00022852432
-5.1000961e-05
8.549725e-05
0.00026736914
-9.377611e-05
7.3207293e-05
0.00027936975
-9.1974203e-05
-0.00011859385
0.0004560034
8.2574784e-06
-0.00033192944
0.00049150571
7.4466665e-05
-0.00027354047
0.00015123703
4.9684672e-05
-0.00042068251
2.9510008e-05
-0.00030673301
-4.6684548e-05
-2.8252219e-05
-0.00013775645
-2.3787527e-05
6.6945807e-06
-7.0960497e-05
0.00039588662
5.5780597e-05
-5.9582965e-05
0.00039095216
1.5840819e-05
-2.7285823e-05
0.00017668977
0.00012152958
-3.3165902e-05
0.00018739788
0.00010367481
-5.0370754e-05
0.00011577892
5.1369008e-05
7.9603031e-06
7.9430567e-06
2.0350123e-06
5.1893528e-05
-1.5918541e-05
6.0145699e-05
5.0680291e-05
0.00010789889
5.5187354e-05
2.8161483e-05
0.00021224009
6.5294214e-06
6.9545946e-05
0.00024532216
-1.2329103e-05
0.00010459481
0.00029445673
-5.1710396e-05
5.0201595e-05
0.0001870413
-0.00010529286
4.9725864e-10
0.00016906676
-0.00012025313
-5.0201209e-05
0.0001690674
-0.00012025525
-0.00010459403
0.00018703887
-0.00010528797
-6.9547735e-05
0.0002944519
-5.1703581e-05
-2.8164215e-05
0.00024530706
-1.232506e-05
-5.0684589e-05
0.00021224181
6.5340531e-06
-5.18944e-05
0.0001078979
5.5194425e-05
-7.9500633e-06
-1.5921176e-05
6.0144414e-05
5.0377836e-05
7.9474965e-06
2.0489842e-06
3.3164526e-05
0.00011575984
5.1363813e-05
2.7283557e-05
0.00018739757
0.00010367435
5.9581636e-05
0.00017668303
0.00012153023
7.096179e-05
0.00039095473
1.5842441e-05
0.00013775638
0.00039588705
5.5781489e-05
0.00030673266
-2.3788679e-05
6.6955014e-06
-4.668514e-05
-2.8251504e-05
-0.00015903314
8.6123905e-05
-9.0891689e-05
-0.0001466431
-0.00021607776
-2.3247503e-05
0.0001017965
-7.3589064e-05
-1.0846964e-05
0.0002356603
3.4454786e-05
0.00010536785
7.9167728e-06
0.00025800933
0.00018091805
-0.00013456105
0.00013622146
0.00026122019
-9.6301161e-05
-7.1980887e-05
0.00021507167
-2.1706677e-05
-0.00022930714
0.0002103814
5.6945541e-05
-0.00029494525
0.0002295918
6.9941509e-05
-0.00011836079
0.00028002832
5.8915924e-06
9.6201042e-05
0.00025848219
-9.0774979e-05
0.00022039212
0.00020839274
-2.9173547e-05
0.00010458641
0.00016486713
5.8177347e-06
0.00011847902
1.6213135e-06
7.0443951e-10
0.00016072616
-3.6491324e-05
-5.8098412e-06
0.00016071775
-3.6490287e-05
2.9178007e-05
0.00011848376
1.620845e-06
9.077466e-05
0.00010458776
0.0001648671
-5.9049917e-06
0.00022041139
0.0002083746
-6.995132e-05
9.6205996e-05
0.00025847422
-5.6940365e-05
-0.00011837306
0.00028001936
2.1724284e-05
-0.00029495818
0.00022958378
9.6323713e-05
-0.00022931072
0.00021038519
0.00013455911
-7.1968393e-05
0.00021507008
-7.9208571e-06
0.00013622714
0.00026121457
-0.00023567102
0.00025802051
0.00018091128
-0.00010180171
3.445713e-05
0.00010536429
0.00014664092
-7.3589259e-05
-1.0848792e-05
0.00015903178
-0.00021607904
-2.3248398e-05
8.6122382e-05
-9.0893279e-05
5.3282214e-05
1.9209474e-05
-0.00012670002
2.4963879e-05
-0.00017599348
7.9510309e-06
-7.3011886e-05
-0.0001129475
0.00018564309
-0.00013374064
0.00027949827
-0.00014845838
0.00018503493
-0.00019009614
-9.7449648e-06
-0.0002210096
-0.00019852792
-0.00030314899
-0.00026466769
-0.00028682645
-0.00019687693
-0.00021574591
-4.9906087e-05
-0.00011941768
-2.8417169e-05
-5.7059426e-05
-3.168407e-05
1.9591384e-05
-1.758226e-09
4.0005131e-05
3.1674269e-05
4.0005735e-05
2.8407203e-05
1.9593168e-05
4.9895301e-05
-5.7061566e-05
0.00019688362
-0.00011941204
0.00026467836
-0.00021573977
0.00019853218
-0.00028682575
9.7391706e-06
-0.00030314823
-0.00018504382
-0.00022100747
-0.00027950104
-0.00019009685
-0.0001856442
-0.00014845664
7.3017466e-05
-0.00013373564
0.0001760002
-0.00011294565
0.00012670498
7.951908e-06
-5.327994e-05
2.4965229e-05
1.9210232e-05
0.0001618163
-0.00014209854
-1.6607057e-05
0.00011480778
6.9538281e-05
-3.3851784e-05
7.5635004e-06
0.00013372319
-5.3120363e-05
-4.4478589e-05
0.00010785292
-7.8961467e-05
-6.0277919e-05
8.5732612e-05
-0.00015511946
-1.0466322e-05
-2.6279965e-05
-9.3544153e-05
1.2907676e-05
5.4370298e-05
-0.00011989833
1.4215532e-05
5.911796e-05
-7.2198738e-05
6.5569303e-05
6.7246314e-05
-0.0001533312
6.5459813e-05
7.7546428e-05
-0.00010183352
3.8720139e-05
8.7942004e-05
-7.1647567e-05
-1.2853618e-06
9.5455704e-05
-7.0208607e-05
-3.346643e-05
0.00011211362
-0.00010298028
-3.7265573e-05
0.00012584593
-9.7712201e-05
-2.3386152e-09
8.671427e-05
-0.00010123726
3.726188e-05
8.6713809e-05
-0.00010123762
3.3464434e-05
0.00012584628
-9.7717694e-05
1.2863088e-06
0.00011211252
-0.00010298536
-3.8718891e-05
9.5456035e-05
-7.021243e-05
-6.5457394e-05
8.7940882e-05
-7.1650602e-05
-6.5570242e-05
7.7554161e-05
-0.00010183914
-1.4215396e-05
6.724457e-05
-0.00015333054
-1.2906095e-05
5.9115058e-05
-7.2203006e-05
1.0470204e-05
5.4371488e-05
-0.00011989778
6.0277129e-05
-2.6270798e-05
-9.3547574e-05
4.447775e-05
8.573509e-05
-0.00015512087
-7.5641151e-06
0.00010785359
-7.8962648e-05
-0.00011480806
0.00013372343
-5.3120767e-05
-0.00016181645
6.9538663e-05
-3.3852389e-05
-0.00014209827
-1.660766e-05
0.00029233358
-0.00041342787
8.5054585e-06
0.0002752858
0.00014286752
-6.5965865e-06
-6.9227358e-05
0.00054985459
2.8481097e-06
-0.0002071097
0.00029686233
-4.2869601e-05
-0.00019966621
5.7796542e-05
-7.1481886e-05
-0.00011061482
-0.00014070891
-6.8398568e-05
-4.695744e-05
-7.066392e-06
-5.3231497e-05
3.1905987e-05
-1.8538788e-05
1.064647e-05
7.8127056e-05
7.5681602e-05
-8.7931798e-05
0.00012330362
6.177505e-05
-5.0278479e-05
0.00013284445
5.3531136e-05
3.6100794e-05
0.00014903028
0.00012420372
-2.0837101e-05
0.0001176556
0.0002737345
-0.00014725963
1.0092849e-05
0.00042582151
-0.00012647538
2.7742381e-11
0.00029813454
-0.00014365179
-1.0094166e-05
0.00029813669
-0.00014365341
-0.00011765436
0.00042581359
-0.00012647152
-0.00014902382
0.00027371963
-0.00014725029
-0.00013284155
0.000124207
-2.0831123e-05
-0.00012328987
5.3515738e-05
3.6104174e-05
-7.813304e-05
6.1810264e-05
-5.0288044e-05
-3.1908691e-05
7.5673704e-05
-8.7929608e-05
4.695592e-05
-1.8546015e-05
1.0645238e-05
0.00011061935
-7.0671936e-06
-5.3225711e-05
0.00019966331
-0.00014069002
-6.8400849e-05
0.00020710878
5.7796928e-05
-7.1481511e-05
6.9224784e-05
0.00029686518
-4.287012e-05
-0.00027528729
0.00054985476
2.8474176e-06
-0.00029233361
0.00014286742
-6.5977654e-06
-0.00041342733
8.5054652e-06
-0.00018506537
-0.00023991697
-1.669775e-05
-9.3673945e-05
4.2167131e-05
1.6003555e-05
-7.8262633e-05
0.00053670665
5.3517226e-05
2.8717465e-05
0.00016888222
3.6840832e-05
1.1546259e-05
-4.7791512e-05
0.00024428885
-4.5123421e-05
-4.7894226e-05
6.7529807e-05
7.5722304e-07
-3.6769939e-05
3.5191911e-05
1.1441632e-05
-4.8232639e-05
2.104445e-05
-6.2660234e-05
-2.6445525e-05
0.00023637468
-7.0322923e-05
-5.740652e-06
0.00013036573
-3.1187343e-05
-5.5120147e-05
7.6045104e-05
7.1506148e-05
-1.530759e-05
2.4488702e-05
0.00011243829
0.00015150819
2.9583756e-05
4.8660907e-06
0.00038373365
4.4367198e-05
1.7981714e-09
0.00012850014
5.4245553e-05
-4.8633971e-06
0.00012850205
5.424458e-05
-0.00011243707
0.00038372521
4.4374066e-05
-7.1504418e-05
0.00015149281
2.9590574e-05
3.1187753e-05
-1.530421e-05
2.4493972e-05
7.0305664e-05
-5.5121487e-05
7.6053362e-05
6.2656727e-05
-5.7327953e-06
0.00013038642
-1.1450398e-05
-2.6452217e-05
0.00023637746
-7.4741886e-07
-4.8254167e-05
2.1054158e-05
4.5124961e-05
-3.6766379e-05
3.5190614e-05
-1.1541405e-05
-4.7887943e-05
6.7538632e-05
-2.8712296e-05
-4.7794883e-05
0.00024429293
7.8263763e-05
0.00016888766
3.6843898e-05
9.3673078e-05
0.00053670988
5.3517058e-05
0.0001850666
4.2164018e-05
1.6005393e-05
-0.00023991498
-1.669725e-05
-3.6804131e-05
-0.00029574386
1.7393298e-06
4.9541256e-05
-0.00012732138
5.9895621e-05
0.00042994472
0.00010214187
4.3314361e-05
0.00039829501
0.00020118988
0.00010470989
0.0001521234
0.00033690574
4.2392423e-05
-2.9489765e-05
0.00039381676
1.1223771e-06
-0.00011382051
0.00029839978
-3.5767305e-05
-1.0661978e-06
-1.4940452e-05
6.433489e-05
0.00013104106
-7.3845934e-05
0.00014488492
1.689345e-05
0.00028318595
0.0001052493
-0.00017568204
0.00044277578
-4.6838272e-05
-0.00038041164
0.00044177253
-4.3957808e-05
-0.00039504345
0.00032634869
4.6584248e-06
-0.00018619998
9.1011298e-05
8.5500186e-05
2.3509485e-09
-0.00016635207
7.215855e-05
0.00018620813
-0.00016635257
7.2158552e-05
0.00039505116
9.1011927e-05
8.549108e-05
0.00038040874
0.00032635934
4.6429604e-06
0.00017567609
0.00044177981
-4.3976783e-05
-1.6903494e-05
0.00044277729
-4.6844978e-05
-0.0001310343
0.00028317774
0.00010523964
1.0885258e-06
-7.3869873e-05
0.00014487861
0.00011382246
-1.4928553e-05
6.4325641e-05
2.9488191e-05
0.00029841452
-3.5776551e-05
-0.00015212813
0.00039382313
1.1198235e-06
-0.00039830155
0.00033690178
4.238803e-05
-0.00042994368
0.0002011854
0.00010470869
-4.9536548e-05
0.00010214163
4.3312331e-05
3.6806826e-05
-0.00012732539
5.9897653e-05
-0.00029574092
1.7394957e-06
-0.00030258902
2.6054638e-05
-0.00038048975
-2.4456763e-05
-0.00024157592
-2.8820925e-05
-0.00011048113
-4.2852394e-05
7.1128442e-05
2.1555521e-05
0.00019798856
0.00011849827
0.00016090359
0.0001453886
-7.6149808e-05
1.1033434e-06
-0.00033165708
-0.00012148766
-0.00027668706
-5.8610551e-05
-7.5650663e-05
2.5993454e-05
0.00012335843
0.00012334575
0.00027975811
0.00011288956
0.00026651426
0.00012384652
-2.8264265e-10
0.0001401676
-0.00026651409
0.00014016696
-0.00027975677
0.00012384776
-0.00012335338
0.00011289438
7.5652514e-05
0.00012336187
0.00027669288
2.5997153e-05
0.00033166258
-5.8617712e-05
7.6136173e-05
-0.00012149169
-0.00016091144
1.1115893e-06
-0.0001979853
0.00014539153
-7.1121365e-05
0.00011850254
0.00011048678
2.1557991e-05
0.00024157762
-4.2851086e-05
0.00038049091
-2.8819739e-05
0.00030258673
-2.4455979e-05
2.605604e-05
0.00013263341
-0.00012708836
-1.8402598e-05
3.6182601e-05
8.6062992e-05
-2.0741223e-05
-0.00013612603
0.00014490896
-2.6282625e-05
-0.00023687268
5.1625265e-05
-3.2284248e-05
-8.9476126e-05
-0.00025586415
-5.7344689e-05
2.4491328e-05
-0.00025444869
3.5655872e-05
5.5050478e-05
-0.00014698271
-1.3415982e-05
-2.5871011e-05
-3.0455668e-06
7.0274981e-06
0.00011269338
-0.00024450813
-6.3274109e-05
0.00023246179
-0.00022427882
-8.3319424e-06
0.00010764477
8.4325146e-05
-3.6030781e-05
-3.2623439e-05
0.00011556433
-4.8866163e-05
-7.6817762e-05
3.1165177e-05
-9.1312692e-05
-6.1002984e-05
-0.00011227916
-5.4674165e-09
-0.00015980793
6.0989902e-05
-0.00015980622
7.6814254e-05
-0.00011229467
3.2625943e-05
3.1152698e-05
-9.1311925e-05
-0.00010764837
0.00011556639
-4.8866414e-05
-0.00023246436
8.4319791e-05
-3.6029593e-05
-0.00011268009
-0.00022430354
-8.3288733e-06
2.5871402e-05
-0.00024449103
-6.3276957e-05
-5.50418e-05
-3.0647488e-06
7.0328074e-06
-2.4490592e-05
-0.00014697292
-1.3417613e-05
8.947641e-05
-0.00025445242
3.5655972e-05
0.00023687559
-0.00025586703
-5.734584e-05
0.00013612779
5.162508e-05
-3.2284167e-05
-3.6181859e-05
0.00014490934
-2.6282543e-05
-0.0001326334
8.6062611e-05
-2.0740904e-05
-0.0001270891
-1.8402626e-05
0.00030104107
-0.00042235762
2.7336479e-06
0.00027094044
0.00011169318
-2.1261429e-06
-0.00018013931
0.00059663979
2.197026e-06
-0.00030393876
0.0001545419
-2.198678e-05
-7.1980908e-05
-0.00059323545
3.3931571e-05
1.729723e-05
-0.00056157694
0.00014945155
-1.0726951e-05
-0.00031091867
0.00013872864
-9.0294787e-05
-3.3884145e-05
0.00012105288
7.4357953e-05
-0.00055647042
5.9377756e-05
0.00022164282
-0.00054726646
0.00012542428
4.5278963e-05
0.00018147327
0.00011531651
-0.0002559544
0.00040084589
-4.8852989e-06
-0.00022463356
-4.1439632e-05
-0.00010597566
-0.00010814838
-0.00035523971
2.3456753e-09
-0.00041161044
0.00010814871
-0.000411606
0.00022465371
-0.0003552712
0.00025597989
-4.1450465e-05
-0.00010597331
-4.5285826e-05
0.00040089704
-4.8960686e-06
-0.00022165294
0.00018147951
0.00011531156
-7.4351671e-05
-0.00054731546
0.00012542262
9.0291006e-05
-0.00055644263
5.9379323e-05
1.0725875e-05
-3.3916189e-05
0.00012106181
-1.7302938e-05
-0.0003108997
0.00013872988
7.1977757e-05
-0.00056158591
0.00014945194
0.00030393969
-0.00059324083
3.3930353e-05
0.00018013885
0.00015454472
-2.1988916e-05
-0.00027094384
0.0005966446
2.1948543e-06
-0.0003010428
0.00011169174
-2.1279421e-06
-0.00042235988
2.733452e-06
-9.4493029e-05
-0.0003497626
5.2002614e-06
-5.1203364e-05
7.5699851e-05
8.7072186e-06
7.0917911e-05
0.00049055944
3.7476301e-05
0.00031685324
6.4289767e-06
-6.0981569e-05
2.4596266e-06
-7.4529205e-05
3.997622e-05
-0.00025308341
-6.4472705e-05
-0.00017403139
-8.1051871e-05
-0.00029383357
-0.00015392472
0.00028171904
-0.00033667268
-3.8937929e-05
-5.188287e-05
-6.5806421e-05
7.9312572e-05
-0.00034643752
-3.6945687e-05
-8.5400419e-05
-0.00016170719
2.6703684e-05
4.6084348e-05
4.298552e-05
0.0002454284
-2.4786542e-05
0.00011482552
-0.00011664432
3.2948424e-05
1.9063108e-05
-0.0002151101
7.6681069e-09
-0.00033830944
-1.9047359e-05
-0.0003383064
-0.00011483114
-0.00021511336
-4.2993958e-05
-0.00011664219
3.2945094e-05
0.00016170844
0.00024547771
-2.478911e-05
0.00034643953
2.6711789e-05
4.6089987e-05
5.1865823e-05
-3.6946958e-05
-8.5408371e-05
-0.00028171507
-6.5803272e-05
7.9319001e-05
8.1040126e-05
-0.00033666354
-3.8953692e-05
0.00025308496
-0.00029382789
-0.00015392603
-2.458934e-06
-6.4474337e-05
-0.00017402904
-0.00031685443
-7.4529381e-05
3.997698e-05
-7.0919487e-05
6.4335528e-06
-6.0979881e-05
5.1201681e-05
0.00049056713
3.7473365e-05
9.4491651e-05
7.569995e-05
8.7072291e-06
-0.00034976621
5.2007322e-06
2.8902501e-05
-0.0003712774
-5.6483668e-06
0.00010370207
5.5964041e-05
4.8318586e-06
0.00043081928
0.00020067142
6.0851808e-06
0.00022074015
0.00029213331
2.9084691e-05
-0.00010204332
0.00033935741
-4.8710709e-05
-0.00018886362
0.00015691229
-0.00013344232
8.2412235e-06
-0.0004053838
-0.00012132192
0.00023843065
-0.00049377951
-8.7477059e-06
0.00014913064
0.00017892516
-1.0546666e-05
-0.00010631136
0.00042683707
-0.00010309148
-0.00018409971
0.00028384775
-0.00022619402
-8.1476318e-05
0.0001657602
-6.6913037e-05
-0.0002392542
0.00014353577
-9.7743797e-05
-0.00016918005
-0.00019968407
-5.0787576e-09
-0.00043532587
0.0001691696
-0.00043532253
0.00023922965
-0.00019968236
8.1447573e-05
0.00014353404
-9.775121e-05
0.0001841217
0.00016572045
-6.6893662e-05
0.00010633931
0.00028384007
-0.00022619088
-0.00014910446
0.00042682666
-0.00010309021
-0.00023842325
0.00017894837
-1.055423e-05
-8.2401837e-06
-0.0004937616
-8.7593579e-06
0.0001888607
-0.00040537644
-0.00012132888
0.00010203579
0.00015691278
-0.0001334424
-0.00022074422
0.00033934626
-4.8707595e-05
-0.00043081828
0.00029212876
2.9087547e-05
-0.00010369566
0.00020066912
6.0877383e-06
-2.8897113e-05
5.5961547e-05
4.837518e-06
-0.00037127932
-5.6444927e-06
-0.00035640878
1.1186021e-05
-0.00033536682
1.0465316e-05
-0.00018886661
2.5350293e-05
5.7811074e-05
2.6032387e-06
0.00033229683
8.6427174e-05
0.00043536474
0.00017234266
2.9050303e-05
0.00014631923
-0.00046644309
2.8172127e-06
-0.00034976325
-5.9242363e-05
-2.5551329e-05
4.4014587e-05
0.00016649026
0.00011779959
0.00026638082
0.00018921538
0.00037099992
0.00015180621
0.00029516237
4.0930533e-09
-0.00029515149
-0.0003709861
-0.00026636441
0.00015180671
-0.00016650175
0.00018921965
2.5540302e-05
0.00011779516
0.00034974394
4.4005305e-05
0.0004664351
-5.9234487e-05
-2.9046832e-05
2.831926e-06
-0.00043535729
0.00014632553
-0.0003322886
0.00017234663
-5.7809398e-05
8.6425054e-05
0.00018886657
2.601708e-06
0.00033536793
2.5348027e-05
0.00035640957
1.0463942e-05
1.1186288e-05
0.00013549489
-0.00015135761
-7.5372925e-11
4.9663502e-05
6.7049414e-05
-1.649809e-10
-0.00012406908
0.00014669467
-2.4142436e-10
-0.00017271792
1.5273909e-05
-1.6517272e-10
4.7734216e-05
-0.00028786372
-5.445454e-10
3.9647454e-05
3.8968126e-05
7.0558743e-10
-4.4658228e-05
5.8185158e-05
1.6709125e-09
-9.9748969e-05
5.8122243e-05
2.3057701e-09
0.00015774666
-0.00033735989
2.6693711e-09
0.0001459257
-5.091274e-06
-2.0610489e-09
-2.7063072e-05
0.0001291796
-8.0132469e-10
-0.00012679875
4.6847495e-05
-6.7626243e-10
-0.00022227912
-3.26369e-10
0.00012679671
-0.00022227664
-1.9283499e-10
2.7061871e-05
4.6845699e-05
-2.3328338e-10
-0.00014592694
0.00012917996
2.5032081e-11
-0.00015774168
-5.0975259e-06
8.6418364e-10
9.9748209e-05
-0.00033735323
-2.5667545e-10
4.4657949e-05
5.8123155e-05
5.9832351e-09
-3.9647596e-05
5.8184628e-05
2.1377837e-10
-4.7734752e-05
3.8968018e-05
9.1061305e-10
0.00017272082
-0.00028787004
6.1870517e-10
0.00012407059
1.5274569e-05
4.6019012e-10
-4.9662811e-05
0.00014669467
3.830784e-10
-0.00013549474
6.7049365e-05
5.2471603e-10
-0.00015135807
3.1181282e-10
0.00030751598
-0.00045614
6.8011201e-11
0.00027718372
9.5255483e-05
4.1785443e-11
-0.0002046051
0.00063068043
9.2831379e-11
-0.00023561893
2.4300953e-05
1.1736329e-11
0.00014657957
-0.00063613033
-3.1494765e-10
6.0918231e-05
0.00027407972
1.2997744e-09
-0.00021197669
0.00046980644
2.2897676e-09
-0.00017375626
0.00014095064
4.0569081e-09
0.00028466761
-0.00073640552
-4.8659653e-10
0.00014564246
0.00025935945
-1.3061863e-09
-0.00027234866
0.00066248482
2.3938343e-09
-0.00026559298
3.5202106e-05
4.391419e-09
-0.00059384904
1.2678629e-09
0.00026559444
-0.00059384512
7.2403189e-10
0.00027234785
3.5195311e-05
8.9421008e-10
-0.00014564798
0.00066248686
4.9513218e-10
-0.00028466695
0.00025934319
8.8156977e-10
0.00017375212
-0.0007363924
-5.676742e-10
0.00021195551
0.00014097448
7.0922371e-09
-6.0934364e-05
0.00046980493
-5.4608092e-10
-0.00014658471
0.00027406958
7.1370251e-10
0.00023561927
-0.00063614332
-3.4588732e-10
0.00020460303
2.4302155e-05
-2.5742612e-10
-0.00027718628
0.00063067945
-6.1348512e-10
-0.00030751704
9.5252378e-05
-1.9114978e-10
-0.00045614166
1.1686583e-11
-0.00010838557
-0.00034255416
-8.879217e-12
-7.9593741e-05
7.5170804e-05
7.1860852e-11
6.0038528e-05
0.00052852431
1.500462e-10
8.0897999e-05
-5.7539834e-05
-2.4781926e-10
-0.00042460497
-9.065119e-05
5.5722944e-11
-0.00017014042
-0.00015441631
1.013869e-10
0.00032510951
-0.00017936581
-2.4035922e-09
0.00048729038
-6.016238e-05
-5.7775592e-09
-8.4269723e-05
-8.5526689e-05
-6.1689884e-09
-0.00010594227
0.00019562876
2.8045338e-09
1.9157123e-05
0.00058346744
2.3122457e-09
0.00015945321
-0.00012987904
-1.5164452e-09
-0.00040144808
6.5329908e-10
-0.00015945331
-0.00040144731
5.7462295e-10
-1.9153821e-05
-0.00012989363
3.1884182e-10
0.00010594009
0.000583483
-6.2741683e-11
8.4256775e-05
0.00019561992
-1.7919979e-09
-0.00048728652
-8.5528625e-05
-1.4817357e-09
-0.0003250808
-6.0178126e-05
-6.7953649e-09
0.00017015335
-0.00017935544
1.9262742e-10
0.00042460877
-0.00015441535
4.6600575e-10
-8.090443e-05
-9.0652223e-05
-9.1308164e-10
-6.0041193e-05
-5.754019e-05
-7.6997831e-10
7.959248e-05
0.00052852003
-8.8460393e-10
0.00010838269
7.5169566e-05
-1.5870276e-10
-0.00034255853
3.028867e-10
1.9743968e-05
-0.00036794645
-4.4006534e-11
8.0573665e-05
1.9172881e-05
8.7289866e-11
0.00043159893
0.00018358425
-1.8337067e-11
2.4223311e-05
0.00037892017
3.0471109e-10
-0.00023879789
0.00012365894
3.6906224e-10
-6.2558684e-05
-0.00046409964
1.8165282e-09
0.00027430619
-0.00063755159
-1.0167697e-09
0.00027886625
-7.3469652e-05
-5.0068986e-10
-0.00021216202
0.00039495338
1.5123217e-09
-0.00031333161
0.00019370587
9.8049525e-10
3.2697901e-05
1.1242356e-05
1.5263493e-09
6.9087598e-05
-0.00023317271
-9.1083505e-09
-0.00043010371
-5.9131773e-10
-6.9092547e-05
-0.00043010535
-6.595058e-10
-3.2691305e-05
-0.00023318726
-1.2852366e-09
0.0003133372
1.1263929e-05
-3.2821237e-10
0.00021213214
0.00019373479
-2.3484493e-11
-0.0002788661
0.000394915
3.8636922e-10
-0.00027427022
-7.3533643e-05
2.894867e-10
6.257192e-05
-0.00063752637
-9.4829454e-11
0.00023879906
-0.00046408519
3.0539012e-10
-2.4227539e-05
0.00012366609
6.926337e-10
-0.00043159847
0.0003789172
1.0895138e-09
-8.0575081e-05
0.00018358316
1.2355691e-09
-1.9745813e-05
1.9176185e-05
1.6509414e-09
-0.00036794983
1.0042439e-09
-0.00035676039
-4.0638354e-11
-0.00032712214
-5.0239963e-11
-0.00011818754
-5.0466238e-11
0.00026333575
1.252004e-10
0.00047342248
-6.1941373e-10
0.00018166641
-9.0829788e-10
-0.00030956349
-2.4520178e-09
-0.00038021422
-1.7172014e-09
-4.4501179e-05
-2.0347335e-09
0.0001932206
-1.3415813e-09
0.00032226077
1.754323e-09
0.00027829994
3.4561194e-09
2.4290082e-09
-0.00027829942
7.6014077e-10
-0.00032226762
5.6546402e-10
-0.00019320849
-4.5404329e-11
4.453243e-05
-8.2487671e-10
0.0003802138
-8.5653466e-10
0.00030951357
-1.4830576e-09
-0.00018168616
-1.107411e-09
-0.00047342235
-2.3611766e-09
-0.00026332963
-1.5752884e-09
0.00011819012
-8.3748195e-10
0.00032712229
-9.7164526e-10
0.00035676311
-6.7831103e-10
-4.2538612e-10
0.00013549471
-0.00015135755
1.8402538e-05
4.9663041e-05
6.7049361e-05
2.0741195e-05
-0.0001240699
0.00014669448
2.6282635e-05
-0.00017271861
1.5273188e-05
3.2284471e-05
4.7735455e-05
-0.00028786695
5.7344764e-05
3.9648555e-05
3.8968306e-05
-3.5654486e-05
-4.465632e-05
5.818566e-05
1.3417918e-05
-9.9748463e-05
5.8124432e-05
-7.0235265e-06
0.00015774372
-0.00033735512
6.3278471e-05
0.00014592417
-5.0936061e-06
8.3287138e-06
-2.70643e-05