/*--------------------------------*- C++ -*----------------------------------*\
| =========                 |                                                 |
| \\      /  F ield         | OpenFOAM: The Open Source CFD Toolbox           |
|  \\    /   O peration     | Version:  v2012                                 |
|   \\  /    A nd           | Website:  www.openfoam.com                      |
|    \\/     M anipulation  |                                                 |
\*---------------------------------------------------------------------------*/
FoamFile
{
    version     2.0;
    format      ascii;
    class       volScalarField;
    location    "10/bottomWater";
    object      T;
}
// * * * * * * * * * * * * * * * * * * * * * * * * * * * * * * * * * * * * * //

dimensions      [0 0 0 1 0 0 0];


internalField   nonuniform List<scalar> 
1460
(
1071.3312
1072.6489
1072.9506
1072.9646
1072.9931
1072.9024
1072.33
1072.4801
1072.5241
1072.7111
1072.8686
1072.9833
1072.9267
1072.6504
1072.768
1072.768
1072.6503
1072.9267
1072.9833
1072.8686
1072.7111
1072.5241
1072.4801
1072.3298
1072.9025
1072.9931
1072.9646
1072.9506
1072.6487
1071.3312
1066.7229
1070.6864
1072.5686
1072.5758
1072.8353
1072.0742
1069.4246
1070.341
1070.7475
1070.9106
1071.4346
1072.7246
1072.7485
1071.7503
1072.2181
1072.2181
1071.75
1072.7485
1072.7246
1071.4346
1070.9107
1070.7477
1070.3409
1069.424
1072.0745
1072.8354
1072.5759
1072.5684
1070.6861
1066.723
1063.4333
1070.0192
1072.1053
1071.5714
1070.8409
1065.7782
1064.9473
1066.9482
1068.0352
1067.1275
1067.2683
1069.9885
1070.7027
1070.722
1071.6168
1071.6167
1070.7216
1070.7024
1069.9885
1067.2683
1067.1279
1068.0354
1066.948
1064.9465
1065.7779
1070.8411
1071.5715
1072.1053
1070.0192
1063.4335
1055.5152
1060.7274
1067.3967
1064.5385
1055.67
1053.071
1051.9628
1054.0213
1055.1717
1054.1356
1055.0007
1058.1106
1061.7484
1062.6504
1065.776
1065.7763
1062.6495
1061.7468
1058.1097
1055.0001
1054.1357
1055.1718
1054.0216
1051.9624
1053.0712
1055.6701
1064.5383
1067.3966
1060.7274
1055.5155
1050.5575
1056.8645
1062.3552
1055.9234
1051.1129
1046.7775
1043.3444
1041.6827
1041.6646
1042.83
1044.384
1045.9474
1043.8477
1042.8128
1042.9734
1042.9731
1042.8121
1043.8429
1045.9445
1044.3817
1042.8285
1041.664
1041.6827
1043.3448
1046.7779
1051.113
1055.9232
1062.3551
1056.8647
1050.5578
1072.6029
1072.8801
1072.9761
1072.9965
1073.0001
1072.9961
1072.9459
1072.9517
1072.9524
1072.9742
1072.9878
1072.9884
1072.8863
1072.9368
1072.9412
1072.9412
1072.9368
1072.8863
1072.9884
1072.9878
1072.9742
1072.9524
1072.9517
1072.9459
1072.9961
1073.0001
1072.9965
1072.976
1072.88
1072.6029
1071.7853
1072.2735
1072.7495
1072.9319
1072.986
1072.9262
1072.6272
1072.5951
1072.6596
1072.6936
1072.7633
1072.9356
1072.7936
1072.7041
1072.7589
1072.7589
1072.704
1072.7936
1072.9356
1072.7633
1072.6936
1072.6596
1072.5951
1072.6272
1072.9262
1072.986
1072.9319
1072.7495
1072.2734
1071.7853
1071.3978
1072.6191
1072.8814
1072.9619
1072.7332
1072.8159
1072.903
1072.9022
1072.8804
1072.9116
1072.9314
1072.9664
1072.8619
1072.3854
1072.1646
1072.1646
1072.3854
1072.8619
1072.9664
1072.9314
1072.9116
1072.8804
1072.9022
1072.903
1072.8159
1072.7332
1072.9619
1072.8814
1072.6191
1071.3978
1063.5037
1057.4855
1067.6429
1071.3888
1071.1205
1069.627
1065.6672
1062.1207
1059.9922
1063.785
1069.2145
1070.4457
1071.8294
1072.6505
1072.0655
1072.0656
1072.6505
1071.8293
1070.4455
1069.2143
1063.7841
1059.9913
1062.1206
1065.6673
1069.627
1071.1203
1071.3887
1067.6429
1057.4856
1063.5038
1050.8754
1046.0639
1047.8707
1052.3987
1059.9775
1053.9752
1048.0314
1044.4916
1044.8284
1048.6725
1052.8418
1057.5613
1052.7858
1052.8437
1055.0197
1055.0195
1052.845
1052.78
1057.5586
1052.8391
1048.6701
1044.8269
1044.4917
1048.032
1053.9756
1059.978
1052.399
1047.8709
1046.0642
1050.8754
1071.9136
1072.7237
1072.9511
1072.9983
1072.9987
1072.9973
1072.996
1072.9996
1072.9993
1072.9986
1072.9531
1072.2321
1069.1204
1066.6308
1065.8245
1065.8246
1066.6307
1069.1203
1072.2321
1072.9531
1072.9986
1072.9993
1072.9996
1072.996
1072.9973
1072.9987
1072.9983
1072.951
1072.7236
1071.9136
1068.9996
1071.4983
1072.6653
1072.9967
1072.991
1072.971
1072.969
1072.9922
1072.993
1072.9967
1072.9937
1072.8106
1068.8971
1066.5049
1063.8815
1063.8817
1066.5051
1068.8971
1072.8106
1072.9937
1072.9967
1072.993
1072.9922
1072.969
1072.971
1072.991
1072.9967
1072.6652
1071.4978
1068.9996
1065.6954
1072.6095
1072.8657
1072.9554
1072.8647
1072.9194
1072.8976
1072.8607
1072.8903
1072.9072
1072.8335
1072.7992
1071.7297
1068.988
1067.8347
1067.8348
1068.9882
1071.7298
1072.7991
1072.8335
1072.9072
1072.8903
1072.8607
1072.8975
1072.9194
1072.8647
1072.9554
1072.8657
1072.6095
1065.6956
1052.4518
1061.2316
1071.0839
1071.2876
1071.733
1071.7359
1070.3129
1069.8721
1068.0784
1069.3771
1070.9439
1070.3453
1069.9315
1067.9268
1061.8313
1061.8319
1067.927
1069.9314
1070.3448
1070.9438
1069.3769
1068.0777
1069.8722
1070.3127
1071.7358
1071.733
1071.2876
1071.084
1061.2315
1052.452
1045.0907
1050.0947
1056.4022
1061.8441
1061.7908
1059.775
1056.2273
1048.1416
1049.1722
1057.9997
1063.5076
1065.5891
1064.0537
1055.6138
1047.5402
1047.5413
1055.613
1064.048
1065.5858
1063.5053
1057.9974
1049.1702
1048.1414
1056.2275
1059.7751
1061.7909
1061.8442
1056.4023
1050.0949
1045.0909
1071.3895
1072.6337
1072.9592
1072.9974
1072.979
1072.9333
1072.9239
1072.9864
1072.9828
1072.9826
1072.4857
1067.0403
1056.03
1052.6879
1051.9862
1051.9866
1052.6886
1056.0298
1067.0403
1072.4858
1072.9826
1072.9828
1072.9863
1072.9239
1072.9334
1072.979
1072.9974
1072.9591
1072.6335
1071.3895
1066.398
1070.6129
1072.5319
1072.9798
1072.9166
1072.4921
1072.1985
1072.6481
1072.8402
1072.9215
1072.9045
1067.0995
1056.7173
1054.0538
1051.1524
1051.1539
1054.0559
1056.7167
1067.0989
1072.9045
1072.9215
1072.8401
1072.648
1072.1986
1072.4922
1072.9166
1072.9798
1072.5316
1070.6121
1066.3979
1061.3272
1072.5189
1072.8208
1072.8647
1072.8388
1071.4378
1069.3086
1068.5462
1072.2706
1072.7705
1072.4965
1070.299
1066.0286
1055.1486
1048.7478
1048.7505
1055.1511
1066.0281
1070.2982
1072.4964
1072.7704
1072.2704
1068.5462
1069.3089
1071.4381
1072.8388
1072.8648
1072.8208
1072.5189
1061.3271
1050.4806
1066.5461
1071.2138
1071.3932
1071.3875
1066.6789
1058.4916
1056.8089
1068.5455
1071.243
1067.7506
1062.5649
1046.0886
1045.785
1039.8257
1039.8305
1045.7877
1046.085
1062.5635
1067.749
1071.2427
1068.5455
1056.8086
1058.4916
1066.6792
1071.3878
1071.3934
1071.214
1066.5464
1050.4807
1047.1338
1053.7409
1060.5189
1063.6008
1060.1805
1054.3954
1047.3798
1045.4959
1053.6099
1060.7356
1060.2483
1057.9101
1052.4588
1045.4982
1036.5768
1036.5811
1045.4961
1052.4436
1057.9005
1060.2427
1060.7331
1053.6083
1045.4945
1047.3795
1054.3951
1060.1802
1063.6009
1060.519
1053.741
1047.134
1071.2821
1072.6049
1072.9526
1072.9798
1072.7789
1072.9899
1072.9999
1072.9945
1072.9013
1072.6367
1065.7045
1047.8506
1033.771
1033.7677
1047.8502
1065.7045
1072.6367
1072.9013
1072.9945
1072.9999
1072.9899
1072.779
1072.9799
1072.9525
1072.6047
1071.2821
1066.7366
1070.6456
1072.5023
1072.8057
1071.9052
1072.8536
1072.9246
1072.9205
1072.4945
1072.8693
1065.3834
1049.4413
1039.1582
1039.1493
1049.4384
1065.3828
1072.869
1072.4942
1072.9205
1072.9246
1072.8535
1071.9057
1072.8061
1072.5021
1070.6447
1066.7365
1062.1501
1072.5569
1072.7964
1072.7561
1070.5162
1068.0238
1067.6248
1070.1417
1071.7227
1072.3694
1068.3608
1062.4292
1041.4714
1041.4588
1062.4269
1068.3599
1072.3692
1071.7221
1070.141
1067.6249
1068.024
1070.5168
1072.7561
1072.7965
1072.5569
1062.1499
1050.3261
1065.9827
1071.337
1071.4518
1064.6507
1052.4938
1048.6617
1058.8625
1067.6608
1068.9556
1067.4306
1054.2176
1034.9251
1034.9026
1054.2053
1067.429
1068.9541
1067.6598
1058.8609
1048.6613
1052.4938
1064.6505
1071.4518
1071.337
1065.9829
1050.3262
1045.5416
1050.8133
1058.069
1064.1851
1056.6633
1050.0927
1045.0266
1050.644
1060.75
1059.933
1053.6003
1050.7159
1040.2544
1040.227
1050.6995
1053.5914
1059.9293
1060.7483
1050.6424
1045.0255
1050.0922
1056.6629
1064.1851
1058.0692
1050.8137
1045.542
1071.2821
1072.6049
1072.9526
1072.9798
1072.7789
1072.9899
1072.9999
1072.9945
1072.9013
1072.6367
1065.7044
1047.8506
1033.7711
1033.7677
1047.8502
1065.7045
1072.6367
1072.9013
1072.9945
1072.9999
1072.9899
1072.779
1072.9799
1072.9525
1072.6046
1071.2821
1066.7366
1070.6456
1072.5023
1072.8057
1071.9052
1072.8535
1072.9245
1072.9205
1072.4945
1072.8693
1065.3833
1049.4411
1039.1581
1039.1493
1049.4383
1065.3828
1072.869
1072.4941
1072.9205
1072.9245
1072.8535
1071.9057
1072.8061
1072.5021
1070.6447
1066.7365
1062.15
1072.5569
1072.7964
1072.7561
1070.5162
1068.0238
1067.6248
1070.1417
1071.7227
1072.3694
1068.3607
1062.429
1041.4712
1041.4588
1062.4269
1068.3599
1072.3692
1071.7221
1070.141
1067.6249
1068.0241
1070.5168
1072.7561
1072.7965
1072.5569
1062.1499
1050.3261
1065.9827
1071.337
1071.4518
1064.6507
1052.4938
1048.6617
1058.8621
1067.6606
1068.9556
1067.4306
1054.2172
1034.9248
1034.9026
1054.2053
1067.429
1068.9541
1067.6598
1058.8611
1048.6614
1052.4941
1064.6506
1071.4517
1071.337
1065.9827
1050.3262
1045.5416
1050.8134
1058.069
1064.1851
1056.6633
1050.0926
1045.0265
1050.6441
1060.7499
1059.9334
1053.6003
1050.7157
1040.2539
1040.227
1050.6995
1053.5913
1059.9292
1060.7483
1050.6424
1045.0258
1050.0926
1056.663
1064.1851
1058.0693
1050.8138
1045.542
1071.3895
1072.6337
1072.9592
1072.9974
1072.979
1072.9334
1072.9239
1072.9864
1072.9828
1072.9826
1072.4858
1067.0404
1056.0301
1052.6879
1051.9862
1051.9866
1052.6886
1056.0299
1067.0402
1072.4858
1072.9826
1072.9828
1072.9864
1072.9239
1072.9334
1072.979
1072.9974
1072.9591
1072.6335
1071.3895
1066.398
1070.6129
1072.5319
1072.9798
1072.9166
1072.4923
1072.1987
1072.6482
1072.8402
1072.9215
1072.9045
1067.0994
1056.7175
1054.0538
1051.1523
1051.1539
1054.056
1056.7169
1067.0988
1072.9045
1072.9215
1072.8401
1072.6483
1072.1988
1072.4924
1072.9167
1072.9798
1072.5316
1070.6121
1066.3979
1061.3272
1072.5189
1072.8208
1072.8647
1072.8388
1071.4381
1069.3087
1068.5464
1072.2706
1072.7705
1072.4965
1070.2988
1066.0286
1055.1485
1048.7477
1048.7506
1055.1512
1066.0281
1070.2982
1072.4964
1072.7704
1072.2703
1068.546
1069.3093
1071.4384
1072.8388
1072.8647
1072.8208
1072.5189
1061.3272
1050.4806
1066.5461
1071.2138
1071.3932
1071.3876
1066.6786
1058.4911
1056.8094
1068.5455
1071.243
1067.7506
1062.5656
1046.0882
1045.7846
1039.8256
1039.8306
1045.7879
1046.085
1062.5635
1067.7488
1071.2426
1068.5454
1056.8084
1058.4919
1066.6789
1071.3876
1071.3933
1071.2139
1066.5463
1050.4807
1047.1338
1053.7409
1060.519
1063.6008
1060.1805
1054.3954
1047.3798
1045.4962
1053.6107
1060.7356
1060.2482
1057.9098
1052.4583
1045.4976
1036.5763
1036.5812
1045.4961
1052.4435
1057.9003
1060.2426
1060.7334
1053.6085
1045.4947
1047.3797
1054.3952
1060.1801
1063.6009
1060.5191
1053.7411
1047.1341
1071.9137
1072.7237
1072.9511
1072.9983
1072.9987
1072.9973
1072.996
1072.9996
1072.9993
1072.9986
1072.9531
1072.2322
1069.1204
1066.6309
1065.8247
1065.8247
1066.6307
1069.1203
1072.2321
1072.9531
1072.9986
1072.9993
1072.9996
1072.996
1072.9973
1072.9987
1072.9983
1072.951
1072.7236
1071.9137
1068.9997
1071.4983
1072.6653
1072.9967
1072.991
1072.971
1072.9691
1072.9922
1072.993
1072.9967
1072.9937
1072.8106
1068.8972
1066.5048
1063.8819
1063.8822
1066.5052
1068.8971
1072.8106
1072.9937
1072.9967
1072.993
1072.9922
1072.9691
1072.971
1072.991
1072.9967
1072.6652
1071.4978
1068.9997
1065.6956
1072.6095
1072.8657
1072.9554
1072.8647
1072.9194
1072.8975
1072.8607
1072.8903
1072.9072
1072.8335
1072.7992
1071.7295
1068.9879
1067.8347
1067.8349
1068.9882
1071.7295
1072.7991
1072.8335
1072.9072
1072.8903
1072.8607
1072.8975
1072.9194
1072.8647
1072.9554
1072.8657
1072.6095
1065.6957
1052.4518
1061.2315
1071.0839
1071.2876
1071.733
1071.7358
1070.3128
1069.872
1068.0779
1069.3772
1070.9439
1070.3452
1069.9315
1067.9268
1061.8315
1061.8319
1067.927
1069.9314
1070.3448
1070.9437
1069.3769
1068.0777
1069.8721
1070.3129
1071.7359
1071.7329
1071.2876
1071.084
1061.2314
1052.4521
1045.0906
1050.0946
1056.4021
1061.8441
1061.7909
1059.7752
1056.2276
1048.1418
1049.1721
1057.9998
1063.5078
1065.5892
1064.0536
1055.6136
1047.5401
1047.5412
1055.6129
1064.048
1065.5858
1063.5054
1057.9977
1049.1705
1048.1416
1056.2277
1059.7752
1061.7909
1061.8441
1056.4022
1050.0949
1045.0909
1072.6029
1072.8801
1072.9761
1072.9965
1073.0001
1072.9961
1072.9458
1072.9516
1072.9523
1072.9742
1072.9878
1072.9884
1072.8863
1072.9368
1072.9412
1072.9412
1072.9368
1072.8863
1072.9884
1072.9878
1072.9742
1072.9523
1072.9516
1072.9458
1072.9961
1073.0001
1072.9965
1072.976
1072.88
1072.6029
1071.7853
1072.2735
1072.7495
1072.9319
1072.986
1072.9262
1072.627
1072.5949
1072.6594
1072.6935
1072.7632
1072.9356
1072.7935
1072.7039
1072.7588
1072.7588
1072.7039
1072.7936
1072.9356
1072.7632
1072.6935
1072.6594
1072.5948
1072.627
1072.9262
1072.986
1072.9319
1072.7494
1072.2732
1071.7853
1071.3978
1072.6192
1072.8814
1072.9619
1072.7331
1072.8159
1072.903
1072.9022
1072.8804
1072.9116
1072.9314
1072.9664
1072.8618
1072.3853
1072.1646
1072.1646
1072.3854
1072.8618
1072.9664
1072.9314
1072.9116
1072.8804
1072.9022
1072.903
1072.816
1072.7332
1072.9619
1072.8814
1072.6191
1071.3978
1063.5037
1057.4856
1067.6429
1071.3888
1071.1205
1069.6271
1065.6675
1062.1206
1059.9915
1063.7846
1069.2144
1070.4457
1071.8294
1072.6504
1072.0655
1072.0655
1072.6504
1071.8293
1070.4455
1069.2143
1063.7841
1059.9913
1062.1207
1065.6675
1069.6272
1071.1204
1071.3887
1067.6428
1057.4857
1063.5039
1050.8753
1046.0639
1047.8707
1052.3987
1059.9775
1053.9752
1048.0317
1044.4918
1044.828
1048.6722
1052.8418
1057.5617
1052.7858
1052.844
1055.0196
1055.0195
1052.8449
1052.7799
1057.5587
1052.8393
1048.6706
1044.8273
1044.4915
1048.0316
1053.9752
1059.9779
1052.3988
1047.8709
1046.0641
1050.8754
1071.3312
1072.6489
1072.9506
1072.9646
1072.9931
1072.9024
1072.3299
1072.4801
1072.5241
1072.7111
1072.8686
1072.9833
1072.9267
1072.6503
1072.768
1072.768
1072.6503
1072.9267
1072.9833
1072.8686
1072.7111
1072.5241
1072.48
1072.3299
1072.9025
1072.9931
1072.9646
1072.9506
1072.6487
1071.3312
1066.7229
1070.6864
1072.5686
1072.5758
1072.8353
1072.0741
1069.4244
1070.3412
1070.7476
1070.9107
1071.4347
1072.7247
1072.7485
1071.7502
1072.2181
1072.218
1071.75
1072.7485
1072.7246
1071.4345
1070.9106
1070.7477
1070.3408
1069.4242
1072.0746
1072.8355
1072.5759
1072.5684
1070.6861
1066.723
1063.4333
1070.0192
1072.1052
1071.5714
1070.8409
1065.7779
1064.9471
1066.9484
1068.0354
1067.1277
1067.2685
1069.9887
1070.7027
1070.7219
1071.6168
1071.6167
1070.7216
1070.7024
1069.9885
1067.2683
1067.1276
1068.0354
1066.9478
1064.9467
1065.7785
1070.8412
1071.5716
1072.1053
1070.0192
1063.4334
1055.5152
1060.7274
1067.3967
1064.5385
1055.6699
1053.071
1051.9627
1054.0216
1055.1718
1054.1359
1055.0009
1058.1108
1061.7483
1062.6501
1065.7758
1065.7759
1062.6496
1061.747
1058.1098
1055.0002
1054.1354
1055.1719
1054.0213
1051.9624
1053.0713
1055.6703
1064.5384
1067.3966
1060.7275
1055.5153
1050.5573
1056.8642
1062.355
1055.9233
1051.1129
1046.7776
1043.3446
1041.6827
1041.6644
1042.8296
1044.3838
1045.9475
1043.8477
1042.8129
1042.9735
1042.9731
1042.8121
1043.8428
1045.9445
1044.3819
1042.8287
1041.6641
1041.6826
1043.3445
1046.7776
1051.1129
1055.9231
1062.3551
1056.8645
1050.5576
)
;

boundaryField
{
    minX
    {
        type            zeroGradient;
    }
    maxX
    {
        type            zeroGradient;
    }
    minY
    {
        type            fixedValue;
        value           uniform 1073;
    }
    minZ
    {
        type            zeroGradient;
    }
    maxZ
    {
        type            zeroGradient;
    }
    bottomWater_to_rightSolid
    {
        type            compressible::turbulentTemperatureCoupledBaffleMixed;
        refValue        nonuniform List<scalar> 
130
(
338.12057
338.21001
338.26689
338.30386
338.32753
338.34533
338.36407
338.39088
338.42726
338.46672
338.50068
338.48444
338.45573
337.96624
338.13458
338.23304
338.29249
338.32748
338.35634
338.38912
338.43027
338.46842
338.4609
338.44388
338.42877
338.4333
337.47794
337.85513
338.10174
338.23814
338.30458
338.35485
338.40754
338.45208
338.49097
338.50655
338.47803
338.4349
338.40467
336.41925
337.22732
337.77147
338.0878
338.23491
338.3002
338.35456
338.41573
338.4751
338.51588
338.49996
338.45075
338.40977
335.10728
336.54347
337.42793
337.94935
338.20193
338.28645
338.32997
338.38714
338.45336
338.50728
338.48706
338.43853
338.40135
335.10734
336.54349
337.42794
337.94936
338.20193
338.28645
338.32997
338.38714
338.45336
338.50728
338.48706
338.43853
338.40135
336.41928
337.22734
337.77148
338.0878
338.23491
338.3002
338.35456
338.41573
338.4751
338.51588
338.49996
338.45075
338.40977
337.47796
337.85514
338.10174
338.23815
338.30459
338.35485
338.40754
338.45208
338.49097
338.50655
338.47803
338.4349
338.40467
337.96628
338.1346
338.23305
338.29249
338.32748
338.35634
338.38912
338.43027
338.46842
338.4609
338.44388
338.42877
338.4333
338.12068
338.21006
338.26691
338.30386
338.32754
338.34533
338.36407
338.39088
338.42726
338.46671
338.50068
338.48444
338.45573
)
;
        refGradient     uniform 0;
        valueFraction   uniform 0.99248593;
        value           nonuniform List<scalar> 
130
(
343.42354
343.52784
343.57248
343.59772
343.61274
343.63057
343.66129
343.71336
343.78203
343.8575
343.93973
343.88242
343.8065
343.33711
343.53981
343.60168
343.62966
343.63604
343.66235
343.72094
343.80619
343.88947
343.82529
343.77468
343.74615
343.78682
342.93733
343.32324
343.55194
343.64549
343.64553
343.68833
343.80031
343.87118
343.92539
343.94168
343.8722
343.78214
343.71477
341.79947
342.64239
343.20002
343.51696
343.60908
343.61343
343.6814
343.79478
343.89732
343.96404
343.92496
343.82509
343.73498
340.40539
341.9095
342.80909
343.37434
343.63089
343.63848
343.63972
343.73427
343.84955
343.95976
343.89358
343.79105
343.71478
340.40544
341.90952
342.80909
343.37434
343.63089
343.63848
343.63972
343.73428
343.84955
343.95976
343.89358
343.79106
343.71479
341.7995
342.6424
343.20002
343.51696
343.60908
343.61343
343.68141
343.79479
343.89732
343.96404
343.92496
343.82509
343.73499
342.93734
343.32325
343.55195
343.64549
343.64553
343.68833
343.80031
343.87119
343.92539
343.94168
343.8722
343.78214
343.71477
343.33714
343.53983
343.60169
343.62967
343.63604
343.66235
343.72094
343.80618
343.88946
343.82529
343.77468
343.74615
343.78682
343.42365
343.52789
343.5725
343.59773
343.61275
343.63057
343.66128
343.71335
343.78202
343.8575
343.93973
343.88242
343.8065
)
;
        Tnbr            T;
        thicknessLayers List<scalar> 0();
        kappaLayers     List<scalar> 0();
        kappaMethod     fluidThermo;
        kappa           none;
        alphaAni        none;
        alpha           none;
        field           T;
    }
    bottomWater_to_leftSolid
    {
        type            compressible::turbulentTemperatureCoupledBaffleMixed;
        refValue        nonuniform List<scalar> 
130
(
338.43526
338.46505
338.48291
338.45088
338.41381
338.38079
338.35947
338.35048
338.35003
338.35585
338.36544
338.37562
338.37331
338.41375
338.41031
338.42708
338.44621
338.45659
338.423
338.39016
338.37324
338.37399
338.39102
338.41588
338.44156
338.43665
338.38555
338.41688
338.46178
338.49279
338.48111
338.44941
338.41937
338.39611
338.40305
338.44071
338.47935
338.50201
338.49963
338.39073
338.43284
338.48398
338.50289
338.46744
338.41894
338.38101
338.37556
338.40837
338.44577
338.45239
338.43069
338.39418
338.38247
338.42083
338.47144
338.49508
338.44764
338.39522
338.36838
338.39009
338.43925
338.44532
338.39579
338.32755
338.24633
338.38247
338.42083
338.47144
338.49508
338.44764
338.39522
338.36838
338.39009
338.43925
338.44532
338.39579
338.32754
338.24632
338.39073
338.43284
338.48398
338.50289
338.46744
338.41894
338.38101
338.37556
338.40838
338.44577
338.45239
338.43068
338.39418
338.38555
338.41688
338.46178
338.49279
338.48111
338.44941
338.41937
338.39611
338.40305
338.44071
338.47935
338.50201
338.49963
338.41375
338.41031
338.42708
338.44621
338.45659
338.423
338.39016
338.37325
338.37399
338.39102
338.41587
338.44157
338.43665
338.43525
338.46504
338.48291
338.45088
338.41381
338.38079
338.35947
338.35048
338.35003
338.35585
338.36544
338.37562
338.37331
)
;
        refGradient     uniform 0;
        valueFraction   uniform 0.99248593;
        value           nonuniform List<scalar> 
130
(
343.78618
343.86317
343.92209
343.84179
343.76867
343.70334
343.65672
343.63568
343.63508
343.64934
343.67031
343.69223
343.67441
343.76742
343.72783
343.758
343.81072
343.87772
343.79897
343.72197
343.67913
343.68222
343.72748
343.78317
343.84451
343.80402
343.6958
343.76426
343.85608
343.92802
343.9156
343.86853
343.81206
343.72928
343.74327
343.84655
343.92674
343.96529
343.95138
343.71608
343.80731
343.90909
343.95115
343.88973
343.79797
343.70765
343.68824
343.78125
343.87226
343.87586
343.83678
343.75968
343.69605
343.77349
343.87808
343.94766
343.84388
343.74229
343.67784
343.74135
343.86644
343.8666
343.76974
343.6803
343.52105
343.69605
343.77349
343.87808
343.94766
343.84388
343.74229
343.67784
343.74135
343.86644
343.86661
343.76974
343.6803
343.52104
343.71608
343.80731
343.90909
343.95115
343.88973
343.79797
343.70765
343.68824
343.78126
343.87226
343.87586
343.83678
343.75967
343.6958
343.76426
343.85607
343.92802
343.9156
343.86854
343.81206
343.72928
343.74327
343.84655
343.92674
343.96529
343.95138
343.76742
343.72783
343.758
343.81071
343.87772
343.79897
343.72197
343.67913
343.68221
343.72747
343.78316
343.84451
343.80403
343.78617
343.86317
343.92209
343.84179
343.76867
343.70334
343.65673
343.63568
343.63507
343.64933
343.67031
343.69223
343.67441
)
;
        Tnbr            T;
        thicknessLayers List<scalar> 0();
        kappaLayers     List<scalar> 0();
        kappaMethod     fluidThermo;
        kappa           none;
        alphaAni        none;
        alpha           none;
        field           T;
    }
    bottomWater_to_heater
    {
        type            compressible::turbulentTemperatureCoupledBaffleMixed;
        refValue        nonuniform List<scalar> 
92
(
337.97456
337.98237
337.9976
338.01837
337.59505
337.6246
337.68659
337.77893
336.46972
336.5016
336.67839
337.01306
316.83394
313.36121
313.36402
316.84062
334.77893
329.88682
329.89879
334.80773
342.94486
337.82089
337.85566
343.02982
344.40214
339.44205
339.53439
344.63475
334.2869
340.72253
334.25534
336.49018
334.60908
336.7157
335.41595
341.33901
316.83394
316.84062
334.77893
334.80773
342.94486
343.02982
344.40214
344.63475
340.72253
341.33901
316.83383
316.83383
313.36112
313.36395
316.84059
316.84059
334.77869
334.77869
329.88667
329.8987
334.80773
334.80773
342.9446
342.9446
337.82075
337.85562
343.0299
343.0299
344.40191
344.40191
339.44197
339.53441
344.63491
344.63491
340.72238
340.72238
336.49017
336.71577
341.33921
341.33921
334.28695
334.25539
334.60915
335.416
336.46972
336.50162
336.67841
337.01307
337.59498
337.62457
337.6866
337.77897
337.97423
337.98226
337.99765
338.0186
)
;
        refGradient     uniform 0;
        valueFraction   nonuniform List<scalar> 
92
(
0.99248593
0.99248593
0.99248593
0.99248593
0.99248593
0.99248593
0.99248593
0.99248593
0.99248593
0.99248593
0.99248593
0.99248593
0.99248593
0.99248593
0.99248593
0.99248593
0.99248593
0.99248593
0.99248593
0.99248593
0.99248593
0.99248593
0.99248593
0.99248593
0.99248593
0.99248593
0.99248593
0.99248593
0.99248593
0.99248593
0.99248593
0.99248593
0.99248593
0.99248593
0.99248593
0.99248593
0.99248593
0.99248593
0.99248593
0.99248593
0.99248593
0.99248593
0.99248593
0.99248593
0.99248593
0.99248593
0.99248593
0.99248593
0.99248593
0.99248593
0.99248593
0.99248593
0.99248593
0.99248593
0.99248593
0.99248593
0.99248593
0.99248593
0.99248593
0.99248593
0.99248593
0.99248593
0.99248593
0.99248593
0.99248593
0.99248593
0.99248593
0.99248593
0.99248593
0.99248593
0.99248593
0.99248593
0.99248593
0.99248593
0.99248593
0.99248593
0.99248593
0.99248593
0.99248593
0.99248593
0.99248593
0.99248593
0.99248593
0.99248593
0.99248593
0.99248593
0.99248593
0.99248593
0.99248593
0.99248593
0.99248593
0.99248593
)
;
        value           nonuniform List<scalar> 
92
(
343.27096
343.2799
343.29502
343.31443
342.96926
343.01484
343.07636
343.15176
341.87289
341.84415
342.01962
342.41214
322.36349
318.91164
318.91443
322.37012
340.18392
335.30711
335.31899
340.21252
348.29679
343.16374
343.19828
348.38112
349.67246
344.70505
344.79673
349.90334
339.63066
346.01794
339.53218
341.75024
339.8833
341.97409
340.75121
346.62977
322.22146
322.22806
340.072
340.10052
348.19389
348.27812
349.59038
349.82107
345.97865
346.59029
322.22134
322.36337
318.91156
318.91437
322.22803
322.37009
340.07176
340.18368
335.30696
335.31891
340.10052
340.21252
348.19363
348.29653
343.16361
343.19823
348.2782
348.38121
349.59014
349.67222
344.70496
344.79675
349.82123
349.90349
345.97849
346.01778
341.75022
341.97416
346.59049
346.62997
339.63071
339.53224
339.88337
340.75127
341.87289
341.84416
342.01964
342.41215
342.96918
343.01481
343.07638
343.15181
343.27063
343.27979
343.29507
343.31465
)
;
        Tnbr            T;
        thicknessLayers List<scalar> 0();
        kappaLayers     List<scalar> 0();
        kappaMethod     fluidThermo;
        kappa           none;
        alphaAni        none;
        alpha           none;
        field           T;
    }
}


// ************************************************************************* //
