/*--------------------------------*- C++ -*----------------------------------*\
| =========                 |                                                 |
| \\      /  F ield         | OpenFOAM: The Open Source CFD Toolbox           |
|  \\    /   O peration     | Version:  v2012                                 |
|   \\  /    A nd           | Website:  www.openfoam.com                      |
|    \\/     M anipulation  |                                                 |
\*---------------------------------------------------------------------------*/
FoamFile
{
    version     2.0;
    format      ascii;
    class       volVectorField;
    location    "10/bottomWater";
    object      U;
}
// * * * * * * * * * * * * * * * * * * * * * * * * * * * * * * * * * * * * * //

dimensions      [0 1 -1 0 0 0 0];


internalField   nonuniform List<vector> 
1460
(
(0.0014380277 -0.008212264 0.00023132396)
(0.0018922208 -0.01434881 0.00090041362)
(0.00016050397 -0.017414483 0.00087573922)
(-6.9661034e-05 -0.014834868 0.0017967805)
(8.2954319e-05 -0.016211959 0.00094403501)
(-0.002487938 -0.015334169 0.0015004521)
(-0.0017823373 -0.010754989 0.0021102254)
(-0.00055755405 -0.01167708 0.0022898929)
(0.00062381058 -0.011775707 0.0023385408)
(0.0016465433 -0.012535096 0.0022157425)
(0.0015950328 -0.013607984 0.0020149263)
(0.00088222532 -0.016982027 0.0016349114)
(-0.0025681905 -0.015002023 0.001673198)
(-0.0020217549 -0.010394056 0.0021753758)
(-0.00044998043 -0.011652422 0.0025339834)
(0.0004499739 -0.011652443 0.0025339828)
(0.0020217567 -0.010394005 0.0021753536)
(0.0025682087 -0.015001943 0.0016731788)
(-0.00088216304 -0.016982124 0.0016348673)
(-0.0015949887 -0.013608314 0.0020148816)
(-0.0016465551 -0.012535404 0.002215698)
(-0.00062382119 -0.011775849 0.0023385385)
(0.00055734399 -0.011677284 0.0022898753)
(0.0017822468 -0.010754551 0.0021102343)
(0.0024880571 -0.015333903 0.0015004666)
(-8.2870021e-05 -0.016211869 0.00094404716)
(6.9681398e-05 -0.014834932 0.0017967613)
(-0.00016055129 -0.017414438 0.00087574449)
(-0.001892226 -0.014348779 0.00090042195)
(-0.0014380297 -0.0082122544 0.00023133305)
(0.0011616407 0.0019175749 0.00067794863)
(0.0036324701 0.012950882 0.0026795821)
(0.00093816063 0.017914457 0.0039121862)
(0.00071283023 0.011304285 0.0028508953)
(9.7193354e-05 0.01715556 0.002120494)
(-0.0043459258 0.014990271 0.0024049242)
(-0.0015126516 0.0025016232 0.0016499618)
(-0.00060806548 0.0030170803 0.0019711718)
(0.00063439515 0.0026654199 0.0016301072)
(0.0016776341 0.0064478804 0.002310292)
(0.0019476107 0.010613955 0.0026528845)
(0.0013342925 0.017782018 0.0036267726)
(-0.0036962274 0.015775525 0.0031719992)
(1.7328832e-05 0.00013046553 0.00016325262)
(-0.00070032279 0.0015941328 0.00065914778)
(0.00070033821 0.0015941102 0.00065912402)
(-1.730717e-05 0.00013044292 0.000163261)
(0.0036962638 0.015775424 0.0031719651)
(-0.0013342011 0.017782127 0.0036267172)
(-0.0019476144 0.010614495 0.0026529499)
(-0.0016776543 0.006448401 0.0023103681)
(-0.00063447217 0.0026658052 0.0016301507)
(0.00060800522 0.003017601 0.0019713121)
(0.0015124225 0.002500434 0.0016497681)
(0.0043461224 0.014989824 0.0024048271)
(-9.7030963e-05 0.017155497 0.0021204235)
(-0.00071290251 0.011304671 0.0028509481)
(-0.00093821318 0.017914421 0.0039121645)
(-0.0036324842 0.012950793 0.0026795631)
(-0.0011616352 0.0019175315 0.00067794606)
(-0.001620075 -0.010428218 0.00062765739)
(-0.0025780392 -0.014112891 -0.00096125216)
(-0.00029192444 -0.016713885 -0.0013387433)
(-0.0020339055 -0.014646814 -0.0012372723)
(-0.0025732731 -0.005497918 0.0011845362)
(0.0022330475 -0.01155463 0.00024450856)
(0.0027185735 -0.012284336 -0.001404053)
(0.0014214287 -0.012640264 -0.0024668661)
(-0.00032141068 -0.012811772 -0.0029051436)
(-0.00124404 -0.013048975 -0.0020822258)
(-0.00064914326 -0.013491201 -0.0016702683)
(0.0015405509 -0.011169167 -0.00064969968)
(0.0051353688 -0.014198218 -0.0018643035)
(0.0046448011 -0.013190257 -0.0037233377)
(0.001109066 -0.013216894 -0.004968017)
(-0.0011090888 -0.01321696 -0.0049680722)
(-0.0046448706 -0.013190161 -0.003723248)
(-0.0051353184 -0.01419811 -0.0018642268)
(-0.001540546 -0.011169088 -0.00064962203)
(0.00064914623 -0.013491419 -0.0016702529)
(0.0012440915 -0.013049277 -0.0020822517)
(0.00032140781 -0.01281193 -0.0029051938)
(-0.001421238 -0.012640362 -0.002466833)
(-0.0027184732 -0.012284149 -0.0014040724)
(-0.0022331496 -0.011554907 0.00024449304)
(0.0025732111 -0.0054973849 0.0011845406)
(0.0020338251 -0.014646782 -0.0012372131)
(0.00029204593 -0.016713853 -0.001338758)
(0.002578039 -0.014112883 -0.00096126816)
(0.0016200916 -0.010428222 0.00062763384)
(0.00017285351 0.00070437229 -0.001496493)
(0.0028520384 0.0086085408 -0.0047084527)
(-8.4925219e-05 0.012602968 -0.0060532156)
(-0.0035135944 0.012899052 -0.0035610096)
(-0.0022318928 0.0059399076 -0.0010582942)
(-0.00065218899 0.0035389413 -0.00148957)
(-0.00066786641 0.0016874063 -0.0012692265)
(-0.00043393786 0.0045841482 -0.0010760252)
(4.1804319e-05 0.0053639466 -0.0010312381)
(0.00033263239 0.0045387849 -0.00091226597)
(5.5149882e-05 0.0052681529 -0.0010654724)
(-0.00035592362 0.0092692657 -0.00050885464)
(-0.001002251 0.011482742 -0.00099365731)
(-0.00093231137 0.0079914333 -0.00069706092)
(-0.00033423633 0.010804714 -0.0004791721)
(0.00033423469 0.010804953 -0.00047922096)
(0.00093231556 0.0079910703 -0.00069703551)
(0.0010022691 0.011482288 -0.00099367376)
(0.00035594506 0.0092695437 -0.0005087858)
(-5.522344e-05 0.0052685788 -0.0010654534)
(-0.00033267845 0.0045394204 -0.00091225601)
(-4.1825337e-05 0.0053642169 -0.0010312763)
(0.00043397552 0.0045844683 -0.0010759932)
(0.00066788603 0.0016865621 -0.0012692272)
(0.00065209128 0.0035388232 -0.001489605)
(0.002231824 0.0059397574 -0.0010581247)
(0.0035136334 0.012899035 -0.0035609264)
(8.4931613e-05 0.012602912 -0.0060531921)
(-0.0028520336 0.0086085036 -0.0047084582)
(-0.0001728603 0.0007043895 -0.0014965077)
(-0.003704235 -0.0080831484 -0.00043310774)
(-0.0036686328 -0.0040306938 -0.00029494086)
(-0.00094888297 0.0010469155 -0.0011713691)
(0.0035704726 -0.0050571061 2.754042e-05)
(0.0053726401 -0.0092726488 -0.0018587423)
(0.0041446262 -0.011524342 -0.0031187972)
(0.002115778 -0.012448047 -0.003186071)
(0.00015482415 -0.01288261 -0.0024789246)
(-0.00070200894 -0.013075023 -0.0023878609)
(-0.0016187408 -0.012838823 -0.0031026296)
(-0.0022673796 -0.012185331 -0.003710714)
(-0.0016580284 -0.011235091 -0.0035581239)
(0.00017371545 -0.012875624 -0.0025176176)
(5.7204569e-05 -0.012163453 -0.0024843172)
(-0.000691876 -0.012222707 -0.0021950471)
(0.00069187017 -0.012222819 -0.0021949873)
(-5.7155414e-05 -0.012163355 -0.0024844104)
(-0.00017387174 -0.01287555 -0.0025176797)
(0.0016578789 -0.011235013 -0.0035581975)
(0.0022673472 -0.012185438 -0.0037106463)
(0.0016188015 -0.012839041 -0.0031024721)
(0.00070204662 -0.013075123 -0.0023877807)
(-0.00015462208 -0.012882701 -0.0024788552)
(-0.0021157239 -0.012447897 -0.0031862548)
(-0.0041447064 -0.011524213 -0.0031188944)
(-0.0053726384 -0.0092724424 -0.0018588079)
(-0.0035704819 -0.0050571003 2.7541833e-05)
(0.00094886423 0.0010469361 -0.0011713796)
(0.0036686173 -0.004030659 -0.00029495541)
(0.0037042189 -0.0080831309 -0.00043310766)
(0.0018043317 -0.0079045842 0.00020817572)
(0.0024919168 -0.010160735 6.934776e-05)
(0.00097165777 -0.013388726 -0.00027439997)
(4.7982621e-05 -0.015813386 0.00035984644)
(-5.901976e-05 -0.017820286 -0.0007584855)
(-0.00059295948 -0.018072835 -0.00030318157)
(-0.00051351085 -0.017123659 0.00089798154)
(-0.00013517786 -0.01697433 0.0013153601)
(0.00035237614 -0.017072253 0.0013412085)
(0.00096117497 -0.017001921 0.0011552368)
(0.0008129855 -0.016606045 0.00084300118)
(0.00035935349 -0.016930354 0.00043923829)
(-0.00067167916 -0.016146916 0.00039693011)
(-0.0009876092 -0.014530283 0.0022529429)
(-0.00021933348 -0.01498828 0.002407023)
(0.00021929393 -0.014988261 0.0024070278)
(0.00098758345 -0.014530325 0.0022529288)
(0.00067168037 -0.016146927 0.00039689582)
(-0.00035934675 -0.016930462 0.00043917962)
(-0.00081297623 -0.016606134 0.00084294741)
(-0.00096117568 -0.017002076 0.0011551526)
(-0.00035237322 -0.017072308 0.0013411859)
(0.00013513612 -0.016974487 0.0013152786)
(0.00051354711 -0.017123434 0.00089814834)
(0.00059298318 -0.01807279 -0.00030313275)
(5.903439e-05 -0.017820313 -0.00075845752)
(-4.7963511e-05 -0.01581335 0.00035983664)
(-0.00097166698 -0.013388705 -0.00027439059)
(-0.0024919104 -0.01016071 6.9356089e-05)
(-0.0018043301 -0.0079045699 0.0002081823)
(6.8888365e-05 0.00053874443 0.0010563737)
(0.0058256606 0.011243429 0.0023676821)
(0.003140304 0.015175211 0.0031713886)
(-0.00036272775 0.016909883 0.0021973538)
(-0.0012611685 0.018974791 -0.00042638128)
(-0.0010549959 0.019096676 -0.00035190016)
(-0.0007197263 0.017894293 0.0015374076)
(-0.0003404912 0.017274782 0.0029165881)
(0.00028989999 0.017453789 0.003075014)
(0.0009259259 0.017669912 0.0026091333)
(0.00085036558 0.017613291 0.0022531678)
(0.00087320779 0.018167312 0.0022345868)
(-0.00025722937 0.017598031 0.0022501659)
(-0.00024418302 0.015142695 0.0056578948)
(-0.00037259111 0.015368954 0.0064817154)
(0.00037259978 0.015368936 0.0064817296)
(0.00024419669 0.015142728 0.0056578647)
(0.00025725538 0.017598036 0.0022500913)
(-0.00087314908 0.0181674 0.0022345112)
(-0.00085027661 0.017613377 0.0022531049)
(-0.00092593819 0.017670065 0.0026090648)
(-0.00028997053 0.017453846 0.0030749777)
(0.00034031425 0.017274915 0.0029165834)
(0.00071966149 0.017894056 0.0015376273)
(0.0010550514 0.019096645 -0.00035186444)
(0.0012611942 0.018974817 -0.0004264043)
(0.00036276517 0.016909875 0.002197332)
(-0.0031403069 0.015175193 0.0031713778)
(-0.0058256576 0.01124341 0.0023676802)
(-6.8886708e-05 0.00053876052 0.0010563827)
(-0.004633915 -0.010061672 0.00051368585)
(-0.002701722 -0.0045345623 0.00092417655)
(-0.00051793045 0.0035351183 0.0021304324)
(-0.0011255164 0.00084193308 -4.4321256e-05)
(-0.00054692576 -0.00734072 0.00062245159)
(-0.00018056036 -0.0078550413 0.00026575625)
(-0.00072690518 -0.0080406249 -0.001368685)
(-0.00032087595 -0.0090060131 -0.0014346545)
(0.00045665027 -0.0080873763 -0.001364762)
(0.00077763843 -0.0069712101 -0.0011010758)
(0.000397072 -0.0063906786 -0.0010371106)
(0.00044206649 -0.0052078521 -0.00074284704)
(0.001198654 -0.002919531 -0.0011179572)
(0.0012268001 -0.0059386892 -0.0025011255)
(0.0001104036 -0.0060423473 -0.0025110062)
(-0.00011039379 -0.0060423001 -0.0025110413)
(-0.0012267902 -0.005938778 -0.0025010593)
(-0.0011986579 -0.0029196639 -0.0011179325)
(-0.00044209659 -0.0052084099 -0.00074287105)
(-0.00039711903 -0.0063906341 -0.001037054)
(-0.00077768987 -0.0069709634 -0.0011010606)
(-0.00045658469 -0.0080870947 -0.0013647671)
(0.00032102435 -0.0090057301 -0.0014345999)
(0.00072691938 -0.0080414507 -0.0013688277)
(0.00018052326 -0.0078550189 0.0002657066)
(0.00054689253 -0.0073408853 0.00062241858)
(0.0011255257 0.00084204126 -4.4273589e-05)
(0.00051793742 0.003535147 0.0021304336)
(0.0027017159 -0.0045345534 0.00092418332)
(0.0046339149 -0.010061665 0.00051369577)
(-0.0019206428 0.0079709454 -0.0029531318)
(-0.0023800097 0.0032571445 -0.0021228887)
(-0.00075952343 0.0060926813 -0.0015845027)
(0.0030301365 0.0083833909 -3.168937e-05)
(0.0022953883 0.010765596 0.0025630454)
(-0.0020298811 0.011569314 0.0042963196)
(-0.0014346505 0.010046996 0.0039413111)
(-0.00074630351 0.0086219083 0.0030558369)
(0.00029276114 0.0070212591 0.0022896672)
(0.00086468533 0.0087912189 0.0035934581)
(0.0010012586 0.010749198 0.0041537014)
(-0.00089500955 0.010387053 0.0039993838)
(-0.0010598408 0.0095306237 0.0026230003)
(0.00017793511 0.0097789616 -0.00057354746)
(-4.2550192e-05 0.0094296495 -0.0016579916)
(4.2576716e-05 0.0094296222 -0.0016579969)
(-0.00017781639 0.0097789766 -0.00057349144)
(0.0010598601 0.0095306218 0.0026230704)
(0.00089495917 0.010387204 0.0039994244)
(-0.0010014969 0.010749191 0.0041536633)
(-0.00086468711 0.0087909367 0.0035932724)
(-0.00029264151 0.0070208852 0.0022894866)
(0.00074658786 0.0086217304 0.0030558675)
(0.0014348329 0.010047347 0.003941455)
(0.0020298939 0.011569281 0.0042962829)
(-0.0022955346 0.010765591 0.0025630294)
(-0.003030234 0.0083833513 -3.171917e-05)
(0.00075949104 0.0060926657 -0.0015845126)
(0.0023799927 0.0032570966 -0.002122891)
(0.001920623 0.0079709163 -0.0029531555)
(0.0013529626 -0.0047793867 -4.0005789e-05)
(-0.00029113162 -0.0088860946 0.0022434225)
(-0.002492706 -0.0078766662 0.0019873658)
(-0.0023535859 -0.0069836067 -0.002099843)
(0.00092532131 -0.0016142255 -0.0034852128)
(0.0032425722 -0.006571563 -0.0046778456)
(0.0034146909 -0.011634509 -0.0056072694)
(0.0014531853 -0.014729239 -0.0053125738)
(-0.0017407953 -0.015135455 -0.0057951856)
(-0.0032874694 -0.011621488 -0.0066235876)
(-0.0031642742 -0.0071441833 -0.00636917)
(-0.001388582 -0.002581282 -0.0043384574)
(-6.8452584e-05 -0.0056967267 -0.0031121268)
(-0.00056333817 -0.0054528848 -0.001004404)
(-0.0002097876 -0.003687053 -0.00085797742)
(0.00020973231 -0.0036873086 -0.00085794337)
(0.0005632722 -0.0054527246 -0.0010044056)
(6.8250495e-05 -0.0056966733 -0.0031122166)
(0.0013885295 -0.0025807679 -0.0043381989)
(0.0031644305 -0.0071440077 -0.0063690283)
(0.0032876056 -0.011621551 -0.0066234875)
(0.0017407805 -0.015135478 -0.0057951062)
(-0.0014533355 -0.014729157 -0.0053125502)
(-0.0034147521 -0.011634492 -0.005607348)
(-0.0032425837 -0.0065713291 -0.0046778184)
(-0.00092532827 -0.0016138377 -0.0034850844)
(0.0023537086 -0.0069834828 -0.0020998126)
(0.0024927685 -0.0078766546 0.0019873563)
(0.00029118507 -0.0088860854 0.0022434365)
(-0.0013529646 -0.0047794107 -4.0006687e-05)
(0.0017343264 -0.0075464034 -0.00028249829)
(0.0021154059 -0.011501199 -0.0006131357)
(0.00084006277 -0.014761604 -0.00086233751)
(-0.00057793751 -0.019281372 -0.0013469294)
(-0.00075311012 -0.020507619 -0.0030199867)
(-0.00052260893 -0.021908943 -0.0026298245)
(0.00019429375 -0.023319981 -0.0027119227)
(8.8806773e-05 -0.023787435 -0.0018321025)
(0.000350769 -0.023495146 -0.0028185943)
(0.0010907077 -0.022535283 -0.0022934998)
(0.00068342551 -0.021911211 -0.0013066375)
(0.00026985895 -0.020584529 -0.0010878694)
(-0.00031796493 -0.018217788 -0.0014382507)
(-0.00056257389 -0.014601975 -0.0014082786)
(-0.00033864397 -0.014954974 -0.0016416213)
(0.00033858943 -0.014954982 -0.0016416187)
(0.00056252729 -0.014601876 -0.0014084123)
(0.00031797581 -0.018217822 -0.0014383479)
(-0.00026984306 -0.02058451 -0.0010879381)
(-0.00068340621 -0.021911198 -0.0013067111)
(-0.001090701 -0.022535082 -0.0022936638)
(-0.00035076328 -0.02349513 -0.0028185466)
(-8.882401e-05 -0.023787359 -0.001832243)
(-0.00019422315 -0.023320033 -0.002711892)
(0.0005226287 -0.021909135 -0.0026298732)
(0.00075308493 -0.020507564 -0.0030200012)
(0.00057794009 -0.019281287 -0.0013469495)
(-0.00084008192 -0.014761548 -0.0008623428)
(-0.0021154096 -0.01150117 -0.00061314603)
(-0.0017343243 -0.0075464026 -0.00028250823)
(0.00063978974 0.00075677294 -9.5090968e-05)
(0.0058656957 0.011726285 -0.00032172664)
(0.001332973 0.016124667 -0.00014160633)
(-0.0029195443 0.020075833 -0.0017790081)
(-0.0025410227 0.020947362 -0.0033091366)
(-0.0020120065 0.019335293 -0.0028284634)
(-0.00098075547 0.023147148 -0.0030188228)
(-7.6655073e-05 0.023746887 -0.0022279207)
(0.00074654787 0.023582388 -0.0040761506)
(0.0013446615 0.022794686 -0.0031667622)
(0.0016109964 0.022349867 -0.0016415752)
(0.0019105061 0.021163515 -0.0010781049)
(0.0017542186 0.019121349 -0.0027336731)
(0.00094754773 0.015787507 -0.0029630431)
(-0.00060146771 0.015420386 -0.0040139211)
(0.00060146691 0.015420385 -0.0040139486)
(-0.00094758267 0.015787416 -0.0029630937)
(-0.0017541492 0.019121362 -0.0027335652)
(-0.0019104502 0.021163504 -0.0010777928)
(-0.0016108999 0.022349857 -0.0016414738)
(-0.0013446006 0.022794467 -0.0031668494)
(-0.00074659259 0.023582356 -0.0040761225)
(7.6587982e-05 0.023746714 -0.0022280194)
(0.00098079149 0.023147235 -0.0030187102)
(0.0020120255 0.019335756 -0.0028285388)
(0.0025409795 0.020947347 -0.0033091255)
(0.0029195394 0.020075758 -0.001778987)
(-0.0013330193 0.016124616 -0.00014158277)
(-0.0058657041 0.011726261 -0.00032173339)
(-0.00063977901 0.00075678359 -9.5086829e-05)
(-0.00288946 -0.0098327614 -0.0012765543)
(-0.0013754737 -0.0051918714 -0.00052467751)
(-0.0011679259 0.0047454677 0.00034349607)
(-0.00043958913 -0.0076823666 0.00082821486)
(0.00088663857 -0.017662022 0.0045284011)
(-0.00049373619 -0.021193828 0.0042293652)
(-0.00048253956 -0.021930774 0.0036623001)
(0.00047883543 -0.022897368 0.0014592424)
(-0.00025503822 -0.019493944 0.0040023117)
(-0.0011285782 -0.019419437 0.0036395077)
(-0.00076886885 -0.019205008 0.0014079986)
(0.00010003673 -0.015159945 0.00042522016)
(0.0015970868 -0.0076091903 -0.00058455512)
(0.00096139274 0.00098788316 -0.0014087708)
(-0.00077802382 -0.0031153607 -0.0016331333)
(0.00077807692 -0.0031152813 -0.0016331816)
(-0.00096136338 0.00098770104 -0.0014086016)
(-0.0015970721 -0.007609735 -0.00058431787)
(-0.00010001834 -0.015159825 0.00042537704)
(0.00076877725 -0.019204999 0.0014081162)
(0.0011284147 -0.019419531 0.0036399423)
(0.00025493629 -0.019493575 0.0040022702)
(-0.00047877537 -0.022897196 0.0014596499)
(0.00048255087 -0.02193086 0.0036622653)
(0.00049382004 -0.021193881 0.0042294348)
(-0.00088654979 -0.017662057 0.0045284622)
(0.00043961281 -0.0076821783 0.0008282488)
(0.0011679146 0.0047455228 0.0003435318)
(0.0013754745 -0.005191849 -0.00052464191)
(0.002889482 -0.0098327603 -0.0012765413)
(-0.00031205113 0.0010208066 -0.00012434339)
(-0.00093187146 0.0055783429 0.0010615499)
(0.0026764591 0.0084918077 0.00099482649)
(0.0067425604 0.010689176 0.0032449906)
(0.0038890011 0.015091093 0.0034574175)
(6.7780706e-05 0.018566578 0.0045579627)
(-0.001044858 0.019707301 0.0029084764)
(-0.0013331535 0.020343276 0.0037359)
(0.0013177249 0.017769765 0.0054233444)
(0.0013883053 0.018157341 0.0057577834)
(-0.00075817993 0.016252033 0.0046514122)
(-0.0040478977 0.013696225 0.002874063)
(-0.0055692772 0.010244548 0.0029148098)
(-0.0037282958 0.0078680677 0.00065983163)
(-0.0010664027 0.0054341375 0.00048395132)
(0.0010664684 0.0054341025 0.00048398403)
(0.003728409 0.0078680181 0.00065974879)
(0.0055693473 0.010244719 0.0029147205)
(0.004047828 0.013696216 0.0028733624)
(0.00075805636 0.016252029 0.0046511389)
(-0.0013884081 0.018157383 0.0057576164)
(-0.0013174478 0.017769178 0.0054232198)
(0.0013333947 0.020343425 0.0037359035)
(0.0010448223 0.01970729 0.0029083355)
(-6.7795592e-05 0.018566594 0.0045578201)
(-0.0038891322 0.015091047 0.003457216)
(-0.0067425774 0.010689115 0.003244907)
(-0.0026764207 0.0084918466 0.00099475359)
(0.00093197155 0.0055782578 0.0010615151)
(0.00031203239 0.0010208753 -0.00012438039)
(-0.0030249645 -0.009081165 0.00067677895)
(-0.0048702603 -0.0085195381 -0.0011241289)
(-0.0045606579 -0.0047530782 -0.0015307437)
(-0.0018137096 -0.0030487726 -0.0015354188)
(-0.00044306767 -0.0026064104 -0.00077048239)
(0.0020334426 -0.00409713 0.00021558822)
(0.0025165435 -0.0083911384 -0.00022260757)
(0.0013643536 -0.020254009 -0.0016638005)
(-0.0035784763 -0.018964843 -0.0043979156)
(-0.0040390875 -0.0073739498 -0.0028588661)
(-0.0022966465 -0.00011555465 -0.00034100918)
(0.00044511865 0.0023314967 0.00079873479)
(0.0021473277 0.001489768 0.001392777)
(0.0045487741 -0.0043929221 0.0016795773)
(0.0025933722 -0.0095250082 0.0022448436)
(-0.0025933773 -0.0095249845 0.0022448337)
(-0.0045487831 -0.0043928455 0.0016796184)
(-0.0021472454 0.001489963 0.0013927949)
(-0.00044508839 0.0023317462 0.00079866164)
(0.0022966633 -0.00011550994 -0.00034093394)
(0.0040392205 -0.0073742532 -0.0028589503)
(0.0035784112 -0.018964809 -0.0043980281)
(-0.0013646309 -0.020253561 -0.0016637505)
(-0.0025165186 -0.0083906257 -0.00022255503)
(-0.0020333754 -0.0040969581 0.0002156213)
(0.00044314414 -0.0026064994 -0.00077045021)
(0.0018137649 -0.0030488693 -0.0015353885)
(0.0045606736 -0.0047531292 -0.001530693)
(0.0048702484 -0.0085195609 -0.0011240895)
(0.0030249265 -0.009081155 0.0006768082)
(0.0016678358 -0.0074496229 -0.00034705931)
(0.0015030639 -0.012228411 -0.00060057378)
(-0.00047912025 -0.016277086 -0.00095167515)
(-0.0032078743 -0.019828605 -0.0013438919)
(-0.0021475105 -0.015699497 -0.0020901993)
(-0.00033341443 -0.016569041 -0.00033352182)
(0.0010192457 -0.016877774 -0.0012996791)
(-2.8281605e-06 -0.01965745 -0.00059360285)
(-0.00034983823 -0.018378132 -0.002272262)
(0.0027519432 -0.016797554 -0.00098796023)
(0.00270093 -0.020486522 -0.0011502642)
(0.00019440032 -0.01850409 -0.0013246563)
(-0.00098207006 -0.015368726 -0.0022665455)
(-0.00098035119 -0.0098134787 -0.0020540438)
(-0.00050259297 -0.0094879087 -0.0019604819)
(0.00050244348 -0.0094879593 -0.0019604955)
(0.00098021771 -0.0098132458 -0.0020540835)
(0.00098210502 -0.015368708 -0.0022665796)
(-0.00019438457 -0.01850378 -0.0013247066)
(-0.0027010672 -0.020486202 -0.0011502852)
(-0.0027517625 -0.016796792 -0.00098794683)
(0.00034987514 -0.018378364 -0.0022723078)
(2.8258096e-06 -0.019657013 -0.00059356066)
(-0.0010190975 -0.016878044 -0.0012997045)
(0.00033333616 -0.016569118 -0.00033356754)
(0.0021475609 -0.015699407 -0.0020902326)
(0.0032079053 -0.019828553 -0.00134391)
(0.00047913678 -0.016277056 -0.00095168286)
(-0.0015030615 -0.012228447 -0.00060057655)
(-0.0016678376 -0.0074496413 -0.00034706541)
(0.0011054886 0.0012092025 0.00038569378)
(0.0058024069 0.012718778 6.1674205e-05)
(0.00055773967 0.017800933 0.00021023489)
(-0.0053223049 0.019492747 -4.6279264e-05)
(-0.001286431 0.0044481665 0.0011613863)
(-0.00071395133 0.0053245516 0.00079908789)
(0.0010086115 0.0095723801 0.0012551648)
(-0.0014662379 0.017539012 0.0024930429)
(1.5331635e-05 0.0074938533 0.0013573592)
(0.0013711081 0.0066302697 0.0016303441)
(0.0035243788 0.020794964 0.0027417913)
(-0.0022103073 0.019390822 8.0672144e-05)
(-0.0037432834 0.014515953 -0.0029352214)
(-0.00173415 0.0040998615 -0.0011806503)
(-0.00084285871 0.0019591271 -0.00068621517)
(0.00084290807 0.0019592425 -0.00068624361)
(0.0017341682 0.0040990061 -0.0011804571)
(0.0037436626 0.014515552 -0.0029350459)
(0.002210523 0.019390543 8.0603073e-05)
(-0.0035247747 0.020794546 0.0027417747)
(-0.0013709225 0.0066285453 0.0016302001)
(-1.5375723e-05 0.0074947212 0.001357385)
(0.001466186 0.017537978 0.0024930693)
(-0.0010086501 0.0095730609 0.0012552275)
(0.00071386797 0.005324485 0.00079910926)
(0.0012864097 0.004447969 0.0011613941)
(0.0053223459 0.019492687 -4.63157e-05)
(-0.00055778581 0.017800908 0.0002101911)
(-0.0058024412 0.012718806 6.1634069e-05)
(-0.0011054973 0.0012091915 0.00038568872)
(-0.0017285684 -0.010519153 0.00047372092)
(-0.00040924626 -0.0074080327 0.00091662724)
(-0.0010686243 0.0045262554 0.0013210779)
(0.0032924839 -0.012400098 0.00012125439)
(0.0033740809 -0.018429082 0.0034511874)
(-0.0032101875 -0.018223195 -0.0024392139)
(-0.0034090303 -0.015610035 -0.0028338643)
(0.0021199488 -0.017037117 -0.00049852889)
(0.0033560045 -0.020373004 0.0037495615)
(-0.0043088057 -0.019099226 0.00011325892)
(-0.0034188737 -0.012669668 0.00095280851)
(-0.00092293266 -0.0034666238 0.00021150318)
(0.0018439892 -0.014513938 0.0014104859)
(0.00076547728 -0.011453739 0.002723702)
(-0.00018143345 -0.010913375 0.0032345264)
(0.00018165969 -0.010913372 0.0032345421)
(-0.00076529592 -0.011453725 0.0027237535)
(-0.0018442649 -0.01451387 0.0014104587)
(0.00092297114 -0.0034645971 0.00021150073)
(0.0034189758 -0.012669009 0.00095299557)
(0.0043086089 -0.019098835 0.00011337348)
(-0.0033560841 -0.020373062 0.0037497066)
(-0.0021199154 -0.017037035 -0.00049879088)
(0.003408822 -0.015610211 -0.0028338866)
(0.0032102449 -0.018223382 -0.002439016)
(-0.0033741095 -0.01842904 0.0034512644)
(-0.0032924848 -0.01239993 0.00012131177)
(0.0010685815 0.004526438 0.0013210342)
(0.00040923932 -0.007408117 0.00091664587)
(0.001728547 -0.010519207 0.00047372723)
(-0.00059976373 -0.0018635339 0.00014062845)
(0.0009537977 0.0085130534 0.00091754509)
(0.0025144316 0.0077509134 0.00066854806)
(0.0065724686 0.01178504 0.0010678577)
(-0.00012306145 0.015172359 -0.0015190979)
(-0.0030342169 0.015258725 -0.0044853487)
(-0.00079981117 0.0048168039 -0.0037669254)
(0.00099356707 0.0042760557 -0.00067984802)
(0.0039668487 0.017361315 0.00036553336)
(0.00038670878 0.017164115 -0.0012048931)
(-0.0033064319 0.012689059 -0.0061639758)
(-0.00051174975 0.0086903399 -0.0040195673)
(-0.0021858163 0.0094266522 -0.0028255852)
(-0.0030869853 0.003174439 0.0023000827)
(-0.00070539884 -0.0012013008 0.0020701555)
(0.00070524722 -0.0012012084 0.002070137)
(0.0030869523 0.003174364 0.0022998969)
(0.00218518 0.0094266818 -0.0028259259)
(0.00051160036 0.0086896631 -0.0040194376)
(0.0033069846 0.012688653 -0.0061639191)
(-0.0003863554 0.01716361 -0.0012050614)
(-0.0039665813 0.017361452 0.00036539918)
(-0.00099364423 0.0042762931 -0.00068013324)
(0.00079985284 0.0048171295 -0.0037670942)
(0.0030341227 0.015258866 -0.0044853375)
(0.00012294761 0.015172321 -0.0015190752)
(-0.006572483 0.011785014 0.0010678832)
(-0.002514374 0.0077509605 0.00066857793)
(-0.00095367952 0.0085131414 0.00091765428)
(0.00059975229 -0.0018635819 0.00014067105)
(-0.0041848533 -0.0083816877 0.00031157678)
(-0.0049030171 -0.0061922433 0.00013002323)
(-0.0038121519 -0.00095099191 0.00036851359)
(-0.00044113398 -0.001041714 -0.00016703328)
(0.0022037255 -0.0030971548 0.0013691628)
(0.005225537 -0.0092994076 0.003362615)
(0.0052869985 -0.015953972 0.0045666898)
(-0.0047684014 -0.017662378 0.0014709266)
(-0.0059697087 -0.010594175 -0.00075625081)
(-0.0018443052 -0.0019837135 0.0004880555)
(0.00092494249 -0.0022867763 0.00093284016)
(0.0030613603 -0.0025935849 0.0029935189)
(0.0037583882 -0.0038835914 0.0023104146)
(0.0050484047 -0.0080855292 0.0026726679)
(0.0027445785 -0.010843565 0.0027557461)
(-0.0027444684 -0.010843555 0.0027557361)
(-0.0050482281 -0.0080854552 0.0026726951)
(-0.0037581953 -0.0038836971 0.0023105576)
(-0.0030614682 -0.0025943327 0.0029941129)
(-0.00092507078 -0.0022866592 0.00093286018)
(0.0018441025 -0.0019836292 0.00048785845)
(0.0059694809 -0.010593511 -0.00075622224)
(0.004768378 -0.017662143 0.0014712058)
(-0.0052868838 -0.015954061 0.0045667194)
(-0.0052254195 -0.0092995445 0.0033627231)
(-0.0022036739 -0.0030975081 0.0013692039)
(0.00044113014 -0.0010418515 -0.00016704477)
(0.003812167 -0.00095113319 0.00036850347)
(0.004903023 -0.0061924206 0.00013001705)
(0.0041848545 -0.008381723 0.00031159811)
(0.0016138905 -0.0076496676 -0.00031117984)
(0.00160849 -0.012396476 -0.00022206907)
(-0.00020404199 -0.016270256 -0.0001372652)
(-0.0032659966 -0.019925938 -2.5787289e-05)
(-0.00039497109 -0.012872958 -0.00037686612)
(0.0011864496 -0.018762101 0.0013528053)
(0.00017378422 -0.02209875 0.00070827544)
(-0.0017251823 -0.020278402 0.00078232322)
(-8.1265034e-05 -0.013924995 -0.00038801871)
(0.0033172559 -0.019603821 0.00054677517)
(0.00072896791 -0.016767349 -0.00026585138)
(-0.001564002 -0.012157443 -0.00064055657)
(-0.0013468971 -0.0077372866 -0.0010390635)
(0.0013468628 -0.0077372934 -0.0010390441)
(0.0015639969 -0.012157459 -0.00064053167)
(-0.00072900242 -0.016767317 -0.00026580104)
(-0.0033172213 -0.01960377 0.00054688704)
(8.1302994e-05 -0.013924683 -0.00038807815)
(0.0017251525 -0.020277951 0.00078243913)
(-0.00017376951 -0.022098798 0.00070823927)
(-0.0011864666 -0.018762195 0.0013528437)
(0.00039498048 -0.012873074 -0.00037686951)
(0.0032660399 -0.019925987 -2.5765316e-05)
(0.00020404879 -0.01627032 -0.00013725199)
(-0.0016084811 -0.012396526 -0.00022205522)
(-0.0016138959 -0.007649676 -0.00031117622)
(0.00085574374 0.00045499633 -0.00024917405)
(0.0061695478 0.012546821 -0.00014563815)
(0.00019001292 0.017834405 -9.9969246e-05)
(-0.0046410476 0.01853196 -0.00060211443)
(-0.00061581261 0.00028931819 -0.00022411619)
(0.0034929936 0.017817025 0.0037829625)
(-0.0016206525 0.021595023 0.0032329109)
(-0.004365678 0.019943627 0.001779635)
(0.0010580866 -0.00049233397 0.00041845269)
(0.0048234492 0.017357401 0.0023713627)
(-0.00081831681 0.01785515 0.0015158572)
(-0.0058400232 0.011643319 -0.00019073903)
(-0.00012566946 -0.0023036156 -0.00071480649)
(0.000125611 -0.0023035192 -0.00071488351)
(0.0058401018 0.011643274 -0.00019096809)
(0.00081820232 0.017855125 0.0015157546)
(-0.0048234397 0.017357163 0.0023714218)
(-0.0010581064 -0.00049240853 0.00041848852)
(0.0043655945 0.019943179 0.0017798646)
(0.0016202336 0.021595052 0.0032329246)
(-0.0034930533 0.017817106 0.0037829399)
(0.00061578099 0.00028920013 -0.00022416128)
(0.0046410569 0.018532024 -0.00060215079)
(-0.00019006301 0.017834464 -0.00010002167)
(-0.0061695523 0.012546868 -0.00014566832)
(-0.00085577101 0.00045498467 -0.00024917821)
(-0.0020796742 -0.010675832 -0.00022898025)
(-0.00019560976 -0.0078542285 -0.00048111565)
(-0.0023662895 0.0055542847 0.000196939)
(0.0045641182 -0.016380369 -0.0019056366)
(-0.0035154535 -0.01505506 -0.0015597061)
(-0.0052129335 -0.0060172615 -0.0028937293)
(0.00061311627 -0.0028705328 -0.0019348089)
(0.0076844264 -0.01320369 -0.0012367638)
(0.0025050926 -0.017179634 -0.00040404333)
(-0.003544935 -0.0061460569 -0.0024097137)
(-4.1183711e-05 0.0069238233 0.0010005291)
(0.00082167529 -0.0092161978 -0.00090324528)
(0.0024740392 -0.011323183 -1.3234665e-05)
(-0.0024741615 -0.011323171 -1.3309334e-05)
(-0.00082154013 -0.0092163521 -0.00090330554)
(4.1138439e-05 0.0069239083 0.0010005432)
(0.0035449294 -0.0061464066 -0.0024100151)
(-0.0025053361 -0.01717916 -0.00040394602)
(-0.007684046 -0.013202289 -0.0012369474)
(-0.00061293753 -0.0028706098 -0.001934824)
(0.0052130924 -0.0060177064 -0.0028938351)
(0.0035153879 -0.015055314 -0.0015597529)
(-0.0045641717 -0.016380396 -0.0019056353)
(0.0023662605 0.0055541952 0.00019686891)
(0.00019560167 -0.0078543973 -0.00048113188)
(0.0020796196 -0.010675863 -0.00022896501)
(-0.00031672501 -0.0014015375 -0.00028646268)
(0.00050815136 0.0089416959 -0.00066033118)
(0.0023048174 0.007963499 -0.00039947173)
(0.006607558 0.013353262 -7.073637e-05)
(-0.0056737891 0.011159872 -0.00045033915)
(-0.00076071182 -0.00050560935 6.5979509e-05)