/*--------------------------------*- C++ -*----------------------------------*\
| =========                 |                                                 |
| \\      /  F ield         | OpenFOAM: The Open Source CFD Toolbox           |
|  \\    /   O peration     | Version:  v2012                                 |
|   \\  /    A nd           | Website:  www.openfoam.com                      |
|    \\/     M anipulation  |                                                 |
\*---------------------------------------------------------------------------*/
FoamFile
{
    version     2.0;
    format      ascii;
    class       volScalarField;
    location    "340/heater";
    object      T;
}
// * * * * * * * * * * * * * * * * * * * * * * * * * * * * * * * * * * * * * //

dimensions      [0 0 0 1 0 0 0];


internalField   nonuniform List<scalar> 
80
(
722.99868
724.96224
728.80036
734.31648
713.87945
716.19542
720.76841
727.37452
694.6526
697.68293
703.81495
712.88299
663.38287
667.21781
675.49845
688.88324
345.23113
342.43122
342.45554
345.21389
420.98287
417.51645
417.72521
421.40011
485.32784
482.39824
483.10664
486.98938
539.64444
537.82002
539.7142
544.34754
584.17814
584.26524
588.79295
596.39313
617.81292
621.30037
630.49972
649.08027
345.18913
342.41447
342.42956
345.15536
420.91172
417.47148
417.66451
421.30216
485.24432
482.33285
483.02162
486.86561
539.55344
537.74026
539.61638
544.21729
584.07698
584.17286
588.68455
596.24599
617.63619
621.12398
630.31572
648.8784
662.72285
666.55966
674.82803
688.19603
693.47508
696.53261
702.69199
711.78957
712.36423
714.74199
719.41814
726.11959
721.34995
723.37678
727.34355
732.99222
)
;

boundaryField
{
    minY
    {
        type            fixedValue;
        value           uniform 300;
    }
    minZ
    {
        type            zeroGradient;
    }
    maxZ
    {
        type            zeroGradient;
    }
    heater_to_topAir
    {
        type            compressible::turbulentTemperatureCoupledBaffleMixed;
        refValue        nonuniform List<scalar> 
40
(
499.5212
498.58651
495.40178
490.44622
468.66528
460.5235
451.00387
441.8309
479.10717
471.33523
460.9212
449.86702
492.52679
489.46222
487.09707
486.56387
489.64139
486.34803
485.85057
488.31161
489.59591
486.44067
486.02162
488.49768
491.918
489.33677
487.67591
487.8911
478.30099
470.86274
461.11001
450.82364
468.04603
459.91983
450.31076
441.00234
498.68606
497.84296
494.75161
489.86892
)
;
        refGradient     uniform 0;
        valueFraction   nonuniform List<scalar> 
40
(
0.00032132529
0.00032132529
0.00032132529
0.00032132529
0.00032132529
0.00032132529
0.00032132529
0.00032132529
0.00032132529
0.00032132529
0.00032132529
0.00032132529
0.00032132529
0.00032132529
0.00032132529
0.00032132529
0.00032132529
0.00032132529
0.00032132529
0.00032132529
0.00032132529
0.00032132529
0.00032132529
0.00032132529
0.00032132529
0.00032132529
0.00032132529
0.00032132529
0.00032132529
0.00032132529
0.00032132529
0.00032132529
0.00032132529
0.00032132529
0.00032132529
0.00032132529
0.00032132529
0.00032132529
0.00032132529
0.00032132529
)
;
        value           nonuniform List<scalar> 
40
(
722.92416
724.88676
728.72259
734.23526
713.79803
716.11062
720.67904
727.28001
694.58092
697.60783
703.73448
712.79596
663.3259
667.15856
675.43572
688.81593
617.77001
621.25524
630.45141
649.02665
617.59335
621.07899
630.2676
648.82502
662.66604
666.50076
674.76592
688.12967
693.40395
696.45811
702.61237
711.70367
712.28377
714.65814
719.32968
726.02588
721.27633
723.30223
727.26668
732.91187
)
;
        Tnbr            T;
        thicknessLayers List<scalar> 0();
        kappaLayers     List<scalar> 0();
        kappaMethod     solidThermo;
        kappa           none;
        alphaAni        none;
        alpha           none;
        field           T;
    }
    heater_to_rightSolid
    {
        type            compressible::turbulentTemperatureCoupledBaffleMixed;
        refValue        nonuniform List<scalar> 10(741.19199 735.54907 724.18134 707.14518 687.01124 686.77286 706.44427 723.13613 734.35496 739.94821);
        refGradient     uniform 0;
        valueFraction   nonuniform List<scalar> 10(0.49999997 0.49999997 0.49999997 0.49999997 0.49999997 0.49999997 0.49999997 0.49999997 0.49999997 0.49999997);
        value           nonuniform List<scalar> 10(737.75281 731.46041 718.53091 698.01306 668.04477 667.82471 697.31915 717.46183 730.23622 736.4691);
        Tnbr            T;
        thicknessLayers List<scalar> 0();
        kappaLayers     List<scalar> 0();
        kappaMethod     solidThermo;
        kappa           none;
        alphaAni        none;
        alpha           none;
        field           T;
    }
    heater_to_leftSolid
    {
        type            compressible::turbulentTemperatureCoupledBaffleMixed;
        refValue        nonuniform List<scalar> 10(859.04743 858.77067 858.18637 857.32661 856.66002 856.21725 856.04858 856.08514 856.23049 856.34486);
        refGradient     uniform 0;
        valueFraction   nonuniform List<scalar> 10(2.0832898e-05 2.0832898e-05 2.0832898e-05 2.0832898e-05 2.0832898e-05 2.0832898e-05 2.0832898e-05 2.0832898e-05 2.0832898e-05 2.0832898e-05);
        value           nonuniform List<scalar> 10(722.9988 713.87984 694.65358 663.38485 617.81617 617.63946 662.72495 693.47648 712.36527 721.35069);
        Tnbr            T;
        thicknessLayers List<scalar> 1(0.001);
        kappaLayers     List<scalar> 1(0.0005);
        kappaMethod     solidThermo;
        kappa           none;
        alphaAni        none;
        alpha           none;
        field           T;
    }
    heater_to_bottomWater
    {
        type            compressible::turbulentTemperatureCoupledBaffleMixed;
        refValue        nonuniform List<scalar> 
92
(
970.83311
967.3387
959.59497
950.91494
969.71985
963.53849
955.67607
950.20645
960.19982
952.93671
951.33013
951.25636
946.48425
940.69127
941.09032
941.52427
946.6942
941.86406
942.1455
942.56415
945.79846
944.187
944.4432
942.50851
945.0915
946.1552
945.36355
937.53145
940.92337
940.92337
937.24458
937.24458
936.13717
936.13717
935.95819
935.95819
946.58408
925.5116
951.57918
932.05293
949.37682
935.21234
946.94578
938.898
940.96796
941.1662
939.19442
948.22
943.36442
939.53292
919.40963
934.76826
944.90548
947.50866
941.68519
935.89389
927.25168
932.44454
943.19459
946.06186
940.67676
934.25779
930.06356
928.31462
941.43344
944.31057
939.52164
933.87772
932.40238
929.68056
937.87922
939.53752
935.75682
931.36557
934.54092
927.28768
939.53752
935.75682
931.36557
927.28768
942.58588
938.25842
934.23468
931.07648
944.07984
941.12416
939.98933
938.78502
948.29109
944.47331
944.04329
942.60398
)
;
        refGradient     uniform 0;
        valueFraction   nonuniform List<scalar> 
92
(
0.0075140686
0.0075140686
0.0075140686
0.0075140686
0.0075140686
0.0075140686
0.0075140686
0.0075140686
0.0075140686
0.0075140686
0.0075140686
0.0075140686
0.0075140686
0.0075140686
0.0075140686
0.0075140686
0.0075140686
0.0075140686
0.0075140686
0.0075140686
0.0075140686
0.0075140686
0.0075140686
0.0075140686
0.0075140686
0.0075140686
0.0075140686
0.0075140686
0.0075140686
0.0075140686
0.0075140686
0.0075140686
0.0075140686
0.0075140686
0.0075140686
0.0075140686
0.0075140679
0.0075140679
0.0075140679
0.0075140679
0.0075140679
0.0075140679
0.0075140679
0.0075140679
0.0075140679
0.0075140679
0.0075140679
0.0075140686
0.0075140686
0.0075140686
0.0075140679
0.0075140686
0.0075140679
0.0075140686
0.0075140686
0.0075140686
0.0075140679
0.0075140686
0.0075140679
0.0075140686
0.0075140686
0.0075140686
0.0075140679
0.0075140686
0.0075140679
0.0075140686
0.0075140686
0.0075140686
0.0075140679
0.0075140686
0.0075140679
0.0075140686
0.0075140686
0.0075140686
0.0075140679
0.0075140686
0.0075140686
0.0075140686
0.0075140686
0.0075140686
0.0075140686
0.0075140686
0.0075140686
0.0075140686
0.0075140686
0.0075140686
0.0075140686
0.0075140686
0.0075140686
0.0075140686
0.0075140686
0.0075140686
)
;
        value           nonuniform List<scalar> 
92
(
724.85823
726.78076
730.53181
735.94118
715.79925
718.05135
722.53086
729.04615
696.64553
699.59857
705.67239
714.67165
349.74886
346.92643
346.95355
349.69441
424.93266
421.45596
421.66524
425.31566
488.78705
485.86733
486.57232
490.41135
542.68986
540.8871
542.76109
547.30078
665.46628
586.85729
669.24469
586.91607
677.45473
591.40142
690.73749
598.94312
349.74961
349.57409
424.96937
425.23667
488.81394
490.35652
542.70379
547.31105
586.85763
598.98225
349.65238
349.7202
346.92988
346.91605
349.47013
349.58553
424.84856
424.86812
421.40997
421.55804
425.10341
425.14243
488.68455
488.7061
485.77604
486.41143
490.19505
490.18191
542.57202
542.59364
540.7581
542.57772
547.13302
547.11256
586.73402
586.74648
586.81321
591.25799
598.7865
598.732
664.80094
668.58049
676.75371
689.9906
695.34495
698.34698
704.42984
713.43527
714.10342
716.44109
721.07355
727.71549
723.05314
725.03605
728.96973
734.56504
)
;
        Tnbr            T;
        thicknessLayers List<scalar> 0();
        kappaLayers     List<scalar> 0();
        kappaMethod     solidThermo;
        kappa           none;
        alphaAni        none;
        alpha           none;
        field           T;
    }
}


// ************************************************************************* //
