/*--------------------------------*- C++ -*----------------------------------*\
| =========                 |                                                 |
| \\      /  F ield         | OpenFOAM: The Open Source CFD Toolbox           |
|  \\    /   O peration     | Version:  v2012                                 |
|   \\  /    A nd           | Website:  www.openfoam.com                      |
|    \\/     M anipulation  |                                                 |
\*---------------------------------------------------------------------------*/
FoamFile
{
    version     2.0;
    format      ascii;
    class       volScalarField;
    location    "20/bottomWater";
    object      p;
}
// * * * * * * * * * * * * * * * * * * * * * * * * * * * * * * * * * * * * * //

dimensions      [1 -1 -2 0 0 0 0];


internalField   nonuniform List<scalar> 
1460
(
353.35625
353.36286
353.35887
353.36087
353.36009
353.36303
353.3655
353.36409
353.36663
353.36228
353.36088
353.36031
353.36051
353.3651
353.36206
353.36207
353.36513
353.36054
353.36033
353.36091
353.36232
353.36665
353.3641
353.3655
353.36304
353.36009
353.36087
353.35887
353.36286
353.35625
274.5351
274.53982
274.51685
274.50367
274.51304
274.53702
274.55853
274.55501
274.55501
274.53869
274.52219
274.50231
274.51907
274.5404
274.55636
274.55639
274.5405
274.5192
274.50244
274.52229
274.53878
274.55506
274.55503
274.55854
274.53703
274.51305
274.50368
274.51685
274.53982
274.5351
196.26337
196.22999
196.24943
196.24462
196.24863
196.22342
196.24292
196.23557
196.24603
196.23476
196.24473
196.24325
196.24074
196.23869
196.24198
196.24203
196.23884
196.24093
196.24344
196.24487
196.23483
196.24607
196.2356
196.24293
196.22344
196.24864
196.24463
196.24943
196.23
196.26338
117.69125
117.66773
117.66628
117.69264
117.67833
117.67398
117.69258
117.70541
117.6859
117.68008
117.66066
117.69383
117.66392
117.69601
117.68967
117.68973
117.69618
117.66411
117.69402
117.6608
117.68015
117.68595
117.70544
117.6926
117.674
117.67834
117.69264
117.66629
117.66773
117.69125
39.237823
39.243318
39.252424
39.250228
39.243906
39.235789
39.233148
39.234625
39.231862
39.236606
39.25061
39.24632
39.246661
39.228172
39.239467
39.239536
39.228335
39.246871
39.246511
39.250758
39.236701
39.231923
39.234664
39.233174
39.235806
39.243917
39.250236
39.25243
39.243322
39.237826
353.36232
353.36436
353.36016
353.36319
353.36204
353.35805
353.36277
353.34804
353.35865
353.3549
353.36123
353.36417
353.36322
353.36282
353.36969
353.36972
353.36288
353.36327
353.36422
353.36128
353.35497
353.35868
353.34805
353.36278
353.35805
353.36204
353.36319
353.36016
353.36436
353.36232
274.54177
274.52194
274.49686
274.50205
274.49759
274.51497
274.52981
274.51273
274.52196
274.51617
274.49505
274.4972
274.49343
274.50341
274.54973
274.54983
274.50371
274.49375
274.49744
274.49526
274.51654
274.52208
274.51277
274.52982
274.51497
274.49759
274.50205
274.49687
274.52194
274.54177
196.23838
196.22926
196.24224
196.28039
196.24531
196.25041
196.22982
196.25718
196.24631
196.24892
196.25513
196.27965
196.24228
196.22683
196.21878
196.21888
196.22714
196.2427
196.27993
196.25528
196.24888
196.24634
196.25721
196.22984
196.25042
196.24532
196.28039
196.24224
196.22926
196.23838
117.69338
117.65659
117.68073
117.69216
117.68931
117.65174
117.66774
117.66926
117.65815
117.65416
117.68079
117.69726
117.68742
117.66737
117.67575
117.67581
117.66764
117.68775
117.69752
117.68094
117.65415
117.65818
117.66929
117.66776
117.65175
117.68932
117.69216
117.68073
117.65659
117.69338
39.237544
39.242808
39.249908
39.262337
39.254428
39.25427
39.257214
39.230664
39.258134
39.252617
39.251608
39.262368
39.252675
39.242005
39.257108
39.257284
39.242288
39.252977
39.262621
39.251781
39.252703
39.258188
39.230699
39.257233
39.254282
39.254436
39.262342
39.249912
39.242811
39.237546
353.36111
353.35983
353.36059
353.36422
353.36092
353.36724
353.35463
353.35386
353.35909
353.35355
353.35941
353.35944
353.3584
353.35645
353.3549
353.3549
353.35628
353.35848
353.35952
353.35947
353.35359
353.35911
353.35387
353.35463
353.36724
353.36092
353.36422
353.36059
353.35983
353.36111
274.53981
274.51385
274.50132
274.50417
274.50785
274.53489
274.51553
274.50802
274.51729
274.51302
274.49558
274.49612
274.49413
274.4961
274.50677
274.50728
274.4976
274.495
274.49659
274.49584
274.51318
274.51737
274.50807
274.51555
274.5349
274.50785
274.50417
274.50132
274.51385
274.53981
196.23824
196.23525
196.2576
196.2692
196.25743
196.23187
196.26002
196.25573
196.27607
196.25558
196.2781
196.28764
196.26568
196.24934
196.24332
196.24356
196.25036
196.26648
196.28816
196.27839
196.25573
196.27614
196.25576
196.26003
196.23187
196.25743
196.2692
196.2576
196.23526
196.23824
117.69001
117.64496
117.69979
117.69114
117.67564
117.67359
117.67698
117.6873
117.66783
117.66605
117.69238
117.70049
117.69008
117.68309
117.68107
117.68062
117.68356
117.69064
117.70092
117.69264
117.66618
117.66788
117.68732
117.67698
117.67359
117.67564
117.69114
117.69979
117.64496
117.69001
39.241768
39.249805
39.255466
39.253622
39.244464
39.254792
39.253667
39.243256
39.270676
39.264529
39.258381
39.266901
39.254364
39.249413
39.252406
39.253516
39.250047
39.254853
39.26727
39.258626
39.264669
39.270743
39.243278
39.253672
39.254791
39.244463
39.253621
39.255467
39.249806
39.241769
353.36031
353.36024
353.36062
353.36105
353.36242
353.33833
353.35716
353.34963
353.36012
353.36298
353.36461
353.36343
353.36569
353.36763
353.36858
353.36812
353.36212
353.36534
353.36349
353.36471
353.36303
353.36017
353.34969
353.35719
353.33834
353.36242
353.36105
353.36062
353.36024
353.36031
274.53539
274.52172
274.49679
274.52599
274.53109
274.51951
274.51612
274.51563
274.53893
274.542
274.50322
274.50068
274.52073
274.52445
274.54933
274.55147
274.53498
274.52343
274.50156
274.50357
274.54214
274.53901
274.51576
274.51616
274.51952
274.53109
274.52599
274.49679
274.52172
274.53539
196.23795
196.2463
196.24117
196.25947
196.23051
196.26612
196.26733
196.26569
196.23599
196.22299
196.26165
196.25414
196.24016
196.24378
196.24168
196.24283
196.24703
196.24205
196.25498
196.26202
196.22313
196.23599
196.26559
196.26728
196.2661
196.2305
196.25947
196.24117
196.2463
196.23795
117.6847
117.63423
117.69712
117.64333
117.6873
117.67834
117.69917
117.68125
117.67514
117.67106
117.68318
117.68622
117.65403
117.67529
117.68845
117.68884
117.67633
117.65498
117.68678
117.68348
117.6712
117.67515
117.68116
117.69911
117.67831
117.68729
117.64333
117.69712
117.63423
117.6847
39.242811
39.254271
39.257172
39.256339
39.233474
39.230322
39.235012
39.23334
39.237031
39.243729
39.239591
39.245697
39.244891
39.235091
39.230945
39.231259
39.235657
39.245431
39.246094
39.239847
39.24386
39.237066
39.233316
39.234985
39.230303
39.233465
39.256337
39.257172
39.254271
39.242812
353.35804
353.35501
353.35434
353.35413
353.34906
353.35099
353.35518
353.34843
353.35911
353.36068
353.36641
353.3589
353.36492
353.36498
353.35895
353.36645
353.36072
353.35923
353.34867
353.35526
353.35101
353.34906
353.35413
353.35434
353.35501
353.35804
274.53859
274.51282
274.5029
274.51037
274.517
274.51525
274.50983
274.51256
274.52908
274.54096
274.50963
274.51571
274.53745
274.53794
274.51596
274.50975
274.54103
274.52929
274.5139
274.51005
274.51528
274.51701
274.51038
274.5029
274.51282
274.53859
196.23938
196.24262
196.25739
196.28081
196.26227
196.27362
196.27544
196.2719
196.24938
196.23502
196.26625
196.25673
196.24727
196.24775
196.25702
196.26638
196.23504
196.24913
196.27046
196.27518
196.27357
196.26226
196.28081
196.25739
196.24262
196.23938
117.68775
117.64817
117.68831
117.67586
117.66898
117.68117
117.70376
117.69707
117.68869
117.66696
117.68531
117.66892
117.68738
117.68769
117.66914
117.68543
117.66699
117.6886
117.69678
117.70364
117.68113
117.66897
117.67585
117.68831
117.64817
117.68775
39.243683
39.254633
39.253947
39.268785
39.2551
39.240098
39.238161
39.236247
39.231403
39.234147
39.242987
39.254459
39.242562
39.242768
39.25462
39.243091
39.234193
39.23139
39.236191
39.238122
39.24008
39.255093
39.268784
39.253947
39.254635
39.243685
353.35804
353.35501
353.35434
353.35413
353.34906
353.35101
353.35526
353.34868
353.35923
353.36072
353.36645
353.35895
353.36498
353.36492
353.35891
353.36642
353.36068
353.35912
353.34845
353.35519
353.35099
353.34906
353.35413
353.35435
353.35501
353.35804
274.53859
274.51282
274.5029
274.51037
274.51701
274.51528
274.51006
274.51395
274.52929
274.54103
274.50975
274.51596
274.53794
274.53746
274.51571
274.50963
274.54096
274.52909
274.51264
274.50985
274.51526
274.51701
274.51038
274.5029
274.51282
274.53859
196.23938
196.24262
196.25739
196.2808
196.26226
196.27356
196.27516
196.2704
196.24911
196.23503
196.26637
196.25701
196.24774
196.24728
196.25673
196.26625
196.23502
196.24937
196.27183
196.27543
196.27362
196.26227
196.28081
196.2574
196.24262
196.23938
117.68775
117.64817
117.6883
117.67585
117.66897
117.68113
117.70363
117.69676
117.68859
117.66698
117.68541
117.66912
117.68768
117.68738
117.66893
117.68532
117.66696
117.68869
117.69706
117.70376
117.68117
117.66899
117.67586
117.68831
117.64818
117.68775
39.243681
39.254631
39.253943
39.268779
39.255087
39.240073
39.238112
39.236178
39.231377
39.234179
39.243078
39.25461
39.242758
39.242568
39.254466
39.242997
39.234157
39.231407
39.236247
39.238163
39.240102
39.255105
39.268789
39.25395
39.254636
39.243686
353.36031
353.36024
353.36062
353.36105
353.36242
353.33834
353.35719
353.34969
353.36017
353.36303
353.36471
353.36349
353.36534
353.36211
353.36812
353.36858
353.36763
353.36569
353.36343
353.36461
353.36298
353.36012
353.34964
353.35716
353.33834
353.36242
353.36105
353.36062
353.36024
353.36031
274.53539
274.52172
274.49679
274.52598
274.53109
274.51951
274.51616
274.51576
274.53901
274.54214
274.50356
274.50156
274.52343
274.535
274.55147
274.54933
274.52445
274.52074
274.50068
274.50323
274.542
274.53893
274.51563
274.51612
274.51951
274.53109
274.52598
274.4968
274.52172
274.53539
196.23795
196.2463
196.24117
196.25946
196.2305
196.26609
196.26727
196.26557
196.23597
196.22312
196.26201
196.25497
196.24205
196.24702
196.24283
196.24168
196.24378
196.24015
196.25414
196.26165
196.223
196.23599
196.26569
196.26734
196.26613
196.23052
196.25948
196.24117
196.24631
196.23796
117.6847
117.63422
117.69711
117.64332
117.68728
117.6783
117.6991
117.68113
117.67513
117.67117
117.68346
117.68677
117.65497
117.67632
117.68883
117.68845
117.67529
117.65403
117.68623
117.68319
117.67107
117.67514
117.68125
117.69917
117.67834
117.6873
117.64333
117.69712
117.63423
117.6847
39.242808
39.254266
39.257166
39.256329
39.233456
39.230292
39.234969
39.233299
39.237045
39.243837
39.239826
39.246078
39.245421
39.235653
39.23126
39.230948
39.235093
39.244895
39.245703
39.239598
39.243738
39.237038
39.233343
39.235016
39.230325
39.233478
39.256344
39.257176
39.254274
39.242814
353.36111
353.35983
353.36059
353.36422
353.36092
353.36724
353.35463
353.35387
353.35912
353.3536
353.35947
353.35952
353.35848
353.35628
353.3549
353.3549
353.35644
353.3584
353.35944
353.35941
353.35355
353.35909
353.35386
353.35463
353.36724
353.36092
353.36422
353.36059
353.35983
353.36112
274.53981
274.51385
274.50131
274.50417
274.50785
274.53489
274.51554
274.50806
274.51737
274.51319
274.49584
274.49659
274.495
274.4976
274.50728
274.50677
274.4961
274.49413
274.49612
274.49558
274.51301
274.51729
274.50803
274.51553
274.5349
274.50785
274.50417
274.50132
274.51385
274.53981
196.23824
196.23525
196.2576
196.26919
196.25742
196.23186
196.26002
196.25575
196.27611
196.2557
196.27837
196.28814
196.26647
196.25036
196.24356
196.24331
196.24934
196.26568
196.28764
196.27811
196.25559
196.27607
196.25574
196.26003
196.23187
196.25743
196.2692
196.2576
196.23526
196.23824
117.69
117.64496
117.69979
117.69113
117.67563
117.67357
117.67697
117.68729
117.66785
117.66613
117.69261
117.7009
117.69062
117.68354
117.6806
117.68106
117.68308
117.69008
117.7005
117.69239
117.66606
117.66784
117.68731
117.67699
117.67359
117.67564
117.69114
117.69979
117.64496
117.69001
39.241764
39.2498
39.25546
39.253613
39.244452
39.254777
39.253652
39.243251
39.270707
39.264628
39.258592
39.267244
39.254838
39.250043
39.253532
39.252425
39.249421
39.25437
39.266909
39.258393
39.264543
39.27069
39.243263
39.253675
39.254797
39.244468
39.253625
39.255468
39.249807
39.24177
353.36232
353.36436
353.36016
353.36319
353.36204
353.35805
353.36278
353.34805
353.3587
353.35501
353.36129
353.36422
353.36327
353.36287
353.36972
353.36969
353.36282
353.36322
353.36417
353.36122
353.35489
353.35865
353.34804
353.36277
353.35805
353.36204
353.36319
353.36016
353.36436
353.36232
274.54177
274.52194
274.49686
274.50205
274.49758
274.51497
274.52982
274.51277
274.52211
274.51673
274.49529
274.49744
274.49374
274.5037
274.54982
274.54973
274.50341
274.49343
274.4972
274.49503
274.51609
274.52195
274.51273
274.52982
274.51497
274.49759
274.50205
274.49686
274.52194
274.54177
196.23837
196.22925
196.24223
196.28038
196.24531
196.25041
196.22982
196.25719
196.24628
196.24874
196.25522
196.27991
196.24269
196.22713
196.21887
196.21878
196.22683
196.24229
196.27966
196.25516
196.24898
196.24633
196.25719
196.22983
196.25041
196.24531
196.28039
196.24224
196.22926
196.23838
117.69337
117.65658
117.68072
117.69215
117.68931
117.65174
117.66774
117.66926
117.65812
117.65402
117.68088
117.69748
117.68773
117.66762
117.6758
117.67575
117.66738
117.68743
117.69727
117.68082
117.65422
117.65817
117.66927
117.66775
117.65175
117.68932
117.69216
117.68073
117.65659
117.69338
39.23754
39.242804
39.249904
39.262332
39.254422
39.254264
39.257208
39.230661
39.258133
39.252631
39.251725
39.262584
39.252953
39.242276
39.25728
39.25711
39.242008
39.252682
39.26238
39.251628
39.252643
39.258152
39.230677
39.257222
39.254276
39.254433
39.262341
39.249911
39.24281
39.237546
353.35625
353.36286
353.35887
353.36087
353.36009
353.36303
353.3655
353.3641
353.36666
353.36233
353.36091
353.36033
353.36054
353.36513
353.36207
353.36205
353.3651
353.36051
353.36031
353.36088
353.36228
353.36663
353.36409
353.3655
353.36303
353.36009
353.36087
353.35887
353.36286
353.35625
274.5351
274.53982
274.51684
274.50367
274.51304
274.53702
274.55854
274.55503
274.55506
274.53879
274.52229
274.50243
274.5192
274.54049
274.55639
274.55636
274.5404
274.51907
274.50231
274.52218
274.53869
274.55501
274.55501
274.55853
274.53702
274.51304
274.50368
274.51685
274.53982
274.5351
196.26337
196.22999
196.24943
196.24462
196.24863
196.22342
196.24292
196.23558
196.24604
196.23479
196.24483
196.24342
196.24092
196.23883
196.24202
196.24197
196.23869
196.24074
196.24326
196.24474
196.23477
196.24604
196.23558
196.24292
196.22342
196.24863
196.24463
196.24943
196.22999
196.26337
117.69124
117.66772
117.66628
117.69264
117.67833
117.67398
117.69258
117.70541
117.6859
117.68009
117.66075
117.69399
117.66409
117.69616
117.68972
117.68967
117.69602
117.66392
117.69384
117.66068
117.6801
117.68592
117.70542
117.69259
117.67399
117.67834
117.69264
117.66629
117.66773
117.69125
39.23782
39.243315
39.252421
39.250225
39.243903
39.235786
39.233147
39.234627
39.231874
39.236644
39.250707
39.246474
39.246844
39.228318
39.239527
39.239466
39.228174
39.246668
39.246332
39.250628
39.236626
39.231879
39.234638
39.233157
39.235795
39.243911
39.250231
39.252427
39.24332
39.237825
)
;

boundaryField
{
    minX
    {
        type            calculated;
        value           nonuniform List<scalar> 
50
(
353.35625
274.5351
196.26337
117.69125
39.237823
353.36232
274.54177
196.23838
117.69338
39.237544
353.36111
274.53981
196.23824
117.69001
39.241768
353.36031
274.53539
196.23795
117.6847
39.242811
353.35804
274.53859
196.23938
117.68775
39.243683
353.35804
274.53859
196.23938
117.68775
39.243681
353.36031
274.53539
196.23795
117.6847
39.242808
353.36111
274.53981
196.23824
117.69
39.241764
353.36232
274.54177
196.23837
117.69337
39.23754
353.35625
274.5351
196.26337
117.69124
39.23782
)
;
    }
    maxX
    {
        type            calculated;
        value           nonuniform List<scalar> 
50
(
353.35625
274.5351
196.26338
117.69125
39.237826
353.36232
274.54177
196.23838
117.69338
39.237546
353.36111
274.53981
196.23824
117.69001
39.241769
353.36031
274.53539
196.23795
117.6847
39.242812
353.35804
274.53859
196.23938
117.68775
39.243685
353.35804
274.53859
196.23938
117.68775
39.243686
353.36031
274.53539
196.23796
117.6847
39.242814
353.36112
274.53981
196.23824
117.69001
39.24177
353.36232
274.54177
196.23838
117.69338
39.237546
353.35625
274.5351
196.26337
117.69125
39.237825
)
;
    }
    minY
    {
        type            calculated;
        value           nonuniform List<scalar> 
292
(
392.4
392.4
392.4
392.4
392.4
392.4
392.4
392.4
392.4
392.4
392.4
392.4
392.4
392.4
392.4
392.4
392.4
392.4
392.4
392.4
392.4
392.4
392.4
392.4
392.4
392.4
392.4
392.4
392.4
392.4
392.4
392.4
392.4
392.4
392.4
392.4
392.4
392.4
392.4
392.4
392.4
392.4
392.4
392.4
392.4
392.4
392.4
392.4
392.4
392.4
392.4
392.4
392.4
392.4
392.4
392.4
392.4
392.4
392.4
392.4
392.4
392.4
392.4
392.4
392.4
392.4
392.4
392.4
392.4
392.4
392.4
392.4
392.4
392.4
392.4
392.4
392.4
392.4
392.4
392.4
392.4
392.4
392.4
392.4
392.4
392.4
392.4
392.4
392.4
392.4
392.4
392.4
392.4
392.4
392.4
392.4
392.4
392.4
392.4
392.4
392.4
392.4
392.4
392.4
392.4
392.4
392.4
392.4
392.4
392.4
392.4
392.4
392.4
392.4
392.4
392.4
392.4
392.4
392.4
392.4
392.4
392.4
392.4
392.4
392.4
392.4
392.4
392.4
392.4
392.4
392.4
392.4
392.4
392.4
392.4
392.4
392.4
392.4
392.4
392.4
392.4
392.4
392.4
392.4
392.4
392.4
392.4
392.4
392.4
392.4
392.4
392.4
392.4
392.4
392.4
392.4
392.4
392.4
392.4
392.4
392.4
392.4
392.4
392.4
392.4
392.4
392.4
392.4
392.4
392.4
392.4
392.4
392.4
392.4
392.4
392.4
392.4
392.4
392.4
392.4
392.4
392.4
392.4
392.4
392.4
392.4
392.4
392.4
392.4
392.4
392.4
392.4
392.4
392.4
392.4
392.4
392.4
392.4
392.4
392.4
392.4
392.4
392.4
392.4
392.4
392.4
392.4
392.4
392.4
392.4
392.4
392.4
392.4
392.4
392.4
392.4
392.4
392.4
392.4
392.4
392.4
392.4
392.4
392.4
392.4
392.4
392.4
392.4
392.4
392.4
392.4
392.4
392.4
392.4
392.4
392.4
392.4
392.4
392.4
392.4
392.4
392.4
392.4
392.4
392.4
392.4
392.4
392.4
392.4
392.4
392.4
392.4
392.4
392.4
392.4
392.4
392.4
392.4
392.4
392.4
392.4
392.4
392.4
392.4
392.4
392.4
392.4
392.4
392.4
392.4
392.4
392.4
392.4
392.4
392.4
392.4
392.4
392.4
392.4
392.4
392.4
392.4
392.4
392.4
392.4
392.4
392.4
392.4
392.4
392.4
392.4
392.4
)
;
    }
    minZ
    {
        type            calculated;
        value           nonuniform List<scalar> 
150
(
353.35625
274.5351
196.26337
117.69125
39.237823
353.36286
274.53982
196.22999
117.66773
39.243318
353.35887
274.51685
196.24943
117.66628
39.252424
353.36087
274.50367
196.24462
117.69264
39.250228
353.36009
274.51304
196.24863
117.67833
39.243906
353.36303
274.53702
196.22342
117.67398
39.235789
353.3655
274.55853
196.24292
117.69258
39.233148
353.36409
274.55501
196.23557
117.70541
39.234625
353.36663
274.55501
196.24603
117.6859
39.231862
353.36228
274.53869
196.23476
117.68008
39.236606
353.36088
274.52219
196.24473
117.66066
39.25061
353.36031
274.50231
196.24325
117.69383
39.24632
353.36051
274.51907
196.24074
117.66392
39.246661
353.3651
274.5404
196.23869
117.69601
39.228172
353.36206
274.55636
196.24198
117.68967
39.239467
353.36207
274.55639
196.24203
117.68973
39.239536
353.36513
274.5405
196.23884
117.69618
39.228335
353.36054
274.5192
196.24093
117.66411
39.246871
353.36033
274.50244
196.24344
117.69402
39.246511
353.36091
274.52229
196.24487
117.6608
39.250758
353.36232
274.53878
196.23483
117.68015
39.236701
353.36665
274.55506
196.24607
117.68595
39.231923
353.3641
274.55503
196.2356
117.70544
39.234664
353.3655
274.55854
196.24293
117.6926
39.233174
353.36304
274.53703
196.22344
117.674
39.235806
353.36009
274.51305
196.24864
117.67834
39.243917
353.36087
274.50368
196.24463
117.69264
39.250236
353.35887
274.51685
196.24943
117.66629
39.25243
353.36286
274.53982
196.23
117.66773
39.243322
353.35625
274.5351
196.26338
117.69125
39.237826
)
;
    }
    maxZ
    {
        type            calculated;
        value           nonuniform List<scalar> 
150
(
353.35625
274.5351
196.26337
117.69124
39.23782
353.36286
274.53982
196.22999
117.66772
39.243315
353.35887
274.51684
196.24943
117.66628
39.252421
353.36087
274.50367
196.24462
117.69264
39.250225
353.36009
274.51304
196.24863
117.67833
39.243903
353.36303
274.53702
196.22342
117.67398
39.235786
353.3655
274.55854
196.24292
117.69258
39.233147
353.3641
274.55503
196.23558
117.70541
39.234627
353.36666
274.55506
196.24604
117.6859
39.231874
353.36233
274.53879
196.23479
117.68009
39.236644
353.36091
274.52229
196.24483
117.66075
39.250707
353.36033
274.50243
196.24342
117.69399
39.246474
353.36054
274.5192
196.24092
117.66409
39.246844
353.36513
274.54049
196.23883
117.69616
39.228318
353.36207
274.55639
196.24202
117.68972
39.239527
353.36205
274.55636
196.24197
117.68967
39.239466
353.3651
274.5404
196.23869
117.69602
39.228174
353.36051
274.51907
196.24074
117.66392
39.246668
353.36031
274.50231
196.24326
117.69384
39.246332
353.36088
274.52218
196.24474
117.66068
39.250628
353.36228
274.53869
196.23477
117.6801
39.236626
353.36663
274.55501
196.24604
117.68592
39.231879
353.36409
274.55501
196.23558
117.70542
39.234638
353.3655
274.55853
196.24292
117.69259
39.233157
353.36303
274.53702
196.22342
117.67399
39.235795
353.36009
274.51304
196.24863
117.67834
39.243911
353.36087
274.50368
196.24463
117.69264
39.250231
353.35887
274.51685
196.24943
117.66629
39.252427
353.36286
274.53982
196.22999
117.66773
39.24332
353.35625
274.5351
196.26337
117.69125
39.237825
)
;
    }
    bottomWater_to_rightSolid
    {
        type            calculated;
        value           nonuniform List<scalar> 
130
(
0.0068714575
0.0065114039
0.010757567
-0.0032986584
-0.0080772971
-0.0053356605
-0.0068264191
-0.0041944023
0.0039171801
0.010235712
0.01242969
0.003321562
-0.0021738044
0.012976541
0.022620793
0.011781454
0.012703374
0.018187548
-0.0093011998
0.0172334
0.01428167
0.014435543
0.02234237
0.009911677
0.0028106103
-0.0024537684
0.014853377
0.02726985
0.018626471
0.024668984
0.030743303
0.0032780455
0.013672037
0.014791311
0.0044631273
0.013621416
0.015466629
0.0098064411
0.0017688597
0.0054310155
0.0060941947
-0.00015302118
0.0038600113
-0.0029341802
-0.0066836207
-0.0050151711
-0.0096970097
-0.0065351511
0.01633663
0.017171773
0.014271448
0.0028122744
0.002768376
0.014619766
0.0030909778
-0.0058070564
-0.0086100218
-0.003808795
-0.0018781609
7.950174e-05
0.01509312
0.028783978
0.013947466
0.014634986
0.0036847212
0.0025684899
0.014465819
0.0029965869
-0.00584348
-0.0085933533
-0.0037527151
-0.001836675
0.00010216686
0.01510453
0.028788849
0.013949659
0.014636337
0.0036855831
0.0048953672
0.0057031261
-0.00040167958
0.0037375817
-0.0029616917
-0.0066567754
-0.0049839833
-0.0096754577
-0.0065221164
0.01634442
0.017175728
0.014273632
0.0028137458
0.014370261
0.026909445
0.018392833
0.024543087
0.030689669
0.0032633979
0.013675131
0.01479689
0.0044680051
0.013625387
0.015467998
0.0098072398
0.001769768
0.012682295
0.022380091
0.011628076
0.012643028
0.018152455
-0.0093230205
0.017222331
0.014275782
0.0144329
0.022341027
0.0099109106
0.002810119
-0.0024538706
0.0066682825
0.0063320202
0.010627676
-0.0033738878
-0.0081206418
-0.0053621216
-0.0068432014
-0.0042050496
0.0039106268
0.010231492
0.012427351
0.0033201839
-0.0021747785
)
;
    }
    bottomWater_to_leftSolid
    {
        type            calculated;
        value           nonuniform List<scalar> 
130
(
-0.0021767736
0.0033181126
0.012424463
0.010228173
0.0039056108
-0.004211453
-0.0068523413
-0.0053751823
-0.0081379067
-0.0033942696
0.010610042
0.006320169
0.0066611293
-0.0024560907
0.0028078331
0.0099083176
0.022337024
0.014428358
0.014269714
0.017214489
-0.0093356514
0.018133635
0.012616584
0.011607931
0.022367592
0.012674927
0.0017676039
0.009805134
0.01546575
0.01362155
0.0044637577
0.014791972
0.013666803
0.0032555673
0.030676002
0.024528658
0.018380679
0.026900927
0.014363874
0.0028110658
0.014270536
0.017172465
0.016339437
-0.0065258249
-0.0096781719
-0.0049875799
-0.006660336
-0.0029691963
0.0037291992
-0.00040911083
0.0056973305
0.0048911199
0.0036827618
0.014633205
0.013946644
0.028785354
0.015100335
9.8348491e-05
-0.0018394495
-0.0037530791
-0.0085966887
-0.0058526958
0.0029874449
0.014458511
0.002561761
0.0036813482
0.014631303
0.013943387
0.028779349
0.015087365
7.2611366e-05
-0.001888193
-0.0038218676
-0.0086232022
-0.0058211057
0.0030782975
0.014609614
0.002758384
0.002807745
0.014266441
0.017165996
0.01632916
-0.0065441467
-0.0097079126
-0.0050305846
-0.0067014618
-0.0029549113
0.0038373764
-0.0001736693
0.0060782956
0.0054205108
0.0017635346
0.0098004304
0.015459631
0.013613168
0.0044518394
0.014777391
0.013651646
0.0032506962
0.030707266
0.024627652
0.018591696
0.027244489
0.014837798
-0.0024598654
0.0028037694
0.0099036188
0.022332043
0.014422354
0.014263603
0.017208493
-0.0093385773
0.018133421
0.012630848
0.011725264
0.022583549
0.012953082
-0.0021801603
0.0033145446
0.012421118
0.010224895
0.0039027879
-0.0042138155
-0.0068533209
-0.0053726064
-0.0081261843
-0.0033560986
0.010707444
0.0064739083
0.0068440987
)
;
    }
    bottomWater_to_heater
    {
        type            calculated;
        value           nonuniform List<scalar> 
92
(
-0.011828352
-0.00053250852
-0.00046433347
-0.011665275
0.002005061
0.017108412
0.017283547
0.0022884556
0.0094132359
0.012406193
0.013515503
0.010047426
353.36763
353.36858
353.36812
353.36212
274.52445
274.54933
274.55147
274.53498
196.24378
196.24168
196.24283
196.24703
117.67529
117.68845
117.68884
117.67633
-0.0049092061
39.235091
-0.0090553896
39.230945
-0.0087405838
39.231259
-0.0043427356
39.235657
353.36492
353.36498
274.53745
274.53794
196.24727
196.24775
117.68738
117.68769
39.242562
39.242768
353.36498
353.36211
353.36812
353.36858
353.36492
353.36763
274.53794
274.535
274.55147
274.54933
274.53746
274.52445
196.24774
196.24702
196.24283
196.24168
196.24728
196.24378
117.68768
117.67632
117.68883
117.68845
117.68738
117.67529
39.242758
39.235653
39.23126
39.230948
39.242568
39.235093
-0.004346967
-0.008739502
-0.0090516608
-0.0049065577
0.010042779
0.013532103
0.012424826
0.0094206487
0.0022759208
0.017279877
0.017109683
0.0020082986
-0.01168194
-0.0004730874
-0.00053412247
-0.011825694
)
;
    }
}


// ************************************************************************* //
