/*--------------------------------*- C++ -*----------------------------------*\
| =========                 |                                                 |
| \\      /  F ield         | OpenFOAM: The Open Source CFD Toolbox           |
|  \\    /   O peration     | Version:  v2012                                 |
|   \\  /    A nd           | Website:  www.openfoam.com                      |
|    \\/     M anipulation  |                                                 |
\*---------------------------------------------------------------------------*/
FoamFile
{
    version     2.0;
    format      ascii;
    class       volScalarField;
    location    "20/bottomWater";
    object      p_rgh;
}
// * * * * * * * * * * * * * * * * * * * * * * * * * * * * * * * * * * * * * //

dimensions      [1 -1 -2 0 0 0 0];


internalField   nonuniform List<scalar> 
1460
(
0.19625042
0.20286308
0.19887169
0.20086647
0.20008825
0.20303297
0.20549561
0.20409
0.20663469
0.20228456
0.20088183
0.20030782
0.2005084
0.20510219
0.20205519
0.20206602
0.20512794
0.20053634
0.20033192
0.2009084
0.20231744
0.20665226
0.20409799
0.20549972
0.20303678
0.20008911
0.20086704
0.19887234
0.20286326
0.19624995
-0.14490192
-0.14018144
-0.16315461
-0.17632566
-0.16696046
-0.14298133
-0.12146876
-0.12499355
-0.12498879
-0.14130634
-0.15781438
-0.1776937
-0.1609287
-0.13959879
-0.12364048
-0.12360642
-0.13950196
-0.16079771
-0.17755812
-0.15771116
-0.14122061
-0.1249382
-0.12496777
-0.12145661
-0.14297414
-0.1669539
-0.17632208
-0.16315194
-0.14018114
-0.14490299
0.063372609
0.029993612
0.049426534
0.044624026
0.048631967
0.023419113
0.04291868
0.035572799
0.046025055
0.034759068
0.044729113
0.04324756
0.040737912
0.03869211
0.04197564
0.042027828
0.038838218
0.040934828
0.043440321
0.044865834
0.03483362
0.046074015
0.035601694
0.04293332
0.023436586
0.04864077
0.04462888
0.049431775
0.029996684
0.063376616
-0.028754471
-0.052273709
-0.053715885
-0.027361704
-0.041666892
-0.046021289
-0.027417655
-0.014590214
-0.034098908
-0.039922442
-0.059337476
-0.026166984
-0.056084736
-0.023985634
-0.030326249
-0.030267795
-0.023821737
-0.055886523
-0.025978048
-0.059199767
-0.039846661
-0.034053682
-0.014558462
-0.027396516
-0.046004564
-0.041658978
-0.027355818
-0.053712734
-0.052271082
-0.028752676
-0.0021767736
0.0033181126
0.012424463
0.010228173
0.0039056108
-0.004211453
-0.0068523413
-0.0053751823
-0.0081379067
-0.0033942696
0.010610042
0.006320169
0.0066611293
-0.011828352
-0.00053250852
-0.00046433347
-0.011665275
0.0068714575
0.0065114039
0.010757567
-0.0032986584
-0.0080772971
-0.0053356605
-0.0068264191
-0.0041944023
0.0039171801
0.010235712
0.01242969
0.003321562
-0.0021738044
0.20232306
0.20436236
0.20015643
0.20318975
0.20203858
0.19804503
0.20276737
0.18804196
0.19865026
0.1949046
0.20122995
0.20417195
0.20321753
0.20282365
0.20969425
0.20971774
0.20287505
0.20327189
0.20421936
0.20128043
0.19497304
0.19868251
0.18805097
0.20277826
0.1980489
0.20203979
0.20319068
0.20015696
0.20436281
0.20232337
-0.13822601
-0.15805706
-0.18313586
-0.17795173
-0.18241438
-0.16503095
-0.1501851
-0.1672691
-0.15803757
-0.16383131
-0.18495287
-0.18280176
-0.18657466
-0.17658816
-0.13026842
-0.13017123
-0.17629383
-0.18624924
-0.18255568
-0.18474161
-0.16346113
-0.15792305
-0.16723051
-0.15017746
-0.16502566
-0.1824106
-0.17794947
-0.18313427
-0.15805631
-0.13822567
0.038376755
0.029255922
0.042236673
0.080385579
0.045311902
0.050409449
0.029822217
0.057180719
0.046307178
0.048923427
0.055132395
0.079653595
0.04228409
0.026832886
0.018781242
0.018879709
0.027139163
0.04270395
0.079933864
0.055283861
0.048883942
0.046340362
0.057214656
0.029837505
0.050419468
0.045316644
0.080389488
0.042239553
0.029258013
0.038378509
-0.026623476
-0.063411603
-0.03927133
-0.027844547
-0.030687514
-0.068258474
-0.052260704
-0.050737548
-0.061850981
-0.065835584
-0.039207156
-0.022741414
-0.032576027
-0.052625814
-0.04424858
-0.044188539
-0.05236281
-0.03225322
-0.022478491
-0.039055007
-0.06584519
-0.061817203
-0.050706243
-0.05224132
-0.068246317
-0.03068105
-0.027840382
-0.039268681
-0.063409907
-0.026621914
-0.0024560907
0.0028078331
0.0099083176
0.022337024
0.014428358
0.014269714
0.017214489
-0.0093356514
0.018133635
0.012616584
0.011607931
0.022367592
0.012674927
0.002005061
0.017108412
0.017283547
0.0022884556
0.012976541
0.022620793
0.011781454
0.012703374
0.018187548
-0.0093011998
0.0172334
0.01428167
0.014435543
0.02234237
0.009911677
0.0028106103
-0.0024537684
0.20111496
0.1998348
0.20059107
0.20422112
0.20091894
0.2072409
0.19462633
0.19385707
0.19909226
0.193552
0.1994099
0.19943789
0.19840088
0.19644504
0.19489541
0.19489739
0.19628236
0.19847841
0.19951933
0.19946714
0.19359206
0.19911343
0.19387065
0.19463298
0.20724445
0.20092009
0.20422147
0.20059113
0.19983474
0.20111488
-0.1401888
-0.16615204
-0.17868375
-0.17583002
-0.17214744
-0.14510723
-0.16447128
-0.17197655
-0.16270948
-0.16698353
-0.1844232
-0.18388377
-0.18587134
-0.18389525
-0.17323222
-0.17271679
-0.18240108
-0.18499501
-0.1834065
-0.18415799
-0.16682097
-0.16262835
-0.17193121
-0.16445308
-0.14510231
-0.17214506
-0.17582882
-0.17868305
-0.1661518
-0.14018855
0.038239472
0.035254531
0.057599739
0.069195554
0.057425898
0.031865749
0.060024775
0.055734088
0.076066508
0.055583267
0.078095919
0.087637689
0.065680727
0.049344342
0.043315831
0.043564494
0.050364931
0.066478212
0.088156102
0.078393431
0.055728972
0.076137571
0.055764082
0.060033206
0.031867505
0.057427349
0.069195953
0.057600891
0.035255547
0.038240633
-0.029994271
-0.0750401
-0.020209047
-0.028858808
-0.04435796
-0.046410555
-0.04301634
-0.032698956
-0.052171127
-0.053954302
-0.027622578
-0.019505604
-0.029921986
-0.036913922
-0.038927797
-0.039382243
-0.036444766
-0.02936409
-0.019079384
-0.02735542
-0.053819935
-0.052116132
-0.032683545
-0.043015361
-0.046412473
-0.044359611
-0.028859092
-0.02020862
-0.075039559
-0.029993408
0.0017676039
0.009805134
0.01546575
0.01362155
0.0044637577
0.014791972
0.013666803
0.0032555673
0.030676002
0.024528658
0.018380679
0.026900927
0.014363874
0.0094132359
0.012406193
0.013515503
0.010047426
0.014853377
0.02726985
0.018626471
0.024668984
0.030743303
0.0032780455
0.013672037
0.014791311
0.0044631273
0.013621416
0.015466629
0.0098064411
0.0017688597
0.2003059
0.20023787
0.20062441
0.20105179
0.2024207
0.17833294
0.19716184
0.18963496
0.20012159
0.20298097
0.20461427
0.20342764
0.20569303
0.20762581
0.20857598
0.20812339
0.20211559
0.20534229
0.2034892
0.20470812
0.20303319
0.20017052
0.18968542
0.19718686
0.17833974
0.20242357
0.20105246
0.2006248
0.2002381
0.20030621
-0.14461175
-0.1582822
-0.18320673
-0.15401441
-0.14890848
-0.1604939
-0.16388247
-0.16437494
-0.1410734
-0.1379991
-0.17677668
-0.17932438
-0.15926504
-0.15554741
-0.13066843
-0.12853429
-0.14501511
-0.15656713
-0.17843972
-0.17643316
-0.13785643
-0.14098519
-0.16424
-0.1638355
-0.16048229
-0.14890838
-0.15401266
-0.18320651
-0.15828154
-0.14461116
0.037953869
0.046302635
0.041169363
0.059469238
0.030511466
0.066123292
0.067334493
0.065692752
0.035990252
0.022991915
0.061646168
0.054138311
0.040155444
0.043775448
0.041679018
0.042830252
0.047026229
0.042052794
0.054978726
0.062022816
0.023133608
0.035987732
0.065585816
0.067280374
0.066101734
0.030503857
0.059465234
0.041169252
0.046303077
0.037954606
-0.035300811
-0.085771471
-0.0228798
-0.076668515
-0.03270081
-0.041661478
-0.020827624
-0.038745868
-0.0448564
-0.048938202
-0.036818022
-0.033779393
-0.065972686
-0.044708919
-0.031547567
-0.031162562
-0.043668299
-0.065017546
-0.03321777
-0.036523113
-0.048804476
-0.044850485
-0.038844955
-0.020888924
-0.041688962
-0.032713054
-0.076673966
-0.022880659
-0.085771229
-0.035300085
0.0028110658
0.014270536
0.017172465
0.016339437
-0.0065258249
-0.0096781719
-0.0049875799
-0.006660336
-0.0029691963
0.0037291992
-0.00040911083
0.0056973305
0.0048911199
-0.0049092061
-0.0090553896
-0.0087405838
-0.0043427356
0.0054310155
0.0060941947
-0.00015302118
0.0038600113
-0.0029341802
-0.0066836207
-0.0050151711
-0.0096970097
-0.0065351511
0.01633663
0.017171773
0.014271448
0.0028122744
0.19803809
0.19500843
0.19434465
0.19412961
0.18905901
0.1909939
0.1951824
0.18843047
0.19910899
0.20067899
0.20641497
0.19890478
0.20492142
0.20498418
0.19895453
0.20644958
0.20072146
0.19922604
0.18867471
0.19525853
0.19101052
0.18906241
0.19413012
0.19434478
0.19500856
0.19803821
-0.14141346
-0.16717957
-0.17710339
-0.16962543
-0.16299556
-0.16474984
-0.17016548
-0.16743525
-0.15091912
-0.13904184
-0.17037329
-0.16429404
-0.14254611
-0.14206059
-0.16404225
-0.17025144
-0.13896855
-0.15071053
-0.16609526
-0.16994592
-0.16472232
-0.16299365
-0.16962478
-0.17710236
-0.16717846
-0.14141261
0.039381496
0.042621451
0.057392806
0.080806566
0.062269804
0.073615018
0.075436535
0.071904747
0.049377839
0.035021566
0.066245489
0.056732057
0.047272576
0.047749729
0.057015134
0.066382165
0.035036723
0.04912725
0.070464221
0.075177231
0.073565966
0.062260189
0.080805669
0.057393945
0.042623203
0.03938334
-0.032253403
-0.071826665
-0.031694181
-0.044142904
-0.051015749
-0.038825048
-0.016236473
-0.02292552
-0.031307042
-0.053040008
-0.034692922
-0.051078296
-0.032622731
-0.032311061
-0.050864482
-0.034574819
-0.053013116
-0.031399305
-0.023216077
-0.016360356
-0.038865506
-0.051027661
-0.044145607
-0.03169353
-0.071825096
-0.032251408
0.0036827618
0.014633205
0.013946644
0.028785354
0.015100335
9.8348491e-05
-0.0018394495
-0.0037530791
-0.0085966887
-0.0058526958
0.0029874449
0.014458511
0.002561761
0.002768376
0.014619766
0.0030909778
-0.0058070564
-0.0086100218
-0.003808795
-0.0018781609
7.950174e-05
0.01509312
0.028783978
0.013947466
0.014634986
0.0036847212
0.19803787
0.1950082
0.19434444
0.19412977
0.18906179
0.19100994
0.1952604
0.1886826
0.19922939
0.20072088
0.20644905
0.19895405
0.20498437
0.20492167
0.19890568
0.20641568
0.20068139
0.19911699
0.18844522
0.19518793
0.19099438
0.18906015
0.19413061
0.19434541
0.1950091
0.19803873
-0.14141392
-0.16718011
-0.17710411
-0.16962622
-0.16299477
-0.16472342
-0.16994071
-0.16605041
-0.15070797
-0.13897143
-0.17025453
-0.16404434
-0.14206261
-0.14254494
-0.16429033
-0.17037194
-0.13903967
-0.15090885
-0.16736278
-0.17015099
-0.16474479
-0.16299357
-0.16962409
-0.17710199
-0.1671783
-0.14141239
0.039380563
0.042620195
0.057390656
0.080801635
0.062255946
0.073561216
0.075162614
0.070403978
0.049110933
0.035027318
0.06637374
0.057008334
0.047744573
0.047276648
0.056734943
0.066249355
0.035020579
0.049365572
0.071831678
0.075426752
0.073617829
0.062273075
0.080810874
0.057395896
0.042624227
0.039384037
-0.032254603
-0.071828284
-0.031697181
-0.044149764
-0.051032136
-0.038870968
-0.016370571
-0.023235379
-0.03141348
-0.053024194
-0.034585663
-0.050876423
-0.03231917
-0.032615799
-0.051072255
-0.034684534
-0.053038515
-0.031311606
-0.022938386
-0.016238817
-0.038825555
-0.051013566
-0.044139733
-0.031691689
-0.071823647
-0.032250666
0.0036813482
0.014631303
0.013943387
0.028779349
0.015087365
7.2611366e-05
-0.001888193
-0.0038218676
-0.0086232022
-0.0058211057
0.0030782975
0.014609614
0.002758384
0.0025684899
0.014465819
0.0029965869
-0.00584348
-0.0085933533
-0.0037527151
-0.001836675
0.00010216686
0.01510453
0.028788849
0.013949659
0.014636337
0.0036855831
0.20030556
0.20023755
0.20062415
0.20105176
0.20242211
0.1783398
0.19718596
0.18968686
0.20017047
0.20303204
0.20470699
0.20348841
0.20534038
0.20210616
0.20812129
0.20857719
0.20762576
0.20569374
0.20342826
0.20461456
0.20298168
0.20012271
0.18964049
0.19716214
0.17833632
0.20241987
0.20105193
0.20062441
0.20023813
0.2003063
-0.14461323
-0.15828376
-0.18320907
-0.15401569
-0.14891099
-0.16048747
-0.16383976
-0.16424214
-0.14099026
-0.13786255
-0.17643962
-0.17844412
-0.15656936
-0.14500234
-0.12853456
-0.13066813
-0.15554739
-0.15926234
-0.17932165
-0.1767745
-0.13799762
-0.14107217
-0.16436778
-0.16387921
-0.16049484
-0.14890688
-0.15401646
-0.18320499
-0.1582811
-0.14461061
0.037951629
0.046299813
0.041165478
0.059460088
0.030498375
0.066094529
0.067270031
0.065568258
0.035972818
0.023119719
0.062011322
0.054969821
0.042048084
0.04702454
0.042828637
0.041675629
0.043776792
0.040153646
0.054142485
0.061651695
0.022995183
0.03599334
0.065689253
0.067336268
0.066130287
0.030515159
0.059479125
0.041172262
0.046305416
0.037956068
-0.035304032
-0.085775466
-0.02288562
-0.076679301
-0.032720586
-0.041698633
-0.020904882
-0.038865873
-0.044872235
-0.048826412
-0.03654014
-0.033232755
-0.065027725
-0.043676235
-0.031169308
-0.031547406
-0.044705487
-0.065966004
-0.033773084
-0.036810815
-0.048932716
-0.044855513
-0.03874977
-0.020831074
-0.041661022
-0.03270143
-0.076669618
-0.022878449
-0.085769642
-0.035299098
0.002807745
0.014266441
0.017165996
0.01632916
-0.0065441467
-0.0097079126
-0.0050305846
-0.0067014618
-0.0029549113
0.0038373764
-0.0001736693
0.0060782956
0.0054205108
-0.004346967
-0.008739502
-0.0090516608
-0.0049065577
0.0048953672
0.0057031261
-0.00040167958
0.0037375817
-0.0029616917
-0.0066567754
-0.0049839833
-0.0096754577
-0.0065221164
0.01634442
0.017175728
0.014273632
0.0028137458
0.20111443
0.1998343
0.20059065
0.20422103
0.2009191
0.20724309
0.19463152
0.1938705
0.19911588
0.19359868
0.19947013
0.19952009
0.19847831
0.19628183
0.19489743
0.1948952
0.19644478
0.19840059
0.19943743
0.19940847
0.19354957
0.1990913
0.19385795
0.19462666
0.20724047
0.20091855
0.20422099
0.20059105
0.19983485
0.20111544
-0.14019039
-0.16615391
-0.17868595
-0.17583268
-0.17214957
-0.14510736
-0.16446276
-0.1719389
-0.16263329
-0.16681032
-0.18415866
-0.18341208
-0.18500065
-0.18240456
-0.1727195
-0.17323466
-0.18389514
-0.18587004
-0.18388221
-0.18442383
-0.16698922
-0.16270859
-0.17197384
-0.16446844
-0.14510374
-0.17214549
-0.17582857
-0.17868247
-0.1661517
-0.14018789
0.038236817
0.035251359
0.05759602
0.069190068
0.057419281
0.031858202
0.060022873
0.055747507
0.076113001
0.05569572
0.078368881
0.088139863
0.066468112
0.050357413
0.043556109
0.043307664
0.049342886
0.065681713
0.087641608
0.078105012
0.055594627
0.076074396
0.055740149
0.060028955
0.031869996
0.057429337
0.069199079
0.057601695
0.035256443
0.038241018
-0.029997787
-0.075044153
-0.020214422
-0.02886597
-0.044368689
-0.046425033
-0.043032893
-0.032709848
-0.052154785
-0.053865772
-0.027390752
-0.019103625
-0.029379644
-0.036455444
-0.03939845
-0.038943666
-0.036915078
-0.029918759
-0.019497835
-0.027609499
-0.053938539
-0.052159735
-0.032691609
-0.043012481
-0.046407548
-0.044356298
-0.028857267
-0.020206827
-0.075037303
-0.029991718
0.0017635346
0.0098004304
0.015459631
0.013613168
0.0044518394
0.014777391
0.013651646
0.0032506962
0.030707266
0.024627652
0.018591696
0.027244489
0.014837798
0.010042779
0.013532103
0.012424826
0.0094206487
0.014370261
0.026909445
0.018392833
0.024543087
0.030689669
0.0032633979
0.013675131
0.01479689
0.0044680051
0.013625387
0.015467998
0.0098072398
0.001769768
0.20232269
0.20436211
0.20015622
0.20318977
0.20203882
0.19804721
0.20277619
0.18805205
0.1986965
0.19500821
0.20129404
0.20422248
0.2032721
0.20287483
0.20971692
0.20969431
0.20282313
0.20321725
0.2041707
0.20122442
0.19489104
0.19864516
0.18804126
0.20276832
0.19804673
0.2020392
0.20319043
0.2001568
0.20436247
0.20232358
-0.13822755
-0.15805851
-0.1831374
-0.17795339
-0.18241551
-0.16503155
-0.15018355
-0.16723411
-0.157894
-0.1632716
-0.18471173
-0.18255809
-0.18625598
-0.17629912
-0.13017563
-0.13026995
-0.17658794
-0.18657342
-0.18280185
-0.18496583
-0.16390683
-0.15805075
-0.16726873
-0.15018328
-0.16503023
-0.18241307
-0.17795103
-0.18313538
-0.15805752
-0.1382258
0.038374284
0.029253196
0.042233866
0.080382462
0.045308317
0.050407929
0.029822514
0.057193975
0.046283927
0.048737355
0.05522017
0.079907336
0.042687382
0.027129047
0.0188735
0.018777547
0.026833538
0.042287801
0.079662528
0.055156013
0.048977694
0.0463265
0.057188251
0.029826824
0.050413866
0.045314848
0.080389444
0.042239158
0.029258114
0.038378088
-0.026626992
-0.063415233
-0.039275684
-0.02784914
-0.030692441
-0.06826257
-0.05226427
-0.050742167
-0.061882973
-0.06598494
-0.039124889
-0.022516496
-0.032274751
-0.05237631
-0.044196783
-0.044252347
-0.052623638
-0.032569841
-0.022728247
-0.039180851
-0.065782471
-0.061827536
-0.050725316
-0.052253568
-0.068254112
-0.030684975
-0.027841559
-0.039268318
-0.063409866
-0.026621515
-0.0024598654
0.0028037694
0.0099036188
0.022332043
0.014422354
0.014263603
0.017208493
-0.0093385773
0.018133421
0.012630848
0.011725264
0.022583549
0.012953082
0.0022759208
0.017279877
0.017109683
0.0020082986
0.012682295
0.022380091
0.011628076
0.012643028
0.018152455
-0.0093230205
0.017222331
0.014275782
0.0144329
0.022341027
0.0099109106
0.002810119
-0.0024538706
0.19624945
0.20286254
0.1988715
0.20086622
0.20008816
0.20303475
0.20549845
0.20409773
0.20665509
0.20232599
0.20091165
0.20033265
0.20053665
0.20512738
0.20206531
0.2020548
0.20510175
0.20050808
0.20030716
0.20088008
0.20228101
0.20663351
0.20409024
0.20549626
0.20303411
0.20008878
0.20086691
0.1988721
0.20286374
0.19625203
-0.14490484
-0.14018342
-0.16315552
-0.17632654
-0.1669599
-0.14298057
-0.12146347
-0.12497444
-0.12493973
-0.14120999
-0.15771268
-0.17756717
-0.16080413
-0.13950691
-0.12361005
-0.12364216
-0.13959852
-0.16092748
-0.17769127
-0.15781552
-0.14131179
-0.12498883
-0.12499144
-0.1214662
-0.1429789
-0.16695771
-0.17632435
-0.16315342
-0.1401805
-0.14489844
0.063371812
0.029991749
0.049425429
0.04462198
0.048631393
0.023422993
0.042918365
0.03557954
0.046037742
0.034788106
0.044825648
0.043415197
0.040917485
0.03882777
0.042022126
0.04197314
0.03869327
0.040742139
0.043255451
0.04474415
0.034774967
0.046038221
0.035580821
0.042924576
0.023424495
0.048634948
0.04462597
0.049428599
0.02999482
0.063371269
-0.028758033
-0.052276982
-0.053719616
-0.027364935
-0.041670482
-0.046021952
-0.027419311
-0.014591805
-0.034103236
-0.039911486
-0.059248226
-0.02601224
-0.055908216
-0.023835521
-0.030275001
-0.030329533
-0.023983723
-0.05607891
-0.026155631
-0.059321162
-0.03989881
-0.034081383
-0.014577946
-0.027410243
-0.046014853
-0.041664791
-0.027358492
-0.053713502
-0.052271533
-0.028752769
-0.0021801603
0.0033145446
0.012421118
0.010224895
0.0039027879
-0.0042138155
-0.0068533209
-0.0053726064
-0.0081261843
-0.0033560986
0.010707444
0.0064739083
0.0068440987
-0.01168194
-0.0004730874
-0.00053412247
-0.011825694
0.0066682825
0.0063320202
0.010627676
-0.0033738878
-0.0081206418
-0.0053621216
-0.0068432014
-0.0042050496
0.0039106268
0.010231492
0.012427351
0.0033201839
-0.0021747785
)
;

boundaryField
{
    minX
    {
        type            fixedFluxPressure;
        gradient        uniform 0;
        value           nonuniform List<scalar> 
50
(
0.19625042
-0.14490192
0.063372609
-0.028754471
-0.0021767736
0.20232306
-0.13822601
0.038376755
-0.026623476
-0.0024560907
0.20111496
-0.1401888
0.038239472
-0.029994271
0.0017676039
0.2003059
-0.14461175
0.037953869
-0.035300811
0.0028110658
0.19803809
-0.14141346
0.039381496
-0.032253403
0.0036827618
0.19803787
-0.14141392
0.039380563
-0.032254603
0.0036813482
0.20030556
-0.14461323
0.037951629
-0.035304032
0.002807745
0.20111443
-0.14019039
0.038236817
-0.029997787
0.0017635346
0.20232269
-0.13822755
0.038374284
-0.026626992
-0.0024598654
0.19624945
-0.14490484
0.063371812
-0.028758033
-0.0021801603
)
;
    }
    maxX
    {
        type            fixedFluxPressure;
        gradient        uniform 0;
        value           nonuniform List<scalar> 
50
(
0.19624995
-0.14490299
0.063376616
-0.028752676
-0.0021738044
0.20232337
-0.13822567
0.038378509
-0.026621914
-0.0024537684
0.20111488
-0.14018855
0.038240633
-0.029993408
0.0017688597
0.20030621
-0.14461116
0.037954606
-0.035300085
0.0028122744
0.19803821
-0.14141261
0.03938334
-0.032251408
0.0036847212
0.19803873
-0.14141239
0.039384037
-0.032250666
0.0036855831
0.2003063
-0.14461061
0.037956068
-0.035299098
0.0028137458
0.20111544
-0.14018789
0.038241018
-0.029991718
0.001769768
0.20232358
-0.1382258
0.038378088
-0.026621515
-0.0024538706
0.19625203
-0.14489844
0.063371269
-0.028752769
-0.0021747785
)
;
    }
    minY
    {
        type            fixedValue;
        value           uniform 0;
    }
    minZ
    {
        type            fixedFluxPressure;
        gradient        uniform 0;
        value           nonuniform List<scalar> 
150
(
0.19625042
-0.14490192
0.063372609
-0.028754471
-0.0021767736
0.20286308
-0.14018144
0.029993612
-0.052273709
0.0033181126
0.19887169
-0.16315461
0.049426534
-0.053715885
0.012424463
0.20086647
-0.17632566
0.044624026
-0.027361704
0.010228173
0.20008825
-0.16696046
0.048631967
-0.041666892
0.0039056108
0.20303297
-0.14298133
0.023419113
-0.046021289
-0.004211453
0.20549561
-0.12146876
0.04291868
-0.027417655
-0.0068523413
0.20409
-0.12499355
0.035572799
-0.014590214
-0.0053751823
0.20663469
-0.12498879
0.046025055
-0.034098908
-0.0081379067
0.20228456
-0.14130634
0.034759068
-0.039922442
-0.0033942696
0.20088183
-0.15781438
0.044729113
-0.059337476
0.010610042
0.20030782
-0.1776937
0.04324756
-0.026166984
0.006320169
0.2005084
-0.1609287
0.040737912
-0.056084736
0.0066611293
0.20510219
-0.13959879
0.03869211
-0.023985634
-0.011828352
0.20205519
-0.12364048
0.04197564
-0.030326249
-0.00053250852
0.20206602
-0.12360642
0.042027828
-0.030267795
-0.00046433347
0.20512794
-0.13950196
0.038838218
-0.023821737
-0.011665275
0.20053634
-0.16079771
0.040934828
-0.055886523
0.0068714575
0.20033192
-0.17755812
0.043440321
-0.025978048
0.0065114039
0.2009084
-0.15771116
0.044865834
-0.059199767
0.010757567
0.20231744
-0.14122061
0.03483362
-0.039846661
-0.0032986584
0.20665226
-0.1249382
0.046074015
-0.034053682
-0.0080772971
0.20409799
-0.12496777
0.035601694
-0.014558462
-0.0053356605
0.20549972
-0.12145661
0.04293332
-0.027396516
-0.0068264191
0.20303678
-0.14297414
0.023436586
-0.046004564
-0.0041944023
0.20008911
-0.1669539
0.04864077
-0.041658978
0.0039171801
0.20086704
-0.17632208
0.04462888
-0.027355818
0.010235712
0.19887234
-0.16315194
0.049431775
-0.053712734
0.01242969
0.20286326
-0.14018114
0.029996684
-0.052271082
0.003321562
0.19624995
-0.14490299
0.063376616
-0.028752676
-0.0021738044
)
;
    }
    maxZ
    {
        type            fixedFluxPressure;
        gradient        uniform 0;
        value           nonuniform List<scalar> 
150
(
0.19624945
-0.14490484
0.063371812
-0.028758033
-0.0021801603
0.20286254
-0.14018342
0.029991749
-0.052276982
0.0033145446
0.1988715
-0.16315552
0.049425429
-0.053719616
0.012421118
0.20086622
-0.17632654
0.04462198
-0.027364935
0.010224895
0.20008816
-0.1669599
0.048631393
-0.041670482
0.0039027879
0.20303475
-0.14298057
0.023422993
-0.046021952
-0.0042138155
0.20549845
-0.12146347
0.042918365
-0.027419311
-0.0068533209
0.20409773
-0.12497444
0.03557954
-0.014591805
-0.0053726064
0.20665509
-0.12493973
0.046037742
-0.034103236
-0.0081261843
0.20232599
-0.14120999
0.034788106
-0.039911486
-0.0033560986
0.20091165
-0.15771268
0.044825648
-0.059248226
0.010707444
0.20033265
-0.17756717
0.043415197
-0.02601224
0.0064739083
0.20053665
-0.16080413
0.040917485
-0.055908216
0.0068440987
0.20512738
-0.13950691
0.03882777
-0.023835521
-0.01168194
0.20206531
-0.12361005
0.042022126
-0.030275001
-0.0004730874
0.2020548
-0.12364216
0.04197314
-0.030329533
-0.00053412247
0.20510175
-0.13959852
0.03869327
-0.023983723
-0.011825694
0.20050808
-0.16092748
0.040742139
-0.05607891
0.0066682825
0.20030716
-0.17769127
0.043255451
-0.026155631
0.0063320202
0.20088008
-0.15781552
0.04474415
-0.059321162
0.010627676
0.20228101
-0.14131179
0.034774967
-0.03989881
-0.0033738878
0.20663351
-0.12498883
0.046038221
-0.034081383
-0.0081206418
0.20409024
-0.12499144
0.035580821
-0.014577946
-0.0053621216
0.20549626
-0.1214662
0.042924576
-0.027410243
-0.0068432014
0.20303411
-0.1429789
0.023424495
-0.046014853
-0.0042050496
0.20008878
-0.16695771
0.048634948
-0.041664791
0.0039106268
0.20086691
-0.17632435
0.04462597
-0.027358492
0.010231492
0.1988721
-0.16315342
0.049428599
-0.053713502
0.012427351
0.20286374
-0.1401805
0.02999482
-0.052271533
0.0033201839
0.19625203
-0.14489844
0.063371269
-0.028752769
-0.0021747785
)
;
    }
    bottomWater_to_rightSolid
    {
        type            fixedFluxPressure;
        gradient        uniform 0;
        value           nonuniform List<scalar> 
130
(
0.0068714575
0.0065114039
0.010757567
-0.0032986584
-0.0080772971
-0.0053356605
-0.0068264191
-0.0041944023
0.0039171801
0.010235712
0.01242969
0.003321562
-0.0021738044
0.012976541
0.022620793
0.011781454
0.012703374
0.018187548
-0.0093011998
0.0172334
0.01428167
0.014435543
0.02234237
0.009911677
0.0028106103
-0.0024537684
0.014853377
0.02726985
0.018626471
0.024668984
0.030743303
0.0032780455
0.013672037
0.014791311
0.0044631273
0.013621416
0.015466629
0.0098064411
0.0017688597
0.0054310155
0.0060941947
-0.00015302118
0.0038600113
-0.0029341802
-0.0066836207
-0.0050151711
-0.0096970097
-0.0065351511
0.01633663
0.017171773
0.014271448
0.0028122744
0.002768376
0.014619766
0.0030909778
-0.0058070564
-0.0086100218
-0.003808795
-0.0018781609
7.950174e-05
0.01509312
0.028783978
0.013947466
0.014634986
0.0036847212
0.0025684899
0.014465819
0.0029965869
-0.00584348
-0.0085933533
-0.0037527151
-0.001836675
0.00010216686
0.01510453
0.028788849
0.013949659
0.014636337
0.0036855831
0.0048953672
0.0057031261
-0.00040167958
0.0037375817
-0.0029616917
-0.0066567754
-0.0049839833
-0.0096754577
-0.0065221164
0.01634442
0.017175728
0.014273632
0.0028137458
0.014370261
0.026909445
0.018392833
0.024543087
0.030689669
0.0032633979
0.013675131
0.01479689
0.0044680051
0.013625387
0.015467998
0.0098072398
0.001769768
0.012682295
0.022380091
0.011628076
0.012643028
0.018152455
-0.0093230205
0.017222331
0.014275782
0.0144329
0.022341027
0.0099109106
0.002810119
-0.0024538706
0.0066682825
0.0063320202
0.010627676
-0.0033738878
-0.0081206418
-0.0053621216
-0.0068432014
-0.0042050496
0.0039106268
0.010231492
0.012427351
0.0033201839
-0.0021747785
)
;
    }
    bottomWater_to_leftSolid
    {
        type            fixedFluxPressure;
        gradient        uniform 0;
        value           nonuniform List<scalar> 
130
(
-0.0021767736
0.0033181126
0.012424463
0.010228173
0.0039056108
-0.004211453
-0.0068523413
-0.0053751823
-0.0081379067
-0.0033942696
0.010610042
0.006320169
0.0066611293
-0.0024560907
0.0028078331
0.0099083176
0.022337024
0.014428358
0.014269714
0.017214489
-0.0093356514
0.018133635
0.012616584
0.011607931
0.022367592
0.012674927
0.0017676039
0.009805134
0.01546575
0.01362155
0.0044637577
0.014791972
0.013666803
0.0032555673
0.030676002
0.024528658
0.018380679
0.026900927
0.014363874
0.0028110658
0.014270536
0.017172465
0.016339437
-0.0065258249
-0.0096781719
-0.0049875799
-0.006660336
-0.0029691963
0.0037291992
-0.00040911083
0.0056973305
0.0048911199
0.0036827618
0.014633205
0.013946644
0.028785354
0.015100335
9.8348491e-05
-0.0018394495
-0.0037530791
-0.0085966887
-0.0058526958
0.0029874449
0.014458511
0.002561761
0.0036813482
0.014631303
0.013943387
0.028779349
0.015087365
7.2611366e-05
-0.001888193
-0.0038218676
-0.0086232022
-0.0058211057
0.0030782975
0.014609614
0.002758384
0.002807745
0.014266441
0.017165996
0.01632916
-0.0065441467
-0.0097079126
-0.0050305846
-0.0067014618
-0.0029549113
0.0038373764
-0.0001736693
0.0060782956
0.0054205108
0.0017635346
0.0098004304
0.015459631
0.013613168
0.0044518394
0.014777391
0.013651646
0.0032506962
0.030707266
0.024627652
0.018591696
0.027244489
0.014837798
-0.0024598654
0.0028037694
0.0099036188
0.022332043
0.014422354
0.014263603
0.017208493
-0.0093385773
0.018133421
0.012630848
0.011725264
0.022583549
0.012953082
-0.0021801603
0.0033145446
0.012421118
0.010224895
0.0039027879
-0.0042138155
-0.0068533209
-0.0053726064
-0.0081261843
-0.0033560986
0.010707444
0.0064739083
0.0068440987
)
;
    }
    bottomWater_to_heater
    {
        type            fixedFluxPressure;
        gradient        uniform 0;
        value           nonuniform List<scalar> 
92
(
-0.011828352
-0.00053250852
-0.00046433347
-0.011665275
0.002005061
0.017108412
0.017283547
0.0022884556
0.0094132359
0.012406193
0.013515503
0.010047426
0.20762581
0.20857598
0.20812339
0.20211559
-0.15554741
-0.13066843
-0.12853429
-0.14501511
0.043775448
0.041679018
0.042830252
0.047026229
-0.044708919
-0.031547567
-0.031162562
-0.043668299
-0.0049092061
-0.0049092061
-0.0090553896
-0.0090553896
-0.0087405838
-0.0087405838
-0.0043427356
-0.0043427356
0.20492142
0.20498418
-0.14254611
-0.14206059
0.047272576
0.047749729
-0.032622731
-0.032311061
0.002561761
0.002768376
0.20498437
0.20210616
0.20812129
0.20857719
0.20492167
0.20762576
-0.14206261
-0.14500234
-0.12853456
-0.13066813
-0.14254494
-0.15554739
0.047744573
0.04702454
0.042828637
0.041675629
0.047276648
0.043776792
-0.03231917
-0.043676235
-0.031169308
-0.031547406
-0.032615799
-0.044705487
0.002758384
-0.004346967
-0.008739502
-0.0090516608
0.0025684899
-0.0049065577
-0.004346967
-0.008739502
-0.0090516608
-0.0049065577
0.010042779
0.013532103
0.012424826
0.0094206487
0.0022759208
0.017279877
0.017109683
0.0020082986
-0.01168194
-0.0004730874
-0.00053412247
-0.011825694
)
;
    }
}


// ************************************************************************* //
