/*--------------------------------*- C++ -*----------------------------------*\
| =========                 |                                                 |
| \\      /  F ield         | OpenFOAM: The Open Source CFD Toolbox           |
|  \\    /   O peration     | Version:  v2012                                 |
|   \\  /    A nd           | Website:  www.openfoam.com                      |
|    \\/     M anipulation  |                                                 |
\*---------------------------------------------------------------------------*/
FoamFile
{
    version     2.0;
    format      ascii;
    class       surfaceScalarField;
    location    "20/bottomWater";
    object      phi;
}
// * * * * * * * * * * * * * * * * * * * * * * * * * * * * * * * * * * * * * //

dimensions      [1 0 -1 0 0 0 0];
oriented        oriented;


internalField   nonuniform List<scalar> 
3858
(
4.4060047e-05
-3.6292186e-05
-6.8805004e-06
0.00014982416
-0.00014027294
3.3506079e-05
6.7220428e-05
3.9673076e-05
4.3176174e-05
-0.00010522927
0.00012422181
4.7861899e-05
-0.0002202564
6.6089416e-05
4.8951572e-05
-0.00019329934
-9.9250023e-05
7.1506839e-05
-7.2643612e-05
-0.00022916668
0.00010692902
3.8737256e-05
-0.00024902497
0.00013639571
0.00014534397
-0.00022100084
0.00011232409
0.000173092
-0.00013918691
0.00011088159
7.2511067e-05
-9.4470683e-07
0.00010115888
-0.00011019258
0.00011043322
7.2116937e-05
-0.00018531877
2.1670051e-06
7.2745665e-05
-8.5107618e-05
-0.00019952312
9.7817201e-05
-1.5978309e-10
-0.00015142717
6.5503702e-05
8.5109709e-05
-0.00015143147
6.5501976e-05
0.00018532291
-0.00019953082
9.7814294e-05
0.00011019682
2.1626626e-06
7.274063e-05
-7.2507178e-05
0.0001104305
7.2111996e-05
-0.00017309357
-9.4313682e-07
0.00010115388
-0.0001453471
-0.00013919118
0.00011087649
-3.873959e-05
-0.00022100631
0.00011232293
7.2640711e-05
-0.00024902669
0.00013639534
0.00019329397
-0.00022916228
0.00010692571
0.00022025864
-9.9256183e-05
7.150411e-05
0.00010523519
6.6087087e-05
4.8949953e-05
-6.7214573e-05
0.00012422277
4.7860811e-05
-0.00014981833
3.96731e-05
4.3175935e-05
-4.4053791e-05
-0.00014027207
3.3504707e-05
-3.6282298e-05
-6.8839908e-06
0.00011844636
-0.00016961133
1.4872789e-05
0.00032672876
-0.00041241034
6.3855e-05
0.0002661707
-5.9302982e-06
0.00010616143
-0.00019460374
0.00051830336
6.6692894e-05
-0.00038529737
0.00019479589
6.1987151e-05
-0.00025327758
-0.00028483678
5.3566969e-05
-7.9265999e-05
-0.00047395454
7.077628e-05
4.2481427e-05
-0.00052532262
0.00015455022
0.00016368172
-0.00047190844
0.00012970731
0.00028967725
-0.00037716596
0.00011198352
0.00022621908
-8.1874206e-05
0.00014438768
-0.00020024997
0.00040559816
0.00013130413
-0.00029402158
-6.7317894e-05
0.00016325652
-0.00013579001
-0.00049144024
0.00013368555
-6.0408261e-09
-0.0003322714
4.5060254e-05
0.00013578057
-0.00033227314
4.5055057e-05
0.00029401694
-0.00049144168
0.00013367447
0.00020025101
-6.731424e-05
0.00016324283
-0.00022621081
0.00040559574
0.00013129658
-0.0002896786
-8.1855922e-05
0.00014438057
-0.00016368207
-0.00037715202
0.00011196432
-4.2482512e-05
-0.00047191019
0.00012970433
7.926568e-05
-0.00052532265
0.00015454777
0.00025327564
-0.00047394316
7.0770925e-05
0.0003852969
-0.00028484689
5.3569448e-05
0.00019461707
0.00019477551
6.1991411e-05
-0.0002661615
0.00051830653
6.6694797e-05
-0.00032672438
-5.9284683e-06
0.00010616445
-0.00011844132
-0.00041241031
6.3855178e-05
-0.00016959415
1.4870529e-05
0.00013567964
-0.00034907739
4.378642e-05
-0.00014571785
-0.00011998794
-1.1024914e-05
-9.9044682e-05
-6.58904e-05
1.3286939e-05
-1.3151958e-05
0.0004527523
-2.0341663e-05
3.6018265e-05
0.00010869682
3.6928846e-05
5.3393133e-06
-0.00017912525
-7.5032579e-05
-4.6060843e-05
-0.00033963944
-8.2914951e-05
-7.5810324e-06
-0.00042871719
-0.00013508523
9.7547273e-06
-0.00037127904
-0.00011796515
-6.8344846e-05
-0.00021838792
-8.0678456e-05
-4.5847512e-05
-6.1926731e-05
-4.2444792e-05
7.3960743e-05
0.00028076647
5.0234502e-06
8.5783903e-05
-8.6011318e-05
6.8702746e-06
4.2868548e-05
-0.00042053014
-2.7994747e-05
-6.9756787e-09
-0.00025380149
-3.5594384e-05
-4.2884187e-05
-0.00025379635
-3.5599596e-05
-8.5796145e-05
-0.00042052647
-2.8003258e-05
-7.3959798e-05
-8.6014346e-05
6.863754e-06
4.585149e-05
0.00028077171
5.0127414e-06
6.83637e-05
-6.1925541e-05
-4.2442585e-05
-9.745445e-06
-0.00021838059
-8.0662275e-05
7.5839906e-06
-0.00037128137
-0.00011795825
4.606536e-05
-0.00042871868
-0.00013508533
-5.3326276e-06
-0.00033963152
-8.2913654e-05
-3.6016131e-05
-0.00017913051
-7.5032882e-05
1.3151977e-05
0.00010867585
3.6931549e-05
9.9041919e-05
0.00045275946
-2.0342877e-05
0.00014570799
-6.5886581e-05
1.3292037e-05
-0.00013569162
-0.00011998874
-1.102196e-05
-0.00034907595
4.3790185e-05
5.8191704e-05
-0.00037028665
-3.6982436e-05
-7.3085167e-05
-9.6808315e-06
2.0969762e-05
-0.00020762707
0.00015885561
-9.0204109e-05
8.2228312e-05
0.00016892343
-6.0265144e-06
0.0001266107
5.7482798e-05
6.8316316e-06
7.7233401e-06
-0.00010252718
4.2289285e-05
-1.9465453e-07
-0.0003190355
-1.2685946e-05
9.7074886e-06
-0.00039810875
-4.0510581e-05
-2.6384891e-06
-0.00036354333
4.6102729e-06
-6.4960567e-05
-0.00014745017
-8.6156546e-06
-0.00013986868
0.0001169158
-0.0001039344
3.3456882e-05
0.000123298
-1.5857062e-05
1.9134534e-05
1.5129111e-05
-8.6818063e-05
2.1687252e-05
-0.00041374618
-9.3366663e-06
-8.2072804e-09
-0.00020436513
-2.774091e-05
-2.1698978e-05
-0.00020435823
-2.7747356e-05
-1.9140521e-05
-0.00041374109
-9.3438525e-06
-3.3453082e-05
1.5121064e-05
-8.6822854e-05
0.00013988382
0.00012329563
-1.5860817e-05
6.4965302e-05
0.00011692687
-0.00010393388
2.6314846e-06
-0.00014744205
-8.6047159e-06
-9.7099425e-06
-0.00036355293
4.6129935e-06
1.9375011e-07
-0.00039811293
-4.0509441e-05
-7.7173021e-06
-0.00031902883
-1.2691627e-05
-0.00012660586
-0.0001025317
4.2289753e-05
-8.2239198e-05
5.7484156e-05
6.8250348e-06
0.00020762071
0.00016892886
-6.0292992e-06
7.3078535e-05
0.00015886169
-9.0206101e-05
-5.8195605e-05
-9.6851184e-06
2.0970512e-05
-0.00037028802
-3.6983542e-05
-0.00032903321
-4.1253434e-05
-0.00029117508
-4.7538959e-05
-7.8734976e-05
-5.3584494e-05
0.00014545889
-5.5270435e-05
0.00025334284
-5.0401151e-05
0.0002636724
-0.00011285674
0.00011920598
-0.00017456908
-0.00013145788
-0.00014744489
-0.00028707669
-0.0002079245
-0.00027799925
-0.0001565276
-7.1159088e-05
-8.9924338e-05
0.00015187781
-9.973888e-05
0.00026870857
-0.00010170164
3.0807672e-05
-0.00017584529
-9.9074207e-09
-0.00017354756
-3.081582e-05
-0.00017355233
-0.00026870645
-0.00017585047
-0.00015187878
-0.0001017066
7.1158321e-05
-9.9741473e-05
0.00027800731
-8.9922116e-05
0.00028708804
-0.00015652277
0.00013145903
-0.00020792391
-0.00011921158
-0.00014744231
-0.0002636736
-0.00017456681
-0.00025335011
-0.00011285519
-0.00014546488
-5.0401076e-05
7.8733821e-05
-5.5269844e-05
0.00029117969
-5.358419e-05
0.00032903426
-4.7539692e-05
-4.1253755e-05
0.00015823621
-0.00016844402
2.4799029e-06
0.00019471921
-3.5974756e-05
3.1590191e-05
0.000112511
0.00011400264
1.1404483e-05
5.4909471e-05
0.00010833199
-4.0453771e-06
-1.2589725e-05
0.00013362269
-1.8039475e-05
-5.0798194e-05
7.0867554e-05
3.928805e-05
2.0335505e-05
-9.3378845e-05
0.00012822877
-2.6530581e-06
6.2835505e-05
0.00010042928
6.9875328e-06
5.8590446e-05
4.4305545e-05
5.4407268e-06
0.00011476271
-8.4990798e-07
-4.6688864e-05
0.00013599249
1.6746925e-05
-8.1384656e-05
0.00011314094
-7.842259e-06
-0.00013301553
0.0001292518
-5.9415005e-06
-0.00015924599
4.0812353e-05
8.2415854e-05
-2.2454482e-09
-0.00019667135
9.9833256e-05
0.00015924663
-0.00019668314
9.9830371e-05
0.00013301768
4.0786943e-05
8.2419806e-05
8.1385253e-05
0.00012923542
-5.9466816e-06
4.66853e-05
0.00011312841
-7.8463157e-06
-5.4472033e-06
0.0001359755
1.674499e-05
-6.9885507e-06
0.00011472991
-8.5046706e-07
2.641101e-06
5.8581074e-05
4.4313937e-05
-2.034786e-05
6.2832557e-05
0.00010042925
5.0794327e-05
-9.3397249e-05
0.00012823176
1.2597905e-05
7.0845854e-05
3.9293662e-05
-5.4905585e-05
0.00013362408
-1.8038587e-05
-0.0001125085
0.00010833153
-4.0449308e-06
-0.00019471714
0.00011400214
1.1404981e-05
-0.00015823472
-3.5975128e-05
3.1589612e-05
-0.00016844458
2.4783716e-06
0.00028760509
-0.0004538921
1.2715782e-05
0.00042477158
-0.00015351751
4.4231261e-05
0.00026748301
0.00033662568
4.0826972e-05
-6.5975968e-05
0.00055465963
-4.6175772e-05
-0.00034102758
0.00052035653
-4.9695074e-05
-0.00024082439
-1.1319973e-05
3.5551302e-05
-3.6857194e-05
-0.00033300783
0.00010643806
1.2613082e-05
-2.3387352e-05
0.0001913028
0.00015481275
-2.7012167e-05
7.311026e-05
0.00032255995
4.6133151e-05
1.286588e-05
0.00014438335
0.00043046152
2.8095248e-05
-0.00016965953
0.00054999347
8.4944896e-06
-0.00038241795
0.00047792488
2.7341863e-05
-0.00030270249
2.2764794e-05
7.2017645e-05
-1.5097437e-08
-0.00047633981
2.2041313e-05
0.00030267512
-0.00047633974
2.2021425e-05
0.00038241294
2.276878e-05
7.1954818e-05
0.00016967153
0.00047791631
2.7303351e-05
-0.0001443699
0.00054998944
8.4769677e-06
-0.00032257346
0.00043047291
2.8086734e-05
-0.00015478736
4.603673e-05
1.2871401e-05
-1.2617583e-05
-2.7002242e-05
7.3117867e-05
3.6853555e-05
-2.339078e-05
0.00019129997
0.00024082785
-0.00033303369
0.00010643308
0.00034103189
-1.1333321e-05
3.5544584e-05
6.5984817e-05
0.00052035635
-4.9693794e-05
-0.00026747678
0.00055466361
-4.6175692e-05
-0.00042476938
0.00033663026
4.0828934e-05
-0.00028760337
-0.00015351794
4.4231975e-05
-0.00045389332
1.2715893e-05
-2.655151e-05
-0.00039097108
7.4169223e-06
-6.7856053e-05
-0.00010297607
-2.0261808e-05
2.3324562e-05
0.00024793902
1.0792979e-05
1.8320239e-05
0.0005821337
-4.2811411e-05
5.0413217e-05
0.00046656261
5.8629788e-05
5.5562639e-05
-7.5977534e-05
-1.5524442e-05
-0.00012652765
-0.00010064619
-0.0001331863
5.8158766e-06
-0.00026277294
-2.8043171e-05
7.3712287e-06
-9.475713e-05
-5.1775529e-05
2.8062368e-07
-4.5758674e-05
1.8303986e-05
5.0822792e-05
0.00037812895
-4.0654368e-05
5.6539545e-05
0.00056568995
-1.6389769e-05
0.00012200232
0.00041771936
1.6130296e-06
0.00024537147
-5.2802086e-05
-7.5797007e-05
-1.3469333e-08
-0.00011146918
-0.00015508009
-0.00024539883
-0.00011146131
-0.00015509268
-0.0001220077
-5.278373e-05
-7.5841885e-05
-5.6531198e-05
0.00041771178
1.5917794e-06
-5.0806215e-05
0.00056568612
-1.6408911e-05
-2.5160482e-07
0.00037813669
-4.0660971e-05
-7.3907457e-06
-4.5789016e-05
1.8302619e-05
-5.8127324e-06
-9.4760615e-05
-5.177788e-05
0.00012653277
-0.00026277713
-2.8044484e-05
-5.5574342e-05
-0.00010065158
-0.00013318865
-5.0419848e-05
-7.5986105e-05
-1.5534592e-05
-1.8316841e-05
0.00046656033
5.8624562e-05
-2.3324156e-05
0.00058214042
-4.2812376e-05
6.7857435e-05
0.00024794522
1.0795477e-05
2.6551534e-05
-0.0001029733
-2.0260698e-05
-0.0003909706
7.4190025e-06
-2.8505723e-05
-0.00037359437
-2.5853423e-05
-0.00019887073
2.5982222e-05
6.2376478e-05
-0.00010720114
0.0001400788
-7.4013482e-05
0.00010264537
0.00034193626
2.4324415e-05
0.00029728169
0.0002208811
5.787682e-05
9.9878399e-05
0.00019172369
-2.8008645e-05
-2.3367999e-05
8.2251709e-05
-7.2337444e-05
-5.2486728e-06
-0.00027987357
-4.1529268e-05
-0.00020108563
0.00010279211
2.8980003e-06
-0.0003162552
0.00011574284
-5.4947584e-05
-0.00010150088
0.00013604517
-7.6604916e-05
0.00012016806
0.00033803858
-9.8746145e-06
0.0002787608
0.00014770576
2.4602803e-05
0.000250419
-2.8720159e-05
-5.0767905e-06
-8.399199e-09
0.00018336659
-7.2149292e-05
-0.00025044593
0.00018336451
-7.2135653e-05
-0.00027876373
-2.8721368e-05
-5.0884182e-06
-0.00012016157
0.00014770256
2.4584196e-05
0.00010151218
0.00033803925
-9.8876982e-06
0.00031626772
0.00013605509
-7.6607814e-05
0.0002010865
0.00011573255
-5.494505e-05
5.2575325e-06
0.00010277992
2.9014336e-06
2.3382723e-05
-0.00027988338
-4.1528366e-05
-9.9859276e-05
8.2242644e-05
-7.2343848e-05
-0.00029727505
0.00019172749
-2.8008063e-05
-0.00010264548
0.00022087969
5.7876108e-05
0.00010719971
0.00034194059
2.4325331e-05
0.00019887117
0.00014008027
-7.4012609e-05
2.8505969e-05
2.5985981e-05
6.2376426e-05
-0.00037359493
-2.5853248e-05
-0.00034703563
-6.7812168e-05
-0.00030812339
-6.0468985e-05
-0.00016225358
-5.9375492e-05
8.9906996e-05
3.450525e-05
0.00018933205
7.1054898e-05
0.00023894258
2.9256418e-05
0.00015768554
-1.1060341e-05
-0.0001884589
-8.1174016e-05
-0.00020882358
-8.4767697e-05
-0.00017889135
-7.0716984e-05
-0.0001020958
-3.0674699e-05
0.00014865537
-1.2451447e-05
0.00019232479
2.3347091e-06
3.3476009e-05
-4.5716671e-05
-2.1906019e-08
4.3316944e-05
-3.3485809e-05
4.327607e-05
-0.00019232462
-4.5733031e-05
-0.0001486516
2.322932e-06
0.00010210354
-1.2457367e-05
0.00017890848
-3.067196e-05
0.00020883705
-7.0718782e-05
0.00018846144
-8.476837e-05
-0.0001576918
-8.117245e-05
-0.00023895062
-1.1065347e-05
-0.00018933599
2.9257668e-05
-8.991329e-05
7.1055908e-05
0.00016225076
3.4506694e-05
0.00030812251
-5.9375675e-05
0.00034703737
-6.0468569e-05
-6.7811317e-05
0.00017115105
-0.00019052863
2.147664e-05
0.00014028395
3.4079832e-05
2.8419725e-05
2.3775937e-05
0.00010802025
1.955297e-05
-7.0924766e-05
6.777558e-05
2.1178483e-05
-6.9400167e-05
6.2782985e-07
-2.0795947e-05
9.1073629e-05
-0.00020313536
7.9618138e-05
9.4381439e-05
7.2333654e-05
5.441009e-05
1.6999267e-05
0.00012374063
5.6091164e-05
4.2264649e-06
7.408986e-05
-1.7032832e-05
-1.5956244e-05
0.00010862873
-8.738551e-05
-3.0586015e-05
0.00011832606
-8.6936916e-05
-4.4901328e-05
0.00011183179
-0.00010531573
-5.5647103e-05
0.00013555842
-0.00013027466
-5.8540767e-05
0.00014620313
-5.9724228e-05
-3.0720246e-09
7.0380815e-05
-2.7576428e-05
5.8564451e-05
7.0326358e-05
-2.7555261e-05
5.5622106e-05
0.00014601695
-5.9430627e-05
4.4903224e-05
0.00013547517
-0.00013024914
3.0586315e-05
0.00011179904
-0.00010531257
1.595386e-05
0.00011830806
-8.6937277e-05
-4.2290246e-06
0.00010861365
-8.7384188e-05
-1.7001109e-05
7.408907e-05
-1.7031423e-05
-9.4378977e-05
0.00012373637
5.6086569e-05
-9.1072311e-05
7.2334082e-05
5.4411595e-05
6.9399535e-05
-0.00020313699
7.9626167e-05
7.0923718e-05
6.2721234e-07
-2.0794416e-05
-2.3776006e-05
6.7774471e-05
2.1178939e-05
-0.00014028336
0.00010801983
1.9553201e-05
-0.00017115079
3.4079599e-05
2.841974e-05
-0.00019052959
2.1476346e-05
0.00030540147
-0.00049177131
8.5569914e-06
0.00040477962
-2.2896459e-05
1.8294012e-06
4.442234e-05
0.00052113553
-1.1931026e-05
-0.00028970665
0.00048967584
-0.00013394704
-0.00023253587
9.4246055e-06
-0.00011566263
0.00010831013
-0.00052368999
1.5259945e-05
0.00016796019
5.3663213e-05
6.5458442e-05
1.2736153e-05
0.0004029245
6.7342965e-05
9.463173e-05
0.00010693335
-4.1628802e-05
0.00027619132
3.4075447e-05
-9.4140424e-05
7.8620622e-05
0.00044036978
-9.6377762e-05
-0.00016198117
0.00051262145
-0.00015169337
-0.00023047893
0.00038032068
-0.00014892263
-0.00020818681
0.00025739056
-6.1461908e-05
-6.5303634e-08
-7.8807245e-05
-3.6892136e-05
0.00020805699
-7.8786401e-05
-3.6988118e-05
0.00023054331
0.00025745393
-6.1968493e-05
0.00016202859
0.00038031665
-0.00014902341
-7.8595001e-05
0.00051261185
-0.00015171225
-0.00027618123
0.00044036365
-9.638262e-05
-9.4626079e-05
3.4072264e-05
-9.4142364e-05
-1.2731806e-05
0.00010693418
-4.1621517e-05
-0.00016795097
0.00040291716
6.7338353e-05
-0.00010830608
5.3663974e-05
6.5458294e-05
0.00023253358
-0.00052369136
1.5259301e-05
0.00028970578
9.4225058e-06
-0.00011566129
-4.4423176e-05
0.00048967575
-0.00013394801
-0.00040478019
0.00052113582
-1.1930049e-05
-0.00030540198
-2.2896185e-05
1.8295482e-06
-0.00049177296
8.5572834e-06
-0.00013978058
-0.00033828837
-6.2854354e-06
-9.0728201e-05
-5.4987834e-05
-3.7222812e-05
-3.2287731e-05
0.00049017656
-1.6688523e-05
9.324336e-05
0.00041852807
-9.7194732e-05
0.0002154089
-8.808443e-05
3.3973281e-05
-0.00012718318
-9.858601e-05
-9.8036349e-05
-0.00011516904
-1.2972918e-05
-7.8564306e-05
-6.5145114e-05
0.00031955739
5.3000084e-06
-6.8661585e-05
-1.0198347e-05
6.8872645e-05
-6.0924637e-05
-6.8309487e-05
0.00011295198
-1.4832596e-05
0.00040167693
-4.8053542e-05
1.6064928e-05
0.00052324263
-5.7908453e-05
5.080088e-05
0.00031837458
2.8823182e-05
8.6812495e-05
0.0001392969
6.2850412e-06
-3.1259209e-08
-0.00012816757
-1.887601e-05
-8.6920206e-05
-0.00012806076
-1.8929385e-05
-5.0794256e-05
0.00013933905
6.147031e-06
-1.6026579e-05
0.00031838821
2.8752536e-05
1.4855447e-05
0.00052324569
-5.7924775e-05
6.0940898e-05
0.00040167256
-4.8055332e-05
6.8672809e-05
-6.8312595e-05
0.00011295557
6.5153948e-05
-1.019576e-05
6.8870932e-05
0.00011517595
0.00031955135
5.2993302e-06
0.00012718544
-1.2971641e-05
-7.8562524e-05
-0.00021541018
-9.8585624e-05
-9.8044705e-05
-9.324217e-05
-8.8088821e-05
3.396788e-05
3.2289153e-05
0.00041852826
-9.7196217e-05
9.0729586e-05
0.00049017879
-1.6687932e-05
0.00013978073
-5.4985701e-05
-3.7222327e-05
-0.00033828849
-6.2847476e-06
-5.6989008e-05
-0.00030098212
-6.1706641e-06
-0.00022991531
0.00011252717
6.7787785e-05
-4.9762438e-05
0.00025198117
-1.597097e-05
0.00013530059
0.00012241162
0.00013537784
0.00016867858
-0.00012338131
5.979571e-05
-4.0692208e-05
0.00010202925
-1.925312e-05
-9.5825543e-05
6.9361988e-05
-9.9539015e-05
0.00011948007
4.5610678e-05
1.7111841e-05
-9.8456852e-05
0.00029512965
-8.4493069e-05
-0.00031366945
0.00014253003
-5.0574489e-05
-0.00011478757
0.00015669665
-3.0506488e-05
8.3618015e-05
0.00030477637
1.0186076e-05
0.0001973667
0.00018125092
4.7977789e-05
0.00021682272
7.6495985e-05
3.8268104e-05
9.5867305e-08
8.1084834e-06
8.301493e-06
-0.00021693222
8.5857825e-06
8.2458772e-06
-0.00019737737
7.6465449e-05
3.8230324e-05
-8.3601895e-05
0.00018124853
4.7948395e-05
0.00011480354
0.00030477314
1.0179424e-05
0.00031368879
0.00015668743
-3.0507938e-05
9.8465186e-05
0.00014253217
-5.0566202e-05
-0.00011948252
0.0002951321
-8.447872e-05
9.5825856e-05
4.5598788e-05
1.7115828e-05
4.0690804e-05
6.9360979e-05
-9.9541413e-05
-0.00016868026
0.00010203104
-1.9253662e-05
-0.00013530231
-0.00012338423
5.9793565e-05
4.9760815e-05
0.00012241172
0.00013537874
0.00022991361
0.00025198429
-1.5970908e-05
5.6988008e-05
0.00011252909
6.7787237e-05
-0.00030098326
-6.1704638e-06
-0.00032135295
-4.7441336e-05
-0.00023750032
-3.1794451e-05
-1.7275443e-05
-2.7619189e-05
0.00010726451
3.2376914e-05
5.034211e-06
4.9903885e-05
1.3140992e-05
0.00012317889
-6.6958289e-05
0.00013840093
-0.00018445767
8.1936051e-05
-9.5136948e-05
0.00012104124
-0.00010947897
8.615508e-05
-5.9934072e-05
7.6477065e-05
0.00014806435
8.4326512e-05
0.00023970627
9.1943708e-05
0.00015815529
0.0001123303
-1.4713157e-07
0.00020972784
-0.00015807249
0.00020978721
-0.00023968091
0.00011234083
-0.00014805107
9.194162e-05
5.9939898e-05
8.4324813e-05
0.00010948292
7.6472458e-05
9.5143369e-05
8.6152951e-05
0.00018446238
0.00012104473
6.6951605e-05
8.1937113e-05
-1.3147209e-05
0.00013839445
-5.0339762e-06
0.00012317548
-0.00010726851
4.9906208e-05
1.7270365e-05
3.2379539e-05
0.0002374988
-2.7619823e-05
0.00032135359
-3.1794274e-05
-4.7440996e-05
0.00013851335
-0.00012896096
1.1706438e-05
0.00010142895
3.5980095e-05
2.9341194e-05
-4.3028204e-05
0.00012232915
4.1361348e-05
-3.4940705e-05
-4.361741e-05
5.6082601e-05
0.00012895188
-0.0002560361
7.066089e-05
6.9410954e-05
8.0948076e-05
6.5448374e-05
-2.5440114e-05
0.00011592995
3.4134137e-05
-0.00011979733
0.00011034617
4.3488259e-05
-3.6674504e-05
-0.00012115258
2.0830917e-05
5.8673532e-05
-0.00017157446
-1.2216103e-05
-1.1864364e-06
3.0004071e-05
-5.8852325e-05
-0.00012788958
9.4701806e-05
-7.447438e-05
-0.00015127235
-4.1345755e-06
-0.00010452643
-0.00014375942
-6.976048e-05
-8.1424874e-08
-0.00017419334
0.00014438277
-0.00017480914
0.0001506472
-6.6379726e-05
0.00012784684
-4.5572925e-06
-0.00010454374
1.2003106e-06
9.462283e-05
-7.4469247e-05
-5.8667743e-05
2.9968476e-05
-5.8840358e-05
3.6688302e-05
-0.00017160627
-1.2208358e-05
0.00011980576
-0.00012114957
2.0818336e-05
2.5458029e-05
0.00011033316
4.3470404e-05
-6.9392659e-05
0.00011592447
3.41324e-05
-0.0001289631
8.0988449e-05
6.5443337e-05
3.493115e-05
-0.00025603413
7.0657823e-05
4.3027252e-05
-4.3625975e-05
5.6082792e-05
-0.00010142995
0.0001223285
4.1362152e-05
-0.00013851462
3.5979671e-05
2.9341833e-05
-0.00012896336
1.1707166e-05
0.0002866083
-0.00039488617
-1.2126104e-05
0.00032067875
-7.9870935e-06
1.1726142e-05
-0.00014140965
0.00058580674
-1.3320216e-05
-0.00021246974
-9.6061142e-05
-1.0443212e-05
-9.1534973e-06
-0.00061059006
3.5575076e-05
5.3490727e-05
-2.6324895e-05
5.9888689e-05
-7.2435865e-05
0.00025203706
5.5277922e-05
-7.8034679e-05
0.00014851381
3.4774143e-05
9.8356421e-05
-0.00035026684
1.1094353e-05
0.00028747534
-0.00044632788
-8.5059228e-06
4.6873493e-05
0.00022932121
-5.5093042e-05
-0.00033857414
0.00049125642
-0.00016280036
-0.00028775297
-8.9686239e-05
-0.00011419213
-0.00019413952
-0.00022483585
-1.3783843e-07
-0.00040508716
0.0001930759
-0.00040501101
0.00028870593
-0.00022397825
0.00033876559
-8.9572864e-05
-0.00011406751
-4.6819523e-05
0.0004912538
-0.0001627581
-0.00028745314
0.00022929084
-5.5071371e-05
-9.8340031e-05
-0.00044636081
-8.5009283e-06
7.8031785e-05
-0.00035022448
1.1081578e-05
7.245223e-05
0.0001485569
3.4694177e-05
-5.3500009e-05
0.00025206449
5.5270513e-05
9.1458614e-06
-2.6293653e-05
5.9895532e-05
0.00021246516
-0.00061058562
3.5570894e-05
0.000141406
-9.6073402e-05
-1.0441428e-05
-0.00032068088
0.00058580625
-1.3320927e-05
-0.00028661003
-7.986532e-06
1.1724903e-05
-0.00039488988
-1.2126229e-05
-5.1874902e-05
-0.00033349212
-1.5804578e-05
-2.6660223e-05
-5.7492065e-05
-1.2932518e-05
6.2534209e-05
0.0005338082
-5.3884414e-05
-2.6688471e-06
-3.1971391e-06
-0.00012485568
-0.00027016115
-0.00020219998
-0.0001069245
-0.00015297176
-0.00018327281
-5.8277819e-05
8.4146246e-05
-5.1510506e-05
-1.2134743e-05
0.00032086421
-4.7015734e-05
-3.5888409e-05
0.00013891824
-9.4108747e-05
-5.3394694e-06
-0.0001374318
-7.2253043e-05
1.5227204e-05
-8.6066504e-05
0.0001659581
-3.6055724e-05
1.5652151e-05
0.00041018468
-7.8555346e-05
1.4552625e-06
-8.2797829e-05
3.6131667e-05
-1.1858014e-05
-0.00020523753
-1.3844626e-07
-0.00043568274
1.15626e-05
-0.00043564145
-1.1693097e-06
-0.00020509932
-1.552583e-05
-8.2675915e-05
3.6212108e-05
8.612441e-05
0.00041019858
-7.8519787e-05
0.00013745722
0.00016594087
-3.6038169e-05
-0.00013892639
-7.2253365e-05
1.5231746e-05
-0.00032085556
-9.4104758e-05
-5.3196109e-06
-8.4156141e-05
-4.7029912e-05
-3.5813279e-05
0.0001529633
-5.1493971e-05
-1.2123498e-05
0.00027017305
-0.00018327491
-5.8273205e-05
2.6827583e-06
-0.0002022053
-0.00010692214
-6.2532982e-05
-3.1977444e-06
-0.00012485614
2.6662717e-05
0.00053380836
-5.3885741e-05
5.1876832e-05
-5.7489064e-05
-1.2933914e-05
-0.00033349221
-1.5805585e-05
-2.333033e-05
-0.00029121276
-2.5119692e-05
-0.00018213727
0.00017942567
-1.0323e-05
8.064635e-05
0.00025984717
-4.7935545e-06
-6.0766575e-06
0.00015183904
6.7064675e-05
-5.7932038e-05
-0.00017043164
7.9882752e-05
-2.6457839e-05
-0.00024101927
7.0191398e-06
6.5233461e-05
-0.00023261759
-1.0123224e-05
0.00016310569
-0.00012789999
1.2387251e-07
1.0099109e-05
2.8412743e-05
-5.4007964e-05
-0.00021610734
9.9601572e-05
3.7773576e-06
-6.7391216e-05
1.7135471e-05
-3.039996e-05
0.00015350478
0.00012201735
7.745743e-05
-2.5063385e-06
0.00014253275
-2.1341662e-05
-3.6532838e-05
-0.00013294293
-5.0558734e-08
-0.00046386354
3.6444324e-05
-0.00046389046
2.5295124e-06
-0.00013295419
-0.0001534446
0.00014255205
-2.1305461e-05
6.7432463e-05
0.0001220195
7.7481448e-05
0.00021611961
1.7142824e-05
-3.039703e-05
-1.0100271e-05
9.9606405e-05
3.793919e-06
-0.00016309978
2.841323e-05
-5.3997189e-05
-6.524084e-05
-0.00012791819
1.451668e-07
2.6457386e-05
-0.00023261228
-1.0121331e-05
5.7933875e-05
-0.0002410256
7.0205453e-06
6.0794407e-06
-0.00017043497
7.9877667e-05
-8.0651047e-05
0.00015185245
6.7059035e-05
0.00018213299
0.00025984862
-4.7952058e-06
2.3329517e-05
0.00017942791
-1.032627e-05
-0.00029121337
-2.5119794e-05
-0.00030549552
-3.3158578e-05
-0.00013846089
-1.9403412e-05
0.00010036404
-6.5969555e-06
0.00030988013
-2.530014e-05
0.00023209242
-4.2740046e-05
8.368974e-05
3.0562305e-05
-9.3392792e-05
8.2865872e-05
-0.00022367549
8.431877e-05
-0.00020424545
0.00013002395
-0.00010373514
8.524636e-05
-3.0254731e-05
2.0132135e-05
0.00011449264
6.1596495e-05
0.0002747352
7.4233905e-05
0.00025412256
-1.3147751e-08
-0.00025411641
-0.00027472977
-0.00011448328
7.4247184e-05
3.0253599e-05
6.1607437e-05
0.00010374009
2.0128797e-05
0.00020425617
8.5243276e-05
0.00022368897
0.00013002518
9.3387887e-05
8.4320004e-05
-8.3694247e-05
8.2864307e-05
-0.00023210213
3.0557752e-05
-0.00030989093
-4.273996e-05
-0.00010036281
-2.5296139e-05
0.00013846164
-6.5956597e-06
0.00030549746
-1.9402193e-05
-3.3156902e-05
0.00018086974
-0.00016854792
2.3916569e-11
0.00017152956
4.0354767e-05
-3.31042e-10
9.777766e-05
0.00011701493
-6.8782163e-10
7.042924e-05
8.526067e-05
-1.0967414e-09
4.6445863e-05
9.8139644e-05
9.7103213e-10
-6.606321e-06
0.00012129411
1.1958739e-09
-8.3726965e-05
0.00011264849
-5.3899333e-09
-0.00015437623
0.00011799631
-1.7136443e-08
-1.6280093e-05
-0.00011710188
4.5701133e-11
9.0904431e-05
-0.00011985161
1.8251432e-09
1.3226946e-05
1.6372417e-05
4.8598902e-09
-0.00010777096
4.6669913e-05
2.1659246e-09
-0.00021388574
-1.0598622e-08
0.00010777619
-0.00021395137
1.1478448e-08
-1.3214317e-05
4.6647761e-05
5.4480597e-09
-9.0894588e-05
1.6374366e-05
6.0744422e-09
1.627211e-05
-0.00011984518
6.7343066e-09
0.00015434923
-0.00011714681
1.2277543e-08
8.374127e-05
0.0001178237
1.5112156e-08
6.6026975e-06
0.0001126256
8.2232616e-09
-4.6446309e-05
0.00012129296
-1.1424248e-08
-7.0428493e-05
9.8137562e-05
-2.3394499e-09
-9.7777333e-05
8.5259784e-05
2.3013052e-10
-0.00017152993
0.00011701487
8.2504438e-10
-0.00018086929
4.0353994e-05
2.2689871e-10
-0.00016854629
-4.609597e-10
0.00028410634
-0.00046478031
-5.7422113e-11
0.00036170126
-2.5513948e-05
-5.596396e-11
5.4480291e-05
0.00041091553
1.4705525e-10
-0.0001251467
0.00025444538
-9.3540956e-10
1.0924248e-05
-2.3583904e-06
2.1596273e-09
-1.7733336e-05
0.00020983789
2.4907772e-09
-0.00019397883
0.00034418781
-1.5903102e-08
-8.5018832e-05
4.392276e-05
-1.1230989e-07
0.00018199255
-0.0003730033
-1.5610303e-08
0.0003741265
-0.00032048666
-4.8155316e-09
2.6867068e-05
0.00030854305
-4.2469976e-09
-0.00018331599
9.4068496e-05
-1.5879687e-08
-0.00051138257
-1.1278407e-08
0.00018335472
-0.00051138371
1.0112893e-08
-2.6825097e-05
9.4056906e-05
1.2574719e-08
-0.0003741061
0.00030857568
8.3242524e-09
-0.00018200724
-0.00032044997
4.9961519e-09
8.485379e-05
-0.00037294236
1.6107152e-08
0.0001941174
4.3151033e-05
1.0323384e-07
1.7738011e-05
0.00034425495
2.0550103e-08
-1.0920896e-05
0.00020984802
-6.2735557e-10
0.00012514964
-2.3615453e-06
-5.3302368e-10
-5.4481157e-05
0.0002544442
4.9470944e-09
-0.00036169963
0.00041091266
-2.4402185e-10
-0.00028410578
-2.5515079e-05
1.2831296e-10
-0.00046477801
-2.9919384e-10
-0.00015274435
-0.00032784032
-2.2092527e-10
-0.00014447463
-4.6715573e-05
-6.1128808e-10
-0.00011941668
0.00033197298
1.9339768e-10
-0.00013753603
0.00014770812
9.3494768e-10
-0.0001634604
-8.3359354e-05
8.3294868e-10
-0.00010436904
9.2464157e-05
4.5570413e-09
9.6126839e-05
0.00013153497
2.2222956e-08
0.00035713579
-0.0002530974
1.2280544e-07
0.00030649306
-0.00032771592
1.5897286e-08
0.00013975559
-0.00013851802
-3.9667778e-09
0.00020021217
0.00021203954
-8.7773639e-09
0.00018058819
3.5153313e-05
-1.6172163e-08
-0.00029463754
-2.5178348e-08
-0.00018057025
-0.00029462661
2.5259203e-08
-0.00020020314
3.5156341e-05
1.3665409e-08
-0.00013974088
0.00021206871
6.5512235e-09
-0.0003064582
-0.00013849904
-1.8604055e-09
-0.00035696955
-0.00032772944
-2.1181475e-08
-9.6286419e-05
-0.00025323606
-1.093113e-07
0.00010434341
0.00013152253
-2.0898645e-08
0.00016345476
9.2459674e-05
3.7921057e-09
0.00013753285
-8.3360168e-05
-1.6121414e-09
0.00011941622
0.00014770757
-2.8859181e-09
0.00014447427
0.00033197024
-1.37354e-09
0.00015274237
-4.6715505e-05
-1.5959686e-09
-0.00032784071
-5.1183364e-10
-5.4595099e-05
-0.00029836514
2.3100929e-10
-0.00022810719
0.00011647266
8.5199127e-10
-5.6188668e-05
0.00015526008
8.2800002e-10
-0.00012145573
0.00028003704
2.817202e-09
-0.00029939062
0.00017445542
2.8640001e-09
-0.00017418462
-2.5725482e-05
2.7810662e-09
0.00011544275
-0.00016822569
1.0087198e-08
0.00018334384
-0.00032089861
2.3991455e-08
0.0001392137
-0.00033760205
8.3238318e-09
6.3579158e-05
-5.9107566e-05
1.4592349e-09
0.00010328931
0.00014194014
-1.0695211e-08
4.7736966e-05
0.00016817697
-1.3869654e-08
-0.0002682245
-1.7726933e-08
-4.7724847e-05
-0.00026822184
1.4622858e-08
-0.00010327224
0.00016817755
7.6330141e-09
-6.3561757e-05
0.00014195935
1.8610926e-09
-0.00013920031
-5.9066531e-05
-3.0419628e-11
-0.0001833168
-0.00033760076
-9.3733597e-09
-0.00011545976
-0.00032092701
-2.0913494e-08
0.00017418121
-0.00016823819
-1.5784374e-09
0.00029939215
-2.5731373e-05
6.4895139e-10
0.00012145888
0.00017445075
2.4248017e-11
5.6188817e-05
0.00028003624
4.2062111e-10
0.00022810548
0.00015525818
1.9399782e-10
5.4593544e-05
0.00011647085
-6.9838681e-10
-0.00029836718
2.1309021e-10
-0.00033152366
-6.4057628e-11
-0.00023445451
1.0248448e-10
-8.5791817e-05
4.35108e-10
0.00016894501
8.0818077e-11
0.00030065837
2.0156184e-09
0.00030549224
2.9580607e-09
0.00022012998
2.4413773e-09
-1.6451693e-05
1.8419603e-09
-0.00022402417
-5.6238405e-09
-0.00019787477
-1.0588305e-08
-3.5794785e-05
-7.7039873e-09
0.00019398552
-6.8318843e-09
-5.0700862e-09
-0.00019398851
1.386352e-08
3.5787324e-05
9.1547629e-09
0.00019787079
4.6818206e-09
0.00022404931
-1.7694619e-09
1.6479781e-05
-6.0573617e-09
-0.00022011965
-7.5797483e-09
-0.00030548973
-3.7980196e-09
-0.00030066082
-2.5387267e-09
-0.00016894815
-1.8839202e-09
8.5792181e-05
-2.3345227e-10
0.00023445464
5.0589671e-11
0.00033152369
-3.8681737e-10
-3.9477438e-10
0.00018086995
-0.00016854756
-1.1706877e-05
0.00017153024
4.0354978e-05
-2.9342457e-05
9.7779205e-05
0.00011701511
-4.1363695e-05
7.0429667e-05
8.5261678e-05
-5.608473e-05
4.6443091e-05
9.8142908e-05
-7.0659933e-05
-6.6120483e-06
0.00012129223
-6.5446514e-05
-8.3749098e-05
0.00011262546
-3.4131547e-05
-0.00015435582
0.00011781897
-4.3471547e-05
-1.6278045e-05
-0.00011713786
-2.0816706e-05
9.0890222e-05