/*--------------------------------*- C++ -*----------------------------------*\
| =========                 |                                                 |
| \\      /  F ield         | OpenFOAM: The Open Source CFD Toolbox           |
|  \\    /   O peration     | Version:  v2012                                 |
|   \\  /    A nd           | Website:  www.openfoam.com                      |
|    \\/     M anipulation  |                                                 |
\*---------------------------------------------------------------------------*/
FoamFile
{
    version     2.0;
    format      ascii;
    class       volScalarField;
    location    "40/heater";
    object      T;
}
// * * * * * * * * * * * * * * * * * * * * * * * * * * * * * * * * * * * * * //

dimensions      [0 0 0 1 0 0 0];


internalField   nonuniform List<scalar> 
80
(
436.10846
436.25976
436.59211
437.08419
434.6499
434.85723
435.31187
435.99123
431.3505
431.66834
432.39688
433.53506
425.42962
425.81581
426.97455
429.06964
327.3979
324.05376
324.06406
327.42266
365.88828
361.34378
361.38503
365.98793
392.23384
387.67441
387.78674
392.50842
408.63222
404.42422
404.7118
409.35677
416.51045
413.1701
413.86728
418.42054
415.94523
415.70535
417.15628
421.05826
327.39788
324.05374
324.06404
327.42265
365.88822
361.34374
361.385
365.98793
392.23373
387.67436
387.78672
392.50844
408.6321
404.42416
404.71178
409.3568
416.51036
413.17007
413.86727
418.42057
415.94527
415.70539
417.15632
421.05829
425.42967
425.81583
426.97456
429.06962
431.35046
431.6683
432.39685
433.53502
434.64976
434.85712
435.31181
435.99119
436.10815
436.25957
436.59204
437.0842
)
;

boundaryField
{
    minY
    {
        type            fixedValue;
        value           uniform 300;
    }
    minZ
    {
        type            zeroGradient;
    }
    maxZ
    {
        type            zeroGradient;
    }
    heater_to_topAir
    {
        type            compressible::turbulentTemperatureCoupledBaffleMixed;
        refValue        nonuniform List<scalar> 
40
(
356.70426
358.71036
360.4252
361.80963
351.43924
352.44899
353.0366
353.20382
352.41976
353.73559
354.71798
355.32267
353.92319
355.73098
357.45851
359.13032
353.80688
355.31396
356.80985
358.39182
353.80688
355.31397
356.80986
358.39183
353.9232
355.73099
357.45853
359.13034
352.41976
353.73559
354.71798
355.32268
351.43924
352.44899
353.0366
353.20382
356.70424
358.71034
360.42517
361.80961
)
;
        refGradient     uniform 0;
        valueFraction   nonuniform List<scalar> 
40
(
0.00032132529
0.00032132529
0.00032132529
0.00032132529
0.00032132529
0.00032132529
0.00032132529
0.00032132529
0.00032132529
0.00032132529
0.00032132529
0.00032132529
0.00032132529
0.00032132529
0.00032132529
0.00032132529
0.00032132529
0.00032132529
0.00032132529
0.00032132529
0.00032132529
0.00032132529
0.00032132529
0.00032132529
0.00032132529
0.00032132529
0.00032132529
0.00032132529
0.00032132529
0.00032132529
0.00032132529
0.00032132529
0.00032132529
0.00032132529
0.00032132529
0.00032132529
0.00032132529
0.00032132529
0.00032132529
0.00032132529
)
;
        value           nonuniform List<scalar> 
40
(
436.02986
436.18161
436.51413
437.00611
434.57109
434.77848
435.2328
435.91147
431.27523
431.59313
432.32119
433.45835
425.3607
425.74694
426.90503
428.99863
415.88508
415.64524
417.09519
420.99453
415.88512
415.64528
417.09523
420.99456
425.36075
425.74696
426.90504
428.99861
431.27519
431.59308
432.32116
433.4583
434.57095
434.77838
435.23274
435.91142
436.02955
436.18142
436.51405
437.00612
)
;
        Tnbr            T;
        thicknessLayers List<scalar> 0();
        kappaLayers     List<scalar> 0();
        kappaMethod     solidThermo;
        kappa           none;
        alphaAni        none;
        alpha           none;
        field           T;
    }
    heater_to_rightSolid
    {
        type            compressible::turbulentTemperatureCoupledBaffleMixed;
        refValue        nonuniform List<scalar> 10(437.66143 436.79743 434.92346 431.86169 427.96837 427.96837 431.86168 434.92341 436.79736 437.66131);
        refGradient     uniform 0;
        valueFraction   nonuniform List<scalar> 10(0.49999997 0.49999997 0.49999997 0.49999997 0.49999997 0.49999997 0.49999997 0.49999997 0.49999997 0.49999997);
        value           nonuniform List<scalar> 10(437.34586 436.36774 434.20346 430.44139 424.49151 424.49153 430.44137 434.20341 436.36769 437.3458);
        Tnbr            T;
        thicknessLayers List<scalar> 0();
        kappaLayers     List<scalar> 0();
        kappaMethod     solidThermo;
        kappa           none;
        alphaAni        none;
        alpha           none;
        field           T;
    }
    heater_to_leftSolid
    {
        type            compressible::turbulentTemperatureCoupledBaffleMixed;
        refValue        nonuniform List<scalar> 10(440.88924 440.80344 440.60581 440.31596 440.04396 440.04395 440.31597 440.60579 440.80343 440.88923);
        refGradient     uniform 0;
        valueFraction   nonuniform List<scalar> 10(2.0832898e-05 2.0832898e-05 2.0832898e-05 2.0832898e-05 2.0832898e-05 2.0832898e-05 2.0832898e-05 2.0832898e-05 2.0832898e-05 2.0832898e-05);
        value           nonuniform List<scalar> 10(436.05546 434.59794 431.30077 425.38398 415.90553 415.90557 425.38402 431.30073 434.5978 436.05515);
        Tnbr            T;
        thicknessLayers List<scalar> 1(0.001);
        kappaLayers     List<scalar> 1(0.0005);
        kappaMethod     solidThermo;
        kappa           none;
        alphaAni        none;
        alpha           none;
        field           T;
    }
    heater_to_bottomWater
    {
        type            compressible::turbulentTemperatureCoupledBaffleMixed;
        refValue        nonuniform List<scalar> 
92
(
1036.4672
1032.882
1032.8459
1036.4259
1035.6431
1031.6927
1031.6618
1035.6071
1032.3683
1028.3644
1028.3334
1032.3352
1011.3736
1013.8279
1013.8148
1011.3657
1017.2714
1016.3707
1016.3529
1017.2562
1016.9436
1016.3069
1016.2799
1016.905
1019.1509
1015.807
1015.7751
1019.1261
1018.653
1018.653
1015.8477
1015.8477
1015.8135
1015.8135
1018.6125
1018.6125
1028.5629
1028.5351
1028.6042
1028.5735
1023.513
1023.4858
1009.3505
1009.2448
1006.2145
1005.9885
1028.5646
1011.3761
1013.8309
1013.8137
1028.5362
1011.3645
1028.6065
1017.2748
1016.3742
1016.3521
1028.5746
1017.2564
1023.514
1016.9346
1016.3075
1016.281
1023.4869
1016.9096
1009.3472
1019.1511
1015.8072
1015.7764
1009.245
1019.1271
1006.2125
1018.6565
1015.8485
1015.8153
1005.9856
1018.6129
1018.6565
1015.8485
1015.8153
1018.6129
1032.3664
1028.3626
1028.3363
1032.3352
1035.6423
1031.6919
1031.664
1035.608
1036.467
1032.881
1032.8493
1036.4283
)
;
        refGradient     uniform 0;
        valueFraction   nonuniform List<scalar> 
92
(
0.0075140686
0.0075140686
0.0075140686
0.0075140686
0.0075140686
0.0075140686
0.0075140686
0.0075140686
0.0075140686
0.0075140686
0.0075140686
0.0075140686
0.0075140686
0.0075140686
0.0075140686
0.0075140686
0.0075140686
0.0075140686
0.0075140686
0.0075140686
0.0075140686
0.0075140686
0.0075140686
0.0075140686
0.0075140686
0.0075140686
0.0075140686
0.0075140686
0.0075140686
0.0075140686
0.0075140686
0.0075140686
0.0075140686
0.0075140686
0.0075140686
0.0075140686
0.0075140679
0.0075140679
0.0075140679
0.0075140679
0.0075140679
0.0075140679
0.0075140679
0.0075140679
0.0075140679
0.0075140679
0.0075140679
0.0075140686
0.0075140686
0.0075140686
0.0075140679
0.0075140686
0.0075140679
0.0075140686
0.0075140686
0.0075140686
0.0075140679
0.0075140686
0.0075140679
0.0075140686
0.0075140686
0.0075140686
0.0075140679
0.0075140686
0.0075140679
0.0075140686
0.0075140686
0.0075140686
0.0075140679
0.0075140686
0.0075140679
0.0075140686
0.0075140686
0.0075140686
0.0075140679
0.0075140686
0.0075140686
0.0075140686
0.0075140686
0.0075140686
0.0075140686
0.0075140686
0.0075140686
0.0075140686
0.0075140686
0.0075140686
0.0075140686
0.0075140686
0.0075140686
0.0075140686
0.0075140686
0.0075140686
)
;
        value           nonuniform List<scalar> 
92
(
440.5669
440.68997
441.01928
441.53418
439.1141
439.29
439.74063
440.44401
435.81704
436.10214
436.82442
437.98327
332.53331
329.23264
329.24276
332.55781
370.77057
366.25329
366.29406
370.86929
396.9078
392.37762
392.48883
397.17982
413.1923
408.99042
409.2754
413.91071
429.84153
421.00116
430.20334
417.6642
431.35228
418.35539
433.45132
422.89528
332.66247
332.68682
370.85573
370.95433
396.95716
397.22927
413.11866
413.83646
420.9077
422.80042
332.66247
332.53331
329.23264
329.24273
332.68682
332.55779
370.85569
370.77055
366.25328
366.29403
370.95434
370.86929
396.95706
396.90762
392.37757
392.48881
397.2293
397.17988
413.11852
413.19218
408.99037
409.27539
413.83648
413.91074
420.9076
421.00111
417.66417
418.3554
422.80043
422.89531
429.8416
430.20336
431.3523
433.4513
435.81699
436.10209
436.82441
437.98323
439.11396
439.28989
439.74059
440.44397
440.56658
440.68978
441.01923
441.5342
)
;
        Tnbr            T;
        thicknessLayers List<scalar> 0();
        kappaLayers     List<scalar> 0();
        kappaMethod     solidThermo;
        kappa           none;
        alphaAni        none;
        alpha           none;
        field           T;
    }
}


// ************************************************************************* //
