/*--------------------------------*- C++ -*----------------------------------*\
| =========                 |                                                 |
| \\      /  F ield         | OpenFOAM: The Open Source CFD Toolbox           |
|  \\    /   O peration     | Version:  v2012                                 |
|   \\  /    A nd           | Website:  www.openfoam.com                      |
|    \\/     M anipulation  |                                                 |
\*---------------------------------------------------------------------------*/
FoamFile
{
    version     2.0;
    format      ascii;
    class       volScalarField;
    location    "35";
    object      p;
}
// * * * * * * * * * * * * * * * * * * * * * * * * * * * * * * * * * * * * * //

dimensions      [0 2 -2 0 0 0 0];


internalField   nonuniform List<scalar> 
64000
(
-4.29553e-22
-4.59825e-21
-3.2496e-21
-4.80442e-21
-8.83453e-21
-3.08141e-21
-4.87546e-21
-4.55774e-21
-5.50922e-21
-5.35845e-21
-4.27291e-21
-6.85827e-21
-4.95301e-21
-7.02966e-21
-4.37191e-21
-5.58228e-21
-1.33732e-21
-9.35308e-22
-1.55302e-21
-2.50237e-21
-1.7131e-21
-2.26492e-21
-2.25079e-21
-2.05926e-24
-5.1225e-21
-1.89033e-21
6.02057e-22
-5.19588e-21
-2.85033e-21
-2.22724e-21
-4.28641e-21
-4.73053e-22
3.94299e-22
1.61121e-22
-1.17395e-21
-4.84193e-21
-6.28253e-22
-6.0849e-23
-9.3874e-22
-1.0322e-21
-8.28721e-21
-1.17251e-20
-1.09421e-20
-7.94748e-21
-1.06856e-20
-1.11041e-20
-9.30673e-21
-6.13473e-21
-3.95984e-21
-9.54399e-21
-1.16205e-20
-1.15789e-20
-5.96437e-21
-5.94863e-21
-6.88883e-21
-6.2494e-21
-3.92051e-21
1.71016e-21
-7.0517e-22
-5.57177e-21
2.7672e-22
-3.31776e-21
-5.83372e-21
-8.72524e-21
-4.98224e-21
-3.36345e-21
-3.78956e-21
-5.79567e-21
-3.91457e-21
-1.62124e-21
6.56165e-22
-9.53285e-22
-4.37613e-21
-2.4446e-21
-7.84726e-22
-2.20166e-21
-8.82308e-22
1.83929e-21
-1.33552e-21
-3.07483e-21
-6.97778e-21
-9.8201e-21
-1.29728e-20
-1.0001e-20
-9.45132e-21
-1.1477e-20
-1.0373e-20
-8.17322e-21
-9.77469e-21
-1.07538e-20
-8.821e-21
-9.56698e-21
-8.77885e-21
-5.45289e-21
-4.3923e-21
-1.81269e-21
-9.28237e-21
-3.42792e-21
1.54936e-21
-2.18793e-21
-3.98532e-21
-6.34018e-21
-6.15523e-21
-6.39289e-21
-3.37192e-21
-4.19666e-21
-4.64442e-21
-5.39001e-21
-1.83012e-21
-2.8849e-21
-2.47668e-21
-1.08573e-21
-3.72655e-21
-1.16645e-23
-1.85212e-21
-5.51361e-21
2.44481e-21
3.08695e-21
-2.17392e-22
1.54526e-23
-9.43207e-21
-9.93578e-21
-1.09824e-20
-1.46277e-20
-1.27942e-20
-1.35696e-20
-1.13477e-20
-8.13534e-21
-1.07669e-20
-1.13174e-20
-1.01753e-20
-9.95877e-21
-9.33816e-21
-5.96955e-21
-5.7723e-21
-4.21592e-21
-5.7676e-21
-4.2986e-21
1.88438e-21
-2.28889e-21
-4.61829e-21
-5.80299e-21
-8.55634e-21
-8.05867e-21
-7.87753e-21
-1.06473e-21
-3.00423e-21
-2.97207e-21
-2.42331e-21
-3.83646e-21
-1.59069e-21
-1.37413e-21
-2.01013e-21
-1.68465e-21
-3.22035e-21
-4.09172e-21
1.95689e-21
1.26197e-21
-1.55984e-21
5.1185e-24
-1.64986e-20
-1.10738e-20
-1.155e-20
-1.3143e-20
-1.22321e-20
-1.47516e-20
-1.1429e-20
-5.95788e-21
-9.54344e-21
-1.29016e-20
-1.05729e-20
-9.74925e-21
-7.86552e-21
-4.82616e-21
-9.61878e-21
-1.23552e-20
-5.54674e-21
-2.56875e-21
-3.40275e-22
-2.20468e-21
-4.45507e-21
-7.22332e-21
-8.79289e-21
-7.2991e-21
-5.12247e-21
-2.81456e-21
-2.60058e-21
-3.42163e-21
-5.47633e-21
-1.43568e-21
-6.00905e-22
9.90863e-22
-9.52241e-22
-1.41538e-21
-4.15628e-21
-3.19923e-21
-5.3436e-22
-7.56161e-22
1.72829e-22
-4.05678e-22
-1.27245e-20
-1.19868e-20
-1.03497e-20
-1.39868e-20
-1.23659e-20
-1.23201e-20
-9.42006e-21
-1.27114e-20
-1.26646e-20
-1.2096e-20
-1.03826e-20
-9.02401e-21
-8.76105e-21
-4.8276e-21
-8.5365e-21
-1.04292e-20
-5.38035e-21
-2.91635e-21
-2.81381e-21
-4.85133e-21
-2.87473e-21
-4.10417e-21
-1.00242e-20
-8.2721e-21
-8.29034e-21
-1.78586e-21
-3.74198e-21
-1.69363e-21
-3.11098e-21
-3.78309e-21
-3.22745e-21
-2.59111e-21
-1.40482e-21
-1.41731e-21
-2.45824e-21
-3.68164e-22
-2.69488e-21
-1.0469e-21
-3.47293e-22
9.95538e-22
-1.38464e-20
-1.46492e-20
-1.03847e-20
-1.26369e-20
-1.30407e-20
-1.28601e-20
-1.00597e-20
-1.20391e-20
-1.33108e-20
-1.20979e-20
-1.04837e-20
-1.05692e-20
-6.7656e-21
-7.64274e-21
-8.37168e-21
-8.77432e-21
-5.72917e-21
-1.34212e-21
-2.09361e-21
-4.54447e-21
-3.87257e-21
-6.84435e-21
-1.2311e-20
-1.00756e-20
-5.05919e-21
-6.10075e-21
-4.91587e-21
-3.75234e-22
-2.31226e-21
-1.55557e-21
-5.30843e-21
-5.14937e-21
3.13436e-22
-1.57045e-22
-1.68687e-21
-2.84403e-21
-1.46208e-21
-8.08363e-22
-2.29457e-21
-5.61651e-22
-1.484e-20
-1.43359e-20
-1.30825e-20
-1.17811e-20
-1.2811e-20
-1.07611e-20
-1.00303e-20
-1.75552e-20
-1.50062e-20
-1.2463e-20
-9.91223e-21
-8.78879e-21
-7.54108e-21
-9.41734e-21
-7.11939e-21
-8.42519e-21
-4.5929e-21
-3.03799e-21
-6.13458e-21
-3.62611e-21
-2.72912e-21
-7.72267e-21
-9.35752e-21
-7.35252e-21
-5.76979e-21
-7.2946e-21
-4.76208e-21
-1.23731e-21
-2.64274e-21
-3.13593e-21
-4.99886e-21
-3.89684e-21
-1.30534e-22
-2.06544e-21
-4.85608e-21
-5.59832e-21
-1.32888e-21
-1.22198e-22
-5.8262e-22
-1.27691e-21
-2.00544e-20
-1.62514e-20
-1.22493e-20
-1.24254e-20
-1.36644e-20
-1.49362e-20
-1.31372e-20
-1.28067e-20
-1.356e-20
-1.54592e-20
-8.68962e-21
-7.60077e-21
-6.76075e-21
-9.6457e-21
-1.00109e-20
-8.5069e-21
-4.00384e-21
7.34993e-22
-7.18412e-21
-7.51171e-21
-2.43633e-21
-7.73878e-21
-1.07643e-20
-8.26228e-21
-3.46371e-21
-5.29206e-21
-7.15063e-21
-4.41949e-21
-1.62404e-21
-5.29389e-21
-3.08659e-21
-1.91274e-21
-3.03629e-22
-2.40063e-21
-6.13753e-21
-3.33875e-21
-1.18663e-21
3.16551e-22
-1.89244e-22
-1.70156e-21
-1.24337e-20
-1.37604e-20
-1.33488e-20
-1.26659e-20
-1.56145e-20
-1.5877e-20
-1.31085e-20
-1.26329e-20
-1.38486e-20
-1.43862e-20
-1.2171e-20
-6.67727e-21
-7.03034e-21
-9.82415e-21
-9.99642e-21
-7.57647e-21
-5.53162e-21
-3.91013e-21
-4.65661e-22
-2.67302e-21
-6.32092e-21
-6.58554e-21
-1.05219e-20
-9.38708e-21
-7.36977e-21
-4.62324e-21
-3.76692e-21
-1.41175e-21
-4.54919e-21
-4.44531e-21
-2.80478e-21
-1.41121e-21
-2.00801e-21
-2.3875e-21
-6.86527e-21
-3.90915e-21
-1.61585e-21
-2.41234e-22
-3.63491e-22
-2.2859e-23
-1.12221e-20
-1.4707e-20
-1.48606e-20
-1.67417e-20
-1.33698e-20
-1.50304e-20
-1.79483e-20
-1.099e-20
-1.37462e-20
-1.56489e-20
-1.06856e-20
-6.71234e-21
-5.95667e-21
-9.84755e-21
-9.76742e-21
-1.03994e-20
-6.9854e-21
-2.33253e-21
1.71881e-21
-1.78184e-21
-9.2518e-21
-1.14999e-20
-8.81064e-21
-7.98052e-21
-7.67476e-21
-6.14551e-21
6.1346e-23
-1.1819e-21
-4.05199e-21
-5.95874e-21
-4.11187e-21
6.45771e-22
-4.76235e-21
-2.56368e-21
-3.61858e-21
-4.80538e-21
-1.18145e-21
-1.41565e-21
-1.90055e-22
7.76037e-23
-1.22983e-20
-1.64189e-20
-1.65198e-20
-1.48026e-20
-1.46869e-20
-1.80828e-20
-1.44047e-20
-1.40959e-20
-1.06579e-20
-1.37247e-20
-1.5919e-20
-8.7356e-21
-4.81649e-21
-9.46205e-21
-1.20288e-20
-1.02918e-20
-6.89126e-21
-1.72847e-21
-1.55839e-21
-2.03736e-21
-6.74487e-21
-1.1682e-20
-9.71282e-21
-9.24229e-21
-8.65551e-21
-1.95011e-21
-1.79866e-21
-2.89685e-21
-4.69166e-21
-3.2579e-21
-5.92221e-22
-1.80042e-21
-3.07423e-21
-2.99085e-21
-2.89188e-21
-2.43177e-21
-7.00509e-22
-1.51939e-21
-1.08339e-21
-1.06248e-21
-1.73197e-20
-1.49552e-20
-1.50159e-20
-1.52052e-20
-1.70926e-20
-1.64782e-20
-1.59846e-20
-1.63777e-20
-1.70621e-20
-1.2931e-20
-1.17885e-20
-8.76416e-21
-7.79837e-21
-1.05573e-20
-1.00282e-20
-8.99125e-21
-6.39792e-21
-2.13984e-21
-7.93672e-22
-5.40629e-21
-7.03717e-21
-8.36175e-21
-8.48471e-21
-8.81083e-21
-5.46457e-21
-1.1284e-21
-1.61567e-21
-4.28876e-21
-3.70249e-21
-2.33735e-21
-5.01437e-21
-2.73662e-21
4.55381e-22
-5.16209e-21
-6.10449e-21
-1.29811e-21
-3.64057e-23
-2.58909e-21
-1.8801e-21
-1.4973e-21
-1.97001e-20
-1.91216e-20
-1.51656e-20
-1.72019e-20
-1.37337e-20
-1.35239e-20
-1.65515e-20
-1.58137e-20
-1.40386e-20
-1.59453e-20
-1.18389e-20
-1.12269e-20
-1.08321e-20
-1.12772e-20
-1.00437e-20
-8.92547e-21
-5.75044e-21
-5.92196e-22
-1.10332e-21
-3.48796e-21
-7.197e-21
-9.49513e-21
-1.02072e-20
-9.97329e-21
-3.19669e-21
2.36778e-21
9.94132e-22
-5.0895e-21
-6.51853e-21
1.19593e-21
-2.1283e-21
-5.72756e-21
-2.03313e-21
-2.79721e-21
-5.47945e-21
-1.7454e-21
-1.6076e-21
-2.51484e-21
2.76244e-22
-9.85768e-22
-1.32051e-20
-1.99059e-20
-1.87009e-20
-1.53092e-20
-1.20271e-20
-1.49413e-20
-2.00646e-20
-2.07005e-20
-1.48356e-20
-1.1229e-20
-9.58794e-21
-1.3692e-20
-1.26262e-20
-1.00978e-20
-7.44671e-21
-8.67722e-21
-6.93715e-21
-4.1686e-21
-3.63804e-21
-3.18059e-21
-7.93112e-21
-6.21756e-21
-7.80261e-21
-9.4889e-21
-2.97625e-21
-1.43501e-21
-1.6554e-21
-2.67264e-21
-3.12362e-21
-1.18145e-21
-6.0613e-22
-2.15244e-21
-3.15433e-21
-1.93282e-21
-4.35346e-21
-3.13236e-21
-6.62529e-22
-2.59153e-21
-9.46033e-22
1.14742e-21
-1.41764e-20
-1.51491e-20
-1.85408e-20
-1.52391e-20
-1.56967e-20
-1.44735e-20
-1.73187e-20
-1.85107e-20
-1.38262e-20
-1.10436e-20
-1.40837e-20
-1.27392e-20
-1.24116e-20
-9.89167e-21
-1.07457e-20
-1.08664e-20
-6.1936e-21
-5.83434e-21
-2.9453e-21
-3.28752e-21
-6.90593e-21
-8.65338e-21
-7.98149e-21
-4.61037e-21
-1.41628e-21
-3.44321e-21
-4.24722e-21
-1.79085e-21
-1.25922e-21
-1.04554e-21
-1.99421e-21
-1.13727e-21
-2.95064e-21
-3.14407e-21
-6.50725e-21
-4.7437e-21
8.1238e-22
1.30423e-22
-1.59353e-21
3.55051e-22
-1.49617e-20
-1.40853e-20
-1.72332e-20
-1.28822e-20
-1.30489e-20
-1.56376e-20
-1.91167e-20
-1.91577e-20
-1.42526e-20
-1.29241e-20
-1.16428e-20
-1.44753e-20
-7.47523e-21
-1.07887e-20
-1.26499e-20
-9.50937e-21
-7.47919e-21
-5.72361e-21
-5.88614e-21
-2.92882e-21
-9.06562e-21
-6.71108e-21
-7.08232e-21
-3.89763e-21
-2.21715e-21
-1.05996e-21
-3.47711e-21
-5.08681e-21
-1.11275e-21
-3.02976e-21
9.10225e-22
-4.30101e-21
-3.18915e-21
-1.26308e-21
-2.41951e-21
-3.81623e-21
-2.39109e-21
-2.33847e-21
-5.1402e-22
-4.68345e-22
-1.08618e-20
-1.5126e-20
-1.98215e-20
-1.28886e-20
-1.06928e-20
-1.65124e-20
-1.70712e-20
-1.69122e-20
-1.4685e-20
-1.25735e-20
-1.32279e-20
-1.38938e-20
-9.29239e-21
-8.74928e-21
-1.51267e-20
-1.00553e-20
-7.60597e-21
-8.7452e-22
-4.80547e-21
-5.98614e-21
-1.3154e-20
-6.56561e-21
-2.98292e-21
-3.25577e-21
-3.50804e-22
-5.25995e-21
-4.24541e-21
-3.01189e-21
-3.37791e-21
-2.36985e-21
-1.585e-21
-1.3042e-21
-2.07999e-21
1.57581e-22
-8.94843e-22
-4.11916e-21
-2.75539e-21
-3.87182e-21
5.37047e-22
3.53468e-22
-9.2415e-21
-1.1448e-20
-1.55225e-20
-1.49374e-20
-1.38102e-20
-1.50518e-20
-1.62398e-20
-1.49608e-20
-1.48879e-20
-1.34496e-20
-1.36259e-20
-1.28873e-20
-1.00319e-20
-7.05117e-21
-1.28204e-20
-9.51892e-21
-8.39308e-21
-8.94611e-21
-1.04536e-20
-8.17491e-21
-9.16844e-21
-7.5637e-22
-3.66159e-21
-4.04735e-21
-1.35235e-21
-2.59205e-21
-3.89158e-21
-1.81105e-21
-2.45251e-21
-2.15504e-21
-5.41888e-21
-6.72252e-22
-7.95319e-22
-1.29554e-21
-5.43009e-22
-7.98615e-22
-9.15563e-22
-2.24226e-21
-2.82212e-21
-2.272e-21
-8.85097e-21
-1.17311e-20
-1.76737e-20
-1.6107e-20
-1.40011e-20
-1.24445e-20
-1.23557e-20
-1.57743e-20
-1.82559e-20
-1.52446e-20
-1.11246e-20
-1.09921e-20
-1.09823e-20
-1.03838e-20
-1.21609e-20
-1.00561e-20
-7.06014e-21
-6.40133e-21
-1.18958e-20
-7.20201e-21
-7.80662e-21
-5.8089e-21
-3.55044e-21
-4.20107e-21
-5.69805e-22
2.61824e-22
-8.30864e-21
-4.96778e-21
-3.52851e-21
-4.35902e-22
-1.70485e-21
-6.67723e-22
-1.37329e-21
-1.77147e-21
-1.6487e-21
-1.58862e-22
-2.42811e-21
-1.87091e-21
-3.01794e-21
-2.0105e-21
-1.15457e-20
-1.4453e-20
-1.61565e-20
-1.39857e-20
-1.17452e-20
-1.30433e-20
-1.23283e-20
-1.25506e-20
-1.5154e-20
-1.50955e-20
-1.52349e-20
-1.32373e-20
-9.63781e-21
-1.32091e-20
-1.2604e-20
-6.23973e-21
-8.19901e-21
-5.49344e-21
-7.40549e-21
-7.78626e-21
-7.18695e-21
-4.37463e-21
-3.12719e-21
-5.71593e-21
-5.74902e-21
-1.27771e-21
-4.02686e-21
-3.6702e-21
-2.94285e-21
-1.30846e-21
-2.81027e-21
-1.11817e-21
-3.21689e-21
9.61873e-22
-2.0922e-21
-1.93021e-21
-3.01496e-21
-2.20758e-21
-1.02696e-21
-2.42118e-21
-1.75891e-20
-1.6263e-20
-1.47249e-20
-1.36851e-20
-1.39797e-20
-1.3763e-20
-1.38038e-20
-1.07567e-20
-1.30413e-20
-1.4254e-20
-1.43439e-20
-1.48903e-20
-1.27551e-20
-1.44244e-20
-1.06227e-20
-7.27191e-21
-6.17842e-21
-5.07681e-21
-7.8698e-21
-8.83822e-21
-6.93017e-21
-2.25562e-21
-3.84983e-21
-4.55494e-21
-4.25141e-21
-2.61536e-21
-4.81234e-21
-6.49836e-21
-3.27958e-21
-5.57527e-22
-2.47861e-21
1.66867e-22
-3.50849e-22
-9.99368e-22
-3.66792e-21
-6.11978e-21
-1.82481e-21
-2.77647e-21
-9.58911e-24
9.22665e-22
-1.73828e-20
-1.90343e-20
-1.38353e-20
-1.38597e-20
-1.48183e-20
-1.64538e-20
-1.29967e-20
-1.05153e-20
-1.53954e-20
-1.11443e-20
-1.37845e-20
-1.54564e-20
-1.24361e-20
-9.53941e-21
-9.2065e-21
-7.82551e-21
-5.41467e-21
-2.55456e-21
-3.79803e-21
-8.41768e-21
-9.74436e-21
-5.10726e-21
-6.66732e-21
-5.65488e-21
-4.72097e-21
-3.68091e-21
-3.79771e-21
-4.33762e-21
-2.64909e-21
-1.45989e-21
-2.54325e-21
-1.35249e-21
-4.75001e-23
-6.04615e-22
-6.88544e-21
-5.36814e-21
-2.40638e-21
-1.08051e-21
-1.13196e-21
-2.5257e-22
-1.33422e-20
-1.47726e-20
-1.75555e-20
-1.32631e-20
-1.38693e-20
-1.56123e-20
-1.46344e-20
-1.46646e-20
-1.13804e-20
-1.23291e-20
-1.48685e-20
-1.52898e-20
-8.00473e-21
-1.24648e-20
-1.36849e-20
-7.66621e-21
-2.25633e-21
-2.85522e-21
-5.55428e-21
-5.64378e-21
-7.54285e-21
-7.6964e-21
-9.39771e-21
-6.76507e-21
-5.56943e-21
-1.17007e-21
-3.79798e-21
-6.163e-21
1.27625e-22
-1.97502e-21
-4.18718e-21
-3.50835e-21
-1.24754e-21
-3.92577e-21
-6.40187e-21
-5.07314e-21
-3.88277e-21
-1.35864e-21
-7.95938e-22
-1.32714e-21
-1.09462e-20
-1.3125e-20
-1.62705e-20
-1.52869e-20
-1.27108e-20
-1.58384e-20
-1.43305e-20
-1.36471e-20
-1.01501e-20
-1.38153e-20
-1.69783e-20
-1.29546e-20
-7.20632e-21
-9.65572e-21
-1.08249e-20
-6.81258e-21
-5.28217e-21
-8.22014e-21
-4.70065e-21
-3.82518e-21
-7.03648e-21
-7.37969e-21
-5.53634e-21
-6.2983e-21
-9.16033e-21
-4.71632e-21
-1.88854e-21
-2.74276e-21
-2.94482e-21
-2.85891e-21
-2.91362e-21
-4.03852e-21
-2.12965e-21
-2.16373e-21
-7.76392e-21
-5.27736e-21
-3.4749e-21
-1.62634e-21
-6.20939e-22
-1.32346e-21
-1.49509e-20
-1.67709e-20
-1.47047e-20
-1.22344e-20
-1.17845e-20
-1.41711e-20
-1.45938e-20
-1.67558e-20
-8.87455e-21
-1.15369e-20
-1.87248e-20
-1.51159e-20
-9.49157e-21
-9.75886e-21
-5.2309e-21
-7.29895e-21
-7.62461e-21
-4.27179e-21
-1.53048e-21
-5.68773e-21
-5.75615e-21
-7.38751e-21
-9.64393e-21
-1.06253e-20
-7.14753e-21
-6.24655e-21
-2.19868e-21
-4.7075e-21
-4.3749e-21
-1.06385e-21
-2.56597e-21
-3.17468e-21
-3.09345e-21
-2.05578e-21
-4.05543e-21
-5.75385e-21
-4.14619e-21
-2.08665e-21
-4.36265e-22
-2.79885e-22
-9.63406e-21
-1.32715e-20
-1.51938e-20
-1.89597e-20
-1.2485e-20
-1.5174e-20
-1.42484e-20
-1.13969e-20
-1.06966e-20
-1.30215e-20
-1.73302e-20
-1.38291e-20
-9.16976e-21
-9.27718e-21
-5.50205e-21
-1.03895e-20
-7.12602e-21
-4.91171e-21
-9.94352e-22
-3.9427e-21
-4.25222e-21
-9.30513e-21
-8.19682e-21
-8.19784e-21
-8.74802e-21
-5.6221e-21
-1.28749e-21
-1.71402e-21
-6.79742e-21
-2.95456e-21
-1.70818e-22
-2.96928e-21
-3.52283e-21
-2.7325e-21
-8.99114e-21
-2.62637e-21
-3.96443e-21
-3.44885e-21
-1.57539e-21
-2.32011e-21
-9.68087e-21
-1.40062e-20
-1.49237e-20
-1.6193e-20
-1.33445e-20
-1.41872e-20
-1.3316e-20
-1.22701e-20
-1.281e-20
-1.30923e-20
-1.66101e-20
-7.81519e-21
-9.68645e-21
-1.17015e-20
-6.16347e-21
-6.9309e-21
-7.96086e-21
-5.18464e-21
-4.55071e-21
-4.75252e-21
-5.90477e-21
-2.53703e-21
-8.04263e-21
-9.20848e-21
-6.77973e-21
-4.94925e-21
-3.59335e-21
-2.98279e-21
-5.05167e-21
-3.48579e-21
-2.50968e-21
-3.21518e-21
-5.35285e-21
-6.33801e-21
-6.0178e-21
-3.83136e-21
-3.75675e-21
-2.24933e-21
-2.62992e-21
-2.65209e-21
-1.3195e-20
-1.865e-20
-1.5276e-20
-1.05812e-20
-1.80109e-20
-1.52152e-20
-1.29008e-20
-1.14656e-20
-1.24438e-20
-1.32189e-20
-1.31548e-20
-6.49731e-21
-9.06573e-21
-1.21792e-20
-7.56317e-21
-9.34267e-21
-9.443e-21
-9.80442e-22
-3.90611e-21
-3.77951e-21
-7.55737e-21
-5.78265e-21
-6.0502e-21
-6.32148e-21
-7.1188e-21
-3.85268e-21
-3.60936e-21
-5.29164e-21
-3.49093e-21
-5.35246e-21
-2.18492e-21
-3.00256e-21
-4.18131e-21
-3.50386e-21
-7.62116e-21
-5.1095e-21
-3.89267e-21
-4.48368e-21
-1.16989e-21
-8.81661e-22
-1.18408e-20
-1.59412e-20
-1.78887e-20
-1.25806e-20
-1.34144e-20
-1.69031e-20
-1.32057e-20
-6.83862e-21
-1.09078e-20
-1.65506e-20
-1.12099e-20
-9.98211e-21
-8.27582e-21
-1.37007e-20
-9.47324e-21
-9.43994e-21
-6.49899e-21
-5.3775e-21
-2.62995e-21
-1.03193e-21
-3.99912e-21
-7.5007e-21
-8.46807e-21
-7.03895e-21
-9.97086e-21
-6.38637e-21
-1.49058e-21
1.08594e-21
-3.6404e-21
-3.38647e-21
-4.09083e-21
-4.76395e-21
-5.08507e-21
-2.19459e-21
-4.62519e-21
-7.69835e-21
-3.32093e-21
-7.79406e-22
-9.50814e-22
-1.18639e-21
-1.34438e-20
-1.37883e-20
-1.42451e-20
-1.43717e-20
-1.41938e-20
-1.3979e-20
-1.37812e-20
-1.18287e-20
-1.05166e-20
-1.2164e-20
-1.01026e-20
-9.47788e-21
-1.01611e-20
-1.21231e-20
-9.69885e-21
-8.98606e-21
-4.70632e-21
-5.34071e-21
-1.92575e-21
-2.79204e-21
-4.74964e-21
-6.79478e-21
-9.17512e-21
-7.60152e-21
-7.79907e-21
-5.30459e-21
-1.92276e-21
-3.48547e-21
-4.55344e-21
-2.85329e-21
-3.1466e-21
-2.98134e-21
-1.91803e-21
-1.37759e-21
-2.63154e-21
-6.90195e-21
-3.02336e-21
-1.45826e-21
-1.92505e-21
-2.38425e-21
-1.68519e-20
-1.56216e-20
-1.23895e-20
-1.25074e-20
-1.50619e-20
-1.48462e-20
-1.23008e-20
-1.19753e-20
-1.24128e-20
-1.00958e-20
-7.7791e-21
-1.07197e-20
-1.27924e-20
-1.19222e-20
-7.26108e-21
-8.80943e-21
-4.91868e-21
-3.08232e-21
-6.38943e-22
-3.55358e-21
-2.5591e-21
-6.19698e-21
-1.34963e-20
-8.24312e-21
-8.28021e-21
-7.80445e-21
-1.11873e-21
-1.80385e-22
-2.90514e-21
-4.63981e-21
-3.69625e-21
-4.29162e-21
1.36668e-21
-1.05426e-21
-4.94838e-21
-3.76468e-21
-2.08199e-21
5.16411e-22
-1.49996e-21
-2.98836e-21
-1.10203e-20
-1.1122e-20
-1.26904e-20
-1.03206e-20
-1.75434e-20
-1.48445e-20
-1.3415e-20
-1.33565e-20
-1.20714e-20
-1.15747e-20
-1.03763e-20
-8.28467e-21
-1.19763e-20
-9.63776e-21
-5.96906e-21
-8.38847e-21
-7.47142e-21
-4.42578e-21
-1.69782e-21
-3.10382e-22
-3.35253e-21
-5.31084e-21
-1.12861e-20
-9.39543e-21
-9.55773e-21
-7.70584e-21
8.18654e-22
-7.94445e-23
-3.73379e-21
-3.64792e-21
-2.84785e-21
-3.44787e-21
1.61516e-22
1.02441e-21
-2.72423e-21
-3.92181e-21
-1.43166e-21
-1.69972e-21
-8.63807e-22
-8.23439e-22
-1.22516e-20
-1.25181e-20
-1.28571e-20
-1.37597e-20
-1.4804e-20
-1.03807e-20
-1.28025e-20
-1.18304e-20
-1.04016e-20
-8.3556e-21
-8.95215e-21
-1.37204e-20
-1.08576e-20
-8.34087e-21
-6.86117e-21
-8.95288e-21
-8.38162e-21
-3.71087e-21
-3.1548e-21
-3.27921e-21
-2.34796e-21
-4.12922e-21
-9.42274e-21
-9.54742e-21
-7.54043e-21
-6.10464e-21
-3.11163e-21
-2.19864e-21
-1.41012e-21
-3.71819e-21
-3.09442e-21
-1.32043e-21
-1.66182e-21
-4.75172e-22
2.05052e-21
-4.29531e-21
-2.56659e-21
1.02604e-21
-1.55486e-21
-2.56661e-21
-1.39918e-20
-1.15717e-20
-1.01189e-20
-9.89989e-21
-1.32707e-20
-1.45005e-20
-1.3403e-20
-1.38988e-20
-1.17742e-20
-8.82002e-21
-5.27956e-21
-1.19132e-20
-6.59109e-21
-6.34962e-21
-6.72645e-21
-9.10644e-21
-9.9536e-21
-3.93976e-21
-2.99616e-21
-3.16614e-21
-3.41053e-21
-7.22923e-21
-6.10684e-21
-6.86267e-21
-7.6741e-21
-5.5249e-21
-4.86068e-21
-7.29973e-21
-1.50294e-21
-2.84062e-21
-4.18524e-21
-3.40506e-21
-3.77809e-21
-2.30679e-21
1.37263e-21
1.72366e-21
-2.04682e-21
7.09147e-22
1.78768e-21
-8.67293e-24
-8.5829e-21
-1.09787e-20
-1.1509e-20
-8.73513e-21
-8.96899e-21
-1.61142e-20
-1.23501e-20
-1.22771e-20
-1.2226e-20
-1.19818e-20
-1.07849e-20
-6.23642e-21
-8.69669e-21
-6.83967e-21
-7.55492e-21
-6.57257e-21
-6.70908e-21
-4.2478e-21
-4.40719e-21
-4.50436e-21
-4.01717e-21
-6.61819e-21
-5.73105e-21
-8.00346e-21
-6.43778e-21
-4.09347e-21
-2.5363e-21
-3.17088e-21
-4.22455e-21
-2.15537e-21
-4.73677e-21
-3.35938e-21
-2.80961e-21
-3.21943e-21
-2.69224e-21
3.17459e-22
1.12052e-21
1.1006e-21
1.39486e-21
-1.01317e-21
-7.18787e-21
-1.02134e-20
-1.14017e-20
-9.33077e-21
-7.38315e-21
-1.43813e-20
-1.37882e-20
-1.02109e-20
-9.86473e-21
-9.7623e-21
-9.82565e-21
-9.15521e-21
-1.04206e-20
-5.04748e-21
-7.45897e-21
-7.17394e-21
-4.80161e-21
7.9825e-23
-1.40587e-21
-6.94524e-21
-3.6268e-21
-8.41857e-21
-8.7374e-21
-6.6562e-21
-6.10439e-21
-5.13584e-21
-4.95533e-21
-5.93998e-22
-2.77192e-21
-2.41587e-21
-5.55983e-21
-3.5524e-21
-4.44212e-21
-2.04572e-21
-1.04801e-21
2.35028e-22
1.26146e-21
-1.65032e-21
-6.15399e-22
-4.60942e-23
-5.21316e-21
-9.19374e-21
-1.2011e-20
-7.11908e-21
-7.15934e-21
-1.22135e-20
-1.06239e-20
-9.61756e-21
-9.40401e-21
-9.63696e-21
-6.19109e-21
-9.42224e-21
-1.02534e-20
-9.7466e-21
-3.83564e-21
-3.28051e-21
-2.67169e-21
-3.48527e-21
-3.30358e-21
-5.96472e-21
-5.37794e-21
-5.40234e-21
-7.66921e-21
-8.32221e-21
-4.08539e-21
-2.06236e-21
-3.75274e-21
-1.37617e-21
-1.33875e-21
-4.52388e-21
-5.5619e-21
-3.89169e-21
-5.74088e-21
-1.88819e-21
-2.2427e-21
1.86394e-23
2.69754e-21
3.1061e-21
3.60419e-22
-6.60623e-22
-6.65258e-21
-8.85074e-21
-1.04942e-20
-6.23058e-21
-5.65418e-21
-1.381e-20
-1.10168e-20
-6.21643e-21
-9.69113e-21
-9.5169e-21
-6.32022e-21
-6.53656e-21
-7.10559e-21
-7.15959e-21
-6.99342e-21
-3.44706e-21
-3.77693e-21
-1.53943e-21
-4.656e-21
-4.40359e-21
-2.73259e-21
-5.61658e-21
-7.05329e-21
-1.07029e-20
-7.65634e-21
-1.86054e-21
-1.02529e-21
3.24885e-23
-2.56151e-21
-2.94637e-21
-2.24644e-21
-3.23986e-21
-3.49312e-21
-1.11723e-21
-3.35808e-22
-1.42859e-21
-9.56537e-22
-6.14576e-22
3.31668e-21
-9.82524e-23
-6.28348e-21
-6.80547e-21
-6.36055e-21
-2.86722e-21
-3.77302e-21
-3.35656e-21
-8.45991e-21
-4.86615e-21
-6.82834e-21
-6.26852e-21
-2.38792e-21
-2.41636e-21
-5.69636e-21
-4.34615e-21
-4.12275e-21
-3.0938e-21
-1.14353e-21
2.32756e-22
-5.12207e-21
-1.22243e-21
-4.74825e-21
-7.11822e-21
-6.28951e-21
-4.51626e-21
-4.32421e-21
-1.12129e-21
-6.71068e-22
-6.06087e-22
-7.59569e-22
7.10652e-22
-7.77799e-22
-1.78236e-21
-2.3404e-21
-2.15986e-21
8.21465e-23
-5.96058e-21
-1.98251e-21
-1.0477e-21
9.15871e-22
1.17448e-21
-6.32584e-21
-9.82051e-21
-1.33672e-20
-9.41086e-21
-9.13537e-21
-1.13591e-20
-7.53581e-21
-4.39218e-21
-1.21257e-20
-1.13918e-20
-4.95796e-21
-7.9192e-21
-9.99234e-21
-5.21206e-21
-6.59434e-21
-8.95414e-21
-5.38121e-21
3.68739e-22
-2.32042e-21
-6.27418e-21
-3.29356e-21
-2.79928e-21
-3.78722e-21
-3.26074e-21
-2.45844e-21
-3.25459e-21
-3.49995e-21
-3.04307e-21
-5.50915e-21
-5.37742e-21
-5.97465e-21
-1.81876e-21
-1.14342e-21
7.56847e-22
-3.14881e-21
-4.09864e-21
-2.40026e-23
-2.9958e-21
-2.66614e-21
-6.52214e-23
-9.74263e-21
-1.38442e-20
-1.80661e-20
-1.45524e-20
-1.17969e-20
-1.45492e-20
-1.35187e-20
-9.01829e-21
-9.19762e-21
-1.68129e-20
-1.27714e-20
-1.23877e-20
-1.20984e-20
-9.2013e-21
-9.87279e-21
-9.16658e-21
-7.07528e-21
-4.84616e-21
-5.30669e-21
-6.48155e-21
-4.25215e-21
-4.97134e-21
-7.10721e-21
-9.32219e-21
-3.45324e-21
-2.81377e-21
-2.76631e-21
-2.47568e-21
-8.47679e-21
-4.09122e-21
-1.80879e-21
-1.7798e-21
-2.90969e-21
-2.28507e-21
-6.81284e-21
-3.82122e-21
1.14677e-21
2.24245e-21
-2.01596e-22
-4.48024e-22
-1.245e-20
-1.5048e-20
-1.41776e-20
-1.58509e-20
-1.41915e-20
-1.33702e-20
-1.47221e-20
-1.21475e-20
-1.45991e-20
-1.67117e-20
-1.35335e-20
-1.31113e-20
-9.57268e-21
-6.13139e-21
-1.05659e-20
-9.4892e-21
-9.90529e-21
-7.57385e-21
-1.58172e-21
-7.57861e-21
-5.61868e-21
-3.30625e-21
-4.08683e-21
-6.44998e-21
-6.54709e-21
-3.75464e-21
-4.73771e-21
-4.48337e-21
-4.10408e-21
-4.50421e-21
-6.9941e-21
-3.42085e-21
-1.40955e-21
-2.70012e-21
-4.71007e-21
-2.37153e-21
1.11046e-21
-4.16582e-23
-9.63345e-22
8.71639e-22
-1.72178e-20
-1.63333e-20
-1.55556e-20
-1.94159e-20
-1.59686e-20
-1.47069e-20
-1.53509e-20
-1.34199e-20
-1.40131e-20
-1.36961e-20
-1.49462e-20
-1.52895e-20
-1.03723e-20
-9.48019e-21
-1.0758e-20
-8.57076e-21
-8.12107e-21
-6.45513e-21
-4.9573e-21
-4.30568e-21
-7.25523e-21
-6.6749e-21
-6.20347e-21
-6.82174e-21
-5.86314e-21
-5.18477e-21
-4.70929e-21
-3.54944e-21
-4.02553e-21
-5.34233e-21
-4.73528e-21
-1.55561e-21
-4.69598e-21
-4.32723e-21
-3.38082e-21
-2.0299e-21
1.42844e-21
-3.65777e-22
-1.19841e-21
-4.24098e-22
-1.83986e-20
-1.71055e-20
-1.6023e-20
-1.76524e-20
-1.9039e-20
-1.88563e-20
-1.45967e-20
-1.23641e-20
-1.02636e-20
-1.52706e-20
-1.46883e-20
-1.4733e-20
-9.38046e-21
-1.1079e-20
-1.4652e-20
-1.28573e-20
-8.17013e-21
-5.79712e-21
-4.14532e-21
-5.69767e-21
-6.97149e-21
-7.324e-21
-5.86729e-21
-7.62535e-21
-7.34314e-21
-4.25439e-21
-5.55581e-21
-5.29758e-21
-3.70415e-21
-3.31567e-21
-4.46975e-21
-4.28583e-21
-2.54674e-21
-2.64031e-21
-2.93565e-21
-1.28357e-21
7.59585e-22
-5.20174e-22
-6.68531e-22
-1.37894e-21
-1.69378e-20
-1.96483e-20
-1.61892e-20
-1.62414e-20
-1.85066e-20
-2.0502e-20
-1.35312e-20
-1.61453e-20
-1.64842e-20
-1.47684e-20
-1.35746e-20
-1.45463e-20
-1.27539e-20
-1.08881e-20
-1.41535e-20
-1.15183e-20
-9.64018e-21
-6.41028e-21
-4.66496e-21
-4.40869e-21
-6.90873e-21
-8.26251e-21
-7.26547e-21
-6.81837e-21
-7.16542e-21
-5.43519e-21
-5.14177e-21
-3.69495e-21
-5.08204e-21
-4.9982e-21
-4.57386e-21
-3.28946e-21
-1.49827e-22
-4.20167e-21
-4.24486e-21
-1.53349e-21
-1.94731e-22
9.84999e-22
1.25045e-21
-1.97071e-21
-1.98866e-20
-2.27031e-20
-1.85628e-20
-1.81857e-20
-1.94944e-20
-1.78258e-20
-1.67575e-20
-1.65845e-20
-1.72903e-20
-1.6108e-20
-1.55092e-20
-1.432e-20
-1.08343e-20
-1.12232e-20
-1.48142e-20
-1.07802e-20
-6.67112e-21
-4.59819e-21
-7.70473e-21
-5.30573e-21
-5.87932e-21
-5.93414e-21
-7.98126e-21
-8.96784e-21
-7.09466e-21
-6.1863e-21
-6.67939e-21
-4.4152e-21
-3.77381e-21
-2.12327e-21
-4.82838e-21
-5.61104e-21
1.03492e-21
-1.73432e-22
-3.88275e-21
-2.95222e-21
-4.75567e-22
-8.42921e-22
-2.00344e-21
-3.05551e-21
-1.9452e-20
-2.10077e-20
-1.9304e-20
-2.03377e-20
-2.09719e-20
-1.54551e-20
-1.77647e-20
-1.87054e-20
-1.86136e-20
-1.84533e-20
-1.6034e-20
-1.39532e-20
-1.03116e-20
-1.12878e-20
-1.32152e-20
-1.12755e-20
-7.14232e-21
-5.76804e-21
-6.12041e-21
-3.9024e-21
-3.95399e-21
-9.28297e-21
-8.32255e-21
-7.26421e-21
-9.62176e-21
-6.91686e-21
-5.37664e-21
-6.09502e-21
-2.27335e-21
-3.21118e-21
-6.89223e-21
-3.19754e-21
-2.16236e-21
-2.35841e-21
-2.59855e-21
-1.70942e-21
2.72296e-22
6.15812e-22
-2.95035e-21
-5.22289e-22
-2.10197e-20
-2.394e-20
-2.18324e-20
-2.12998e-20
-2.00652e-20
-1.87686e-20
-1.87474e-20
-1.86983e-20
-1.89501e-20
-1.83513e-20
-1.54487e-20
-1.56619e-20
-1.06813e-20
-1.12648e-20
-1.29148e-20
-1.06508e-20
-9.68711e-21
-4.84399e-21
-5.60979e-21
-6.86157e-21
-2.95855e-21
-9.14543e-21
-9.73636e-21
-1.04736e-20
-7.91922e-21
-5.40607e-21
-5.59819e-21
-5.16499e-21
-6.77734e-23
-7.51185e-21
-5.62642e-21
-3.26391e-21
-2.00411e-21
-1.2591e-21
-1.81094e-21
-3.78901e-22
-7.56938e-22
-6.68706e-22
-7.80823e-22
-1.38662e-21
-2.15357e-20
-2.17746e-20
-1.99175e-20
-2.31537e-20
-2.30879e-20
-2.16223e-20
-2.21327e-20
-1.89139e-20
-1.56752e-20
-1.7331e-20
-1.74708e-20
-1.38414e-20
-1.2622e-20
-1.27562e-20
-1.29281e-20
-1.0749e-20
-8.5593e-21
-5.78072e-21
-2.55578e-21
-3.90017e-21
-8.76467e-21
-1.18844e-20
-1.17237e-20
-1.00908e-20
-6.42059e-21
-5.4171e-21
-5.52901e-21
-3.65302e-21
-4.3754e-21
-6.50678e-21
-2.67165e-21
-2.44552e-21
-3.69904e-21
-1.72651e-21
-2.58037e-21
-2.50119e-22
1.12489e-21
-8.87405e-22
-4.92804e-22
-8.95417e-23
-2.25118e-20
-2.47171e-20
-2.31447e-20
-2.22668e-20
-2.22418e-20
-2.10005e-20
-2.2064e-20
-2.24719e-20
-1.82768e-20
-1.79663e-20
-1.4194e-20
-1.1393e-20
-1.1562e-20
-1.03881e-20
-1.38771e-20
-1.31225e-20
-8.65733e-21
-6.28991e-21
-3.15643e-21
-5.6618e-21
-1.07369e-20
-1.07826e-20
-1.1807e-20
-1.23872e-20
-5.93514e-21
-5.08165e-21
-4.36488e-21
-5.05778e-21
-4.71922e-21
-4.97187e-21
-3.41529e-21
-2.44526e-21
-2.7529e-21
-2.35975e-21
-2.68959e-21
-1.07615e-21
-4.71692e-22
-1.36564e-21
-1.05462e-21
-1.51335e-21
-2.38193e-20
-2.63897e-20
-2.23467e-20
-2.13194e-20
-2.04698e-20
-2.32537e-20
-2.25318e-20
-2.14757e-20
-1.61298e-20
-1.87788e-20
-1.68109e-20
-1.38958e-20
-1.17189e-20
-1.13067e-20
-1.43415e-20
-1.57058e-20
-9.01956e-21
-4.91271e-21
-2.02073e-21
-5.53875e-21
-9.98117e-21
-1.19839e-20
-1.13429e-20
-1.21166e-20
-3.44045e-21
-6.00305e-21
-5.0573e-21
-4.38474e-21
-2.37471e-21
-5.25071e-21
-4.05718e-21
-2.76892e-21
-1.77584e-21
-1.84482e-21
-2.03814e-21
-1.48127e-21
5.98953e-22
-1.26283e-21
-1.57367e-21
5.39631e-22
-2.54059e-20
-2.51361e-20
-2.16912e-20
-2.38444e-20
-2.17611e-20
-2.44333e-20
-2.13723e-20
-2.02729e-20
-1.98987e-20
-1.70153e-20
-1.37544e-20
-1.5316e-20
-1.50124e-20
-1.37478e-20
-1.34243e-20
-1.17203e-20
-7.38123e-21
-6.08392e-21
-5.56921e-21
-6.23348e-21
-8.25311e-21
-9.12074e-21
-1.09261e-20
-1.08231e-20
-5.57856e-21
-3.02081e-21
-4.44966e-21
-3.82442e-21
-3.65451e-21
-2.52715e-21
-3.68385e-21
-3.74654e-21
-1.86895e-21
-1.37943e-21
-6.90688e-21
6.39782e-22
1.56003e-21
-4.28699e-21
-3.05286e-21
7.33896e-23
-2.78884e-20
-2.69356e-20
-2.30897e-20
-2.38056e-20
-2.21802e-20
-2.11628e-20
-2.1882e-20
-1.99915e-20
-1.99696e-20
-1.95875e-20
-1.52393e-20
-1.2999e-20
-1.78354e-20
-1.24157e-20
-1.31365e-20
-1.18924e-20
-1.19644e-20
-6.70754e-21
-3.28246e-21
-2.22783e-21
-9.45692e-21
-1.04118e-20
-1.0435e-20
-1.07953e-20
-4.42841e-21
-1.96296e-21
-3.34489e-21
-4.52886e-21
-4.72827e-21
-3.17324e-21
-3.95205e-21
-3.14578e-21
-1.20121e-21
-3.00055e-21
-5.34851e-21
-6.0507e-22
-1.3826e-22
1.98252e-21
-5.48949e-22
2.55001e-23
-2.93594e-20
-2.60776e-20
-2.19133e-20
-2.05192e-20
-2.1611e-20
-2.00774e-20
-2.25103e-20
-2.08548e-20
-2.04916e-20
-1.71769e-20
-1.5585e-20
-1.70727e-20
-1.75201e-20
-1.39574e-20
-1.29532e-20
-1.07113e-20
-9.13294e-21
-7.23281e-21
-7.34097e-21
-6.33163e-21
-6.5945e-21
-9.80563e-21
-1.24084e-20
-7.6994e-21
-4.02169e-21
-3.76368e-21
-3.71992e-21
-2.85926e-21
-4.03512e-21
-2.37039e-21
-4.73712e-21
-3.53512e-21
-2.67114e-21
-7.30159e-22
-4.71085e-21
-2.90375e-21
2.44096e-21
-4.76599e-22
-1.22399e-21
-8.07876e-22
-2.53887e-20
-2.65876e-20
-2.41959e-20
-2.31936e-20
-2.15827e-20
-2.06319e-20
-2.18155e-20
-2.08342e-20
-1.95274e-20
-1.6023e-20
-1.75519e-20
-1.90334e-20
-1.919e-20
-1.37594e-20
-1.26474e-20
-1.31924e-20
-8.34755e-21
-7.82647e-21
-6.86593e-21
-5.11482e-21
-8.33921e-21
-1.06702e-20
-1.13128e-20
-6.33368e-21
-4.9605e-21
-3.84094e-21
-3.13124e-21
-2.48918e-21
-4.25341e-21
-2.6873e-21
-2.90154e-21
-2.56694e-21
-1.9638e-21
-2.03783e-21
-3.91319e-21
-1.42907e-21
2.34274e-22
-1.99817e-21
-1.56505e-21
-1.37111e-21
-2.29358e-20
-2.34473e-20
-2.48658e-20
-2.16597e-20
-2.41765e-20
-2.31799e-20
-2.25828e-20
-2.23387e-20
-1.99916e-20
-1.5334e-20
-1.63634e-20
-1.82602e-20
-1.75846e-20
-1.58185e-20
-1.40685e-20
-9.86148e-21
-6.9165e-21
-6.65193e-21
-1.03903e-20
-9.11346e-21
-1.05164e-20
-6.82088e-21
-6.72536e-21
-5.57952e-21
-3.9606e-21
-3.826e-21
-2.69971e-21
-3.32073e-21