/*--------------------------------*- C++ -*----------------------------------*\
| =========                 |                                                 |
| \\      /  F ield         | OpenFOAM: The Open Source CFD Toolbox           |
|  \\    /   O peration     | Version:  v2012                                 |
|   \\  /    A nd           | Website:  www.openfoam.com                      |
|    \\/     M anipulation  |                                                 |
\*---------------------------------------------------------------------------*/
FoamFile
{
    version     2.0;
    format      ascii;
    class       surfaceScalarField;
    location    "35";
    object      phi;
}
// * * * * * * * * * * * * * * * * * * * * * * * * * * * * * * * * * * * * * //

dimensions      [0 3 -1 0 0 0 0];
oriented        oriented;


internalField   nonuniform List<scalar> 
187200
(
1.875e-06
3.09045e-22
2.77221e-22
1.875e-06
3.18107e-22
3.57268e-22
1.875e-06
3.95298e-22
5.00668e-22
1.875e-06
3.48681e-22
3.96006e-22
1.875e-06
3.05583e-22
2.41334e-22
1.875e-06
4.51407e-22
3.99632e-22
1.875e-06
3.86689e-22
3.17978e-22
1.875e-06
2.93573e-22
2.72055e-22
1.875e-06
2.23725e-22
4.11686e-22
1.875e-06
3.53355e-22
3.87184e-22
1.875e-06
4.37683e-22
2.42519e-22
1.875e-06
3.46863e-22
2.61162e-22
1.875e-06
2.37017e-22
3.40943e-22
1.875e-06
1.7775e-22
1.61832e-22
1.875e-06
1.97696e-22
2.52128e-22
1.875e-06
1.48916e-22
2.68737e-22
1.875e-06
1.89151e-22
2.45654e-22
1.875e-06
7.72706e-23
9.99826e-23
1.875e-06
5.28688e-23
9.68562e-23
1.875e-06
1.29117e-22
1.8486e-22
1.875e-06
5.19222e-23
1.45005e-22
1.875e-06
1.47882e-22
1.48277e-22
1.875e-06
2.24994e-22
1.27148e-22
1.875e-06
3.4565e-22
1.37756e-22
1.875e-06
1.55377e-22
3.49382e-23
1.875e-06
1.45677e-22
1.0977e-22
1.875e-06
1.86096e-22
1.85884e-22
1.875e-06
1.12691e-22
5.77109e-23
1.875e-06
1.08008e-22
1.74854e-22
1.875e-06
1.17343e-23
1.68219e-22
1.875e-06
-1.00993e-22
9.07115e-23
1.875e-06
2.0005e-23
9.99579e-23
1.875e-06
1.70531e-22
1.43176e-22
1.875e-06
1.25358e-22
1.22503e-23
1.875e-06
2.23686e-23
7.48273e-23
1.875e-06
-4.48414e-23
-8.85965e-24
1.875e-06
-5.35146e-23
1.53592e-23
1.875e-06
-1.33004e-22
1.61778e-22
1.875e-06
-6.5902e-23
1.72634e-22
1.97378e-24
1.10817e-22
1.875e-06
9.43014e-24
2.49511e-22
1.875e-06
1.53989e-22
5.62882e-22
1.875e-06
3.07086e-22
7.89933e-22
1.875e-06
3.14747e-22
7.43304e-22
1.875e-06
2.57037e-22
5.88514e-22
1.875e-06
3.34354e-22
6.36213e-22
1.875e-06
3.53358e-22
7.14931e-22
1.875e-06
3.64801e-22
6.73822e-22
1.875e-06
4.4113e-22
7.20921e-22
1.875e-06
3.17699e-22
7.89855e-22
1.875e-06
2.09593e-22
6.12495e-22
1.875e-06
1.92575e-22
5.44424e-22
1.875e-06
2.58135e-22
6.08242e-22
1.875e-06
1.60835e-22
5.47859e-22
1.875e-06
8.92587e-23
5.49508e-22
1.875e-06
5.14091e-23
5.09208e-22
1.875e-06
2.91883e-22
4.73893e-22
1.875e-06
3.10369e-22
5.28242e-22
1.875e-06
9.97812e-23
4.10191e-22
1.875e-06
-2.63009e-23
2.76524e-22
1.875e-06
1.74601e-22
3.64043e-22
1.875e-06
2.07303e-22
3.30018e-22
1.875e-06
1.54564e-22
2.57315e-22
1.875e-06
1.17585e-22
2.29424e-22
1.875e-06
1.07747e-22
1.62317e-22
1.875e-06
1.2234e-22
1.70237e-22
1.875e-06
1.1636e-22
1.73271e-22
1.875e-06
5.58989e-23
1.25305e-22
1.875e-06
-1.5733e-23
3.12118e-22
1.875e-06
7.22541e-23
2.67784e-22
1.875e-06
1.13722e-22
1.90804e-22
1.875e-06
1.453e-23
1.0225e-22
1.875e-06
3.92152e-24
3.11552e-23
1.875e-06
-3.40911e-23
5.27263e-23
1.875e-06
3.85101e-23
2.04501e-22
1.875e-06
4.87878e-23
1.1527e-22
1.875e-06
-1.41267e-22
-1.03053e-23
1.875e-06
-1.09885e-22
6.09749e-23
1.875e-06
-8.52099e-23
9.47731e-23
-1.3802e-22
3.69684e-23
1.875e-06
1.7872e-22
4.00067e-22
1.875e-06
1.63575e-22
6.77283e-22
1.875e-06
1.3255e-22
7.26904e-22
1.875e-06
3.34276e-22
8.79294e-22
1.875e-06
3.29993e-22
8.17308e-22
1.875e-06
2.82729e-22
7.21422e-22
1.875e-06
3.00962e-22
8.41234e-22
1.875e-06
2.81238e-22
8.76106e-22
1.875e-06
2.80423e-22
8.96759e-22
1.875e-06
2.74186e-22
9.12138e-22
1.875e-06
3.04351e-22
8.14437e-22
1.875e-06
1.92421e-22
7.28735e-22
1.875e-06
1.88355e-22
6.08125e-22
1.875e-06
1.91634e-22
5.66605e-22
1.875e-06
2.1979e-22
7.07535e-22
1.875e-06
2.49937e-22
6.99404e-22
1.875e-06
1.05447e-22
5.29449e-22
1.875e-06
1.82309e-22
5.28441e-22
1.875e-06
9.45206e-23
3.84667e-22
1.875e-06
1.51965e-22
4.36726e-22
1.875e-06
1.41575e-22
4.00369e-22
1.875e-06
9.97628e-23
2.36291e-22
1.875e-06
1.95694e-22
1.68069e-22
1.875e-06
2.00076e-22
2.21516e-22
1.875e-06
2.54378e-22
3.51854e-22
1.875e-06
5.27095e-23
2.96312e-22
1.875e-06
4.50658e-23
2.80936e-22
1.875e-06
-4.74538e-23
2.40919e-22
1.875e-06
-9.39406e-25
2.87499e-22
1.875e-06
4.28924e-23
2.59023e-22
1.875e-06
1.5305e-23
2.99959e-22
1.875e-06
4.20699e-23
1.94841e-22
1.875e-06
-5.26925e-23
9.8975e-24
1.875e-06
9.94001e-24
1.50282e-22
1.875e-06
9.99108e-24
1.13925e-22
1.875e-06
-5.77574e-23
-6.06157e-23
1.875e-06
-1.76536e-23
4.51817e-23
1.875e-06
2.49171e-23
2.03401e-22
1.875e-06
3.52741e-23
1.44976e-22
-2.08462e-23
5.4274e-23
1.875e-06
2.27884e-22
4.66503e-22
1.875e-06
1.71052e-22
7.85539e-22
1.875e-06
1.5057e-22
8.70878e-22
1.875e-06
1.28325e-22
9.15422e-22
1.875e-06
1.68001e-22
8.62813e-22
1.875e-06
2.23755e-22
8.35322e-22
1.875e-06
1.78216e-22
8.73269e-22
1.875e-06
1.66838e-22
9.57657e-22
1.875e-06
2.14573e-22
9.33739e-22
1.875e-06
2.70361e-22
8.92961e-22
1.875e-06
1.86988e-22
8.83542e-22
1.875e-06
2.20775e-22
9.07592e-22
1.875e-06
1.67433e-22
6.51983e-22
1.875e-06
1.65244e-22
7.06425e-22
1.875e-06
3.03271e-22
7.2633e-22
1.875e-06
4.40424e-22
6.47794e-22
1.875e-06
1.93981e-22
5.31532e-22
1.875e-06
8.73583e-23
5.2676e-22
1.875e-06
1.45627e-22
6.05877e-22
1.875e-06
9.41005e-23
3.90698e-22
1.875e-06
7.32713e-23
3.91793e-22
1.875e-06
1.28237e-22
3.4132e-22
1.875e-06
1.56586e-22
1.68232e-22
1.875e-06
1.04554e-22
2.38052e-22
1.875e-06
7.07878e-23
2.81702e-22
1.875e-06
1.48435e-22
4.45761e-22
1.875e-06
3.59778e-23
3.25944e-22
1.875e-06
4.57583e-23
2.88245e-22
1.875e-06
8.76238e-23
3.13823e-22
1.875e-06
-5.45086e-23
2.62167e-22
1.875e-06
-4.08639e-23
2.28241e-22
1.875e-06
-3.44179e-23
1.8738e-22
1.875e-06
-2.99966e-23
1.89316e-22
1.875e-06
-2.0967e-23
2.00496e-22
1.875e-06
-6.12133e-24
3.89656e-23
1.875e-06
-9.49184e-23
-4.68354e-23
1.875e-06
7.91402e-23
3.77641e-23
1.875e-06
1.08347e-22
1.15336e-22
1.875e-06
1.7683e-23
6.2695e-23
-2.97026e-23
6.8288e-23
1.875e-06
-2.18761e-23
3.65358e-22
1.875e-06
1.32394e-22
7.9299e-22
1.875e-06
5.26229e-23
9.14778e-22
1.875e-06
1.12987e-22
9.54876e-22
1.875e-06
1.14581e-22
9.99269e-22
1.875e-06
8.25865e-23
9.65847e-22
1.875e-06
9.59903e-23
9.80778e-22
1.875e-06
3.55713e-22
1.0359e-21
1.875e-06
3.44977e-22
8.9848e-22
1.875e-06
2.28707e-22
9.06286e-22
1.875e-06
2.02318e-22
9.02931e-22
1.875e-06
1.58779e-22
9.10805e-22
1.875e-06
2.01871e-22
7.41545e-22
1.875e-06
1.62331e-22
8.22048e-22
1.875e-06
2.04453e-22
8.22488e-22
1.875e-06
1.77731e-22
5.56579e-22
1.875e-06
1.36215e-22
5.42355e-22
1.875e-06
7.54282e-23
5.25718e-22
1.875e-06
1.91391e-22
5.39178e-22
1.875e-06
1.84889e-22
4.99359e-22
1.875e-06
5.11915e-23
3.8321e-22
1.875e-06
4.46077e-23
3.17119e-22
1.875e-06
1.81853e-22
1.96875e-22
1.875e-06
1.55338e-22
2.89958e-22
1.875e-06
1.91706e-22
4.05613e-22
1.875e-06
8.84185e-23
3.98811e-22
1.875e-06
1.04032e-22
3.69392e-22
1.875e-06
-2.49057e-23
2.96697e-22
1.875e-06
-8.73631e-23
2.36006e-22
1.875e-06
1.91154e-23
2.63669e-22
1.875e-06
6.84117e-23
2.8804e-22
1.875e-06
1.27063e-22
2.85988e-22
1.875e-06
3.87527e-24
1.75342e-22
1.875e-06
-1.48587e-23
1.40409e-22
1.875e-06
-6.93193e-23
8.2733e-24
1.875e-06
-2.75772e-23
2.03547e-23
1.875e-06
5.14081e-23
-8.59288e-24
1.875e-06
3.84261e-23
2.48519e-23
1.875e-06
-8.84036e-25
2.1666e-23
3.8086e-23
1.22328e-22
1.875e-06
6.51199e-23
4.24831e-22
1.875e-06
1.10007e-22
8.33796e-22
1.875e-06
1.12544e-22
9.82211e-22
1.875e-06
7.1332e-23
9.28968e-22
1.875e-06
1.14622e-22
1.07234e-21
1.875e-06
1.36994e-22
1.11903e-21
1.875e-06
1.69077e-22
1.07331e-21
1.875e-06
2.27679e-22
1.05735e-21
1.875e-06
2.99096e-22
9.93763e-22
1.875e-06
2.40241e-22
9.07938e-22
1.875e-06
1.99997e-22
9.30568e-22
1.875e-06
2.0201e-22
9.71842e-22
1.875e-06
9.71644e-23
8.39984e-22
1.875e-06
2.43209e-22
8.50931e-22
1.875e-06
1.80613e-22
8.07857e-22
1.875e-06
9.32536e-23
6.1214e-22
1.875e-06
9.82839e-23
6.3205e-22
1.875e-06
3.13588e-23
5.57554e-22
1.875e-06
8.6829e-23
4.91708e-22
1.875e-06
9.11254e-23
3.66948e-22
1.875e-06
9.61297e-23
3.93916e-22
1.875e-06
1.58848e-22
3.93256e-22
1.875e-06
1.68596e-22
1.95793e-22
1.875e-06
1.74536e-22
2.64153e-22
1.875e-06
3.50579e-24
3.23103e-22
1.875e-06
2.42467e-22
4.13797e-22
1.875e-06
9.74314e-23
3.66002e-22
1.875e-06
-7.54185e-24
3.09624e-22
1.875e-06
-5.75289e-23
2.65041e-22
1.875e-06
-7.03886e-23
2.43198e-22
1.875e-06
9.6166e-23
2.34778e-22
1.875e-06
1.23867e-22
1.83993e-22
1.875e-06
-4.55898e-23
1.07532e-22
1.875e-06
-4.73684e-23
2.02341e-22
1.875e-06
2.48125e-23
1.56302e-22
1.875e-06
8.74775e-23
5.26495e-23
1.875e-06
9.77239e-24
-2.74305e-23
1.875e-06
1.66221e-23
-1.60399e-23
1.875e-06
7.51312e-23
-3.28571e-23
8.39672e-23
1.01181e-22
1.875e-06
3.90826e-23
4.62439e-22
1.875e-06
1.05152e-22
8.92088e-22
1.875e-06
1.64187e-22
1.04455e-21
1.875e-06
6.4396e-23
1.05822e-21
1.875e-06
1.31084e-22
1.14415e-21
1.875e-06
1.02433e-22
1.0963e-21
1.875e-06
1.93048e-22
1.16351e-21
1.875e-06
3.58272e-22
1.09148e-21
1.875e-06
2.73544e-22
1.06431e-21
1.875e-06
2.1917e-22
1.01734e-21
1.875e-06
1.52914e-22
1.00188e-21
1.875e-06
9.62564e-23
9.11236e-22
1.875e-06
1.46911e-22
8.38975e-22
1.875e-06
2.14624e-22
8.2004e-22
1.875e-06
1.20631e-22
8.32877e-22
1.875e-06
1.00295e-22
6.83347e-22
1.875e-06
5.78625e-23
5.43357e-22
1.875e-06
1.25318e-22
5.06464e-22
1.875e-06
1.81517e-22
5.40245e-22
1.875e-06
6.34484e-23
3.78148e-22
1.875e-06
6.15497e-23
3.84774e-22
1.875e-06
1.20123e-22
2.64881e-22
1.875e-06
2.2293e-23
1.80154e-22
1.875e-06
-2.80948e-23
2.67563e-22
1.875e-06
1.2039e-22
3.98518e-22
1.875e-06
8.96834e-23
2.91306e-22
1.875e-06
6.3876e-23
3.77536e-22
1.875e-06
5.15979e-23
3.51882e-22
1.875e-06
1.94011e-23
2.3461e-22
1.875e-06
6.24191e-23
1.87117e-22
1.875e-06
2.5371e-23
1.9e-22
1.875e-06
-3.91774e-23
1.3517e-22
1.875e-06
5.63959e-23
1.25821e-22
1.875e-06
8.46374e-23
9.99068e-23
1.875e-06
1.26915e-22
9.00745e-23
1.875e-06
1.34039e-22
4.69587e-23
1.875e-06
1.71087e-23
-2.54954e-23
1.875e-06
-2.95277e-23
2.14559e-23
1.875e-06
-2.4344e-23
1.32191e-23
2.00739e-23
9.52677e-23
1.875e-06
1.44931e-22
3.81733e-22
1.875e-06
9.42939e-23
8.17184e-22
1.875e-06
8.413e-23
1.02456e-21
1.875e-06
1.48138e-22
1.21022e-21
1.875e-06
1.6763e-22
1.2604e-21
1.875e-06
2.9926e-22
1.1492e-21
1.875e-06
2.91154e-22
1.21309e-21
1.875e-06
6.46448e-23
1.091e-21
1.875e-06
1.12926e-22
1.08879e-21
1.875e-06
2.41152e-22
1.08382e-21
1.875e-06
1.51386e-22
1.01327e-21
1.875e-06
8.63169e-23
9.52223e-22
1.875e-06
4.54742e-23
8.12934e-22
1.875e-06
1.79934e-22
7.75663e-22
1.875e-06
1.7774e-22
8.1699e-22
1.875e-06
1.26734e-22
6.91635e-22
1.875e-06
8.24988e-23
5.97595e-22
1.875e-06
7.0464e-24
5.17498e-22
1.875e-06
8.01978e-23
3.75445e-22
1.875e-06
1.52039e-22
3.35272e-22
1.875e-06
1.15131e-22
3.29456e-22
1.875e-06
1.10076e-22
3.91095e-22
1.875e-06
1.21662e-22
2.91181e-22
1.875e-06
1.32392e-22
3.15239e-22
1.875e-06
2.13171e-23
4.77568e-22
1.875e-06
-2.83375e-23
3.44587e-22
1.875e-06
7.19281e-23
3.19876e-22
1.875e-06
1.15826e-22
3.66282e-22
1.875e-06
3.00088e-23
1.82712e-22
1.875e-06
7.34263e-23
1.74322e-22
1.875e-06
-8.57941e-23
2.33605e-22
1.875e-06
-8.1321e-23
1.42391e-22
1.875e-06
4.46513e-23
1.83402e-22
1.875e-06
5.4587e-23
1.28477e-22
1.875e-06
8.14985e-23
-1.49167e-23
1.875e-06
-1.16754e-23
-1.80747e-22
1.875e-06
-8.22501e-24
-1.43406e-22
1.875e-06
1.84585e-23
-1.23718e-24
1.875e-06
-2.43474e-23
6.06062e-23
-1.95154e-23
-3.66999e-24
1.875e-06
-1.46911e-22
2.97581e-22
1.875e-06
-3.08658e-23
8.88444e-22
1.875e-06
7.66299e-23
1.10433e-21
1.875e-06
1.26995e-22
1.21729e-21
1.875e-06
1.99836e-22
1.20718e-21
1.875e-06
2.16172e-22
1.19336e-21
1.875e-06
2.10676e-22
1.20591e-21
1.875e-06
1.6452e-22
1.23358e-21
1.875e-06
1.12887e-22
1.15655e-21
1.875e-06
7.22969e-23
1.00682e-21
1.875e-06
1.98056e-22
1.00521e-21
1.875e-06
2.7613e-23
1.00105e-21
1.875e-06
9.97407e-23
9.46563e-22
1.875e-06
8.71218e-23
7.64206e-22
1.875e-06
1.8578e-22
7.44925e-22
1.875e-06
1.42951e-22
6.87558e-22
1.875e-06
1.99722e-22
7.12154e-22
1.875e-06
1.87728e-22
5.86481e-22
1.875e-06
-1.35534e-22
3.43954e-22
1.875e-06
-1.17972e-22
3.28453e-22
1.875e-06
1.65703e-22
3.37234e-22
1.875e-06
1.28672e-22
3.61822e-22
1.875e-06
1.01763e-22
3.35691e-22
1.875e-06
1.38896e-22
4.3586e-22
1.875e-06
1.64245e-22
5.03326e-22
1.875e-06
1.77608e-23
3.70676e-22
1.875e-06
-1.10867e-22
2.4162e-22
1.875e-06
-8.09678e-23
2.27976e-22
1.875e-06
9.12006e-23
1.47904e-22
1.875e-06
6.19361e-24
2.52687e-22
1.875e-06
5.46985e-24
2.89529e-22
1.875e-06
-4.03969e-23
2.14583e-22
1.875e-06
6.8998e-24
1.49229e-22
1.875e-06
2.49794e-23
7.42522e-23
1.875e-06
2.85392e-23
-1.88146e-22
1.875e-06
-6.16314e-25
-3.28505e-22
1.875e-06
7.98036e-23
-9.30063e-23
1.875e-06
6.397e-23
1.35098e-23
1.875e-06
1.90894e-23
1.23254e-23
-3.61161e-23
-1.7634e-23
1.875e-06
-4.63747e-23
5.19955e-22
1.875e-06
7.88588e-23
8.81e-22
1.875e-06
1.66265e-22
1.07231e-21
1.875e-06
2.32226e-22
1.29811e-21
1.875e-06
9.12334e-23
1.31653e-21
1.875e-06
1.22751e-22
1.26522e-21
1.875e-06
2.58345e-22
1.30974e-21
1.875e-06
9.78851e-23
1.25672e-21
1.875e-06
7.22366e-23
1.06498e-21
1.875e-06
1.3704e-22
9.75779e-22
1.875e-06
3.52568e-23
9.50382e-22
1.875e-06
1.07372e-22
1.00905e-21
1.875e-06
9.85834e-23
9.28044e-22
1.875e-06
8.86376e-23
8.2718e-22
1.875e-06
1.24021e-22
7.65206e-22
1.875e-06
2.19599e-22
7.20015e-22
1.875e-06
2.30725e-22
6.61579e-22
1.875e-06
2.81815e-23
4.9166e-22
1.875e-06
-3.73808e-23
4.2447e-22
1.875e-06
3.62466e-23
4.59234e-22
1.875e-06
1.59851e-22
4.39946e-22
1.875e-06
2.31237e-22
4.63797e-22
1.875e-06
7.40775e-23
4.48458e-22
1.875e-06
3.19035e-23
4.22784e-22
1.875e-06
4.79649e-23
3.73892e-22
1.875e-06
3.04867e-23
3.63848e-22
1.875e-06
-1.34198e-22
3.55367e-22
1.875e-06
-4.28586e-23
2.71847e-22
1.875e-06
3.60708e-24
1.87728e-22
1.875e-06
2.30403e-23
2.64111e-22
1.875e-06
4.2812e-23
1.94051e-22
1.875e-06
-5.47991e-23
2.01021e-22
1.875e-06
5.70352e-23
1.72086e-22
1.875e-06
3.36188e-24
3.83484e-23
1.875e-06
-8.41812e-23
-1.82708e-22
1.875e-06
-1.43801e-23
-3.41727e-22
1.875e-06
1.11332e-23
-2.85167e-22
1.875e-06
4.38348e-23
-1.49404e-22
1.875e-06
8.38527e-23
-1.04653e-22
7.49694e-23
-8.40656e-23
1.875e-06
7.95486e-23
6.34784e-22
1.875e-06
1.46445e-22
1.02113e-21
1.875e-06
1.5296e-22
1.08809e-21
1.875e-06
8.68063e-23
1.1774e-21
1.875e-06
1.44041e-22
1.36812e-21
1.875e-06
1.95386e-22
1.28327e-21
1.875e-06
1.86527e-23
1.23287e-21
1.875e-06
1.60723e-22
1.37508e-21
1.875e-06
3.74806e-23
1.16394e-21
1.875e-06
1.0855e-23
9.69951e-22
1.875e-06
2.10858e-22
9.06461e-22
1.875e-06
1.86507e-22
8.92253e-22
1.875e-06
1.05515e-22
9.09907e-22
1.875e-06
1.10384e-22
7.49325e-22
1.875e-06
1.83011e-22
8.24089e-22
1.875e-06
2.30047e-23
7.32429e-22
1.875e-06
3.03038e-23
5.64097e-22
1.875e-06
1.52762e-22
6.10574e-22
1.875e-06
1.86512e-22
5.9628e-22
1.875e-06
1.24842e-22
5.2454e-22
1.875e-06
6.23247e-23
4.52006e-22
1.875e-06
9.13297e-23
3.95982e-22
1.875e-06
6.73514e-23
4.79886e-22
1.875e-06
4.51265e-23
5.13374e-22
1.875e-06
-2.02521e-24
3.37927e-22
1.875e-06
-1.53024e-22
2.81334e-22
1.875e-06
-6.07549e-24
3.61863e-22
1.875e-06
3.62923e-23
3.37373e-22
1.875e-06
3.49818e-23
2.47613e-22
1.875e-06
-5.98908e-23
2.51008e-22
1.875e-06
-9.72289e-23
1.92729e-22
1.875e-06
3.975e-23
2.44086e-22
1.875e-06
-5.47025e-23
9.33598e-23
1.875e-06
1.52183e-23
3.05263e-23
1.875e-06
-2.04002e-23
-1.04766e-22
1.875e-06
-1.19648e-22
-2.62831e-22
1.875e-06
-9.29318e-23
-3.04752e-22
1.875e-06
2.19432e-23
-2.23964e-22
1.875e-06
9.36306e-23
-1.47161e-22
1.16062e-22
-1.2168e-22
1.875e-06
2.04694e-22
6.46347e-22
1.875e-06
8.06248e-23
9.75449e-22
1.875e-06
6.99133e-23
1.094e-21
1.875e-06
1.14172e-22
1.2353e-21
1.875e-06
1.41475e-22
1.30253e-21
1.875e-06
1.4346e-23
1.25724e-21
1.875e-06
1.31423e-22
1.34124e-21
1.875e-06
1.79632e-22
1.34002e-21
1.875e-06
2.6221e-22
1.10763e-21
1.875e-06
7.25484e-24
1.00777e-21
1.875e-06
-3.44794e-23
9.05349e-22
1.875e-06
1.58199e-22
9.03062e-22
1.875e-06
2.13136e-22
9.10341e-22
1.875e-06
1.84964e-22
8.24001e-22
1.875e-06
1.58539e-23
7.72479e-22
1.875e-06
8.24339e-23
8.52557e-22
1.875e-06
4.54873e-23
6.04317e-22
1.875e-06
5.52572e-23
5.53184e-22
1.875e-06
1.01646e-22
4.60973e-22
1.875e-06
2.18318e-22
5.18664e-22
1.875e-06
1.13567e-22
5.42788e-22
1.875e-06
-1.68592e-23
4.12849e-22
1.875e-06
-1.02777e-23
4.31526e-22
1.875e-06
-5.07074e-24
4.80483e-22
1.875e-06
-1.22134e-22
2.4264e-22
1.875e-06
-1.13249e-22
3.40258e-22
1.875e-06
-5.76541e-23
3.03796e-22
1.875e-06
3.33745e-23
2.81883e-22
1.875e-06
-2.68622e-23
1.73249e-22
1.875e-06
-6.91607e-23
2.96159e-22
1.875e-06
4.36895e-23
3.16635e-22
1.875e-06
1.97914e-23
2.46151e-22
1.875e-06
-5.68668e-23
1.15102e-22
1.875e-06
3.30035e-23
-3.03501e-23
1.875e-06
7.04339e-23
-1.44321e-22
1.875e-06
-3.67341e-23
-1.95733e-22
1.875e-06
-8.8483e-23
-3.15788e-22
1.875e-06
2.03783e-23
-2.35393e-22
1.875e-06
4.18148e-23
-1.59297e-22
5.79635e-23
-2.29989e-22
1.875e-06
8.62863e-23
5.29642e-22
1.875e-06
1.88546e-22
9.83763e-22
1.875e-06
1.02982e-22
1.09137e-21
1.875e-06
1.2047e-22
1.31468e-21
1.875e-06
-3.32292e-23
1.28999e-21
1.875e-06
-8.16886e-23
1.3547e-21
1.875e-06
8.39761e-23
1.26919e-21
1.875e-06
1.90931e-22
1.16692e-21
1.875e-06
2.86443e-23
1.03093e-21
1.875e-06
1.70411e-22
1.01145e-21
1.875e-06
5.57981e-23
8.4817e-22
1.875e-06
1.15584e-22
9.06862e-22
1.875e-06
2.06661e-22
9.93589e-22
1.875e-06
1.26447e-22
9.00854e-22
1.875e-06
9.70365e-23
8.4646e-22
1.875e-06
5.7764e-23
7.21934e-22
1.875e-06
5.37766e-23
5.71598e-22
1.875e-06
6.77081e-23
6.17967e-22
1.875e-06
1.24604e-22
6.21539e-22
1.875e-06
3.53533e-23
4.59695e-22
1.875e-06
9.51316e-23
4.30851e-22
1.875e-06
9.87936e-23
4.55513e-22
1.875e-06
6.23831e-23
4.87954e-22
1.875e-06
1.44473e-24
5.07604e-22
1.875e-06
-9.66413e-23
3.26657e-22
1.875e-06
-1.70182e-22
2.92765e-22
1.875e-06
-1.02327e-22
2.92175e-22
1.875e-06
9.00135e-24
2.07861e-22
1.875e-06
2.93092e-23
2.24191e-22
1.875e-06
-1.51867e-22
2.42432e-22
1.875e-06
-1.21985e-22
2.00913e-22
1.875e-06
4.97193e-23
2.30934e-22
1.875e-06
4.50895e-23
1.98562e-22
1.875e-06
-3.6267e-23
-7.4171e-23
1.875e-06
-9.43718e-24
-1.17354e-22
1.875e-06
1.47345e-23
-3.28979e-22
1.875e-06
6.94799e-23
-2.72363e-22
1.875e-06
-8.57481e-23
-1.30785e-22
1.875e-06
-1.45189e-22
-1.09799e-22
-1.17522e-22
-2.16752e-22
1.875e-06
-1.66425e-22
5.94489e-22
1.875e-06
1.62971e-23
9.50182e-22
1.875e-06
1.34012e-22
1.15176e-21
1.875e-06
1.27167e-24
1.26953e-21
1.875e-06
-2.98435e-23
1.36835e-21
1.875e-06
6.01572e-23
1.37935e-21
1.875e-06
1.32167e-22
1.24429e-21
1.875e-06
1.38148e-22
1.07151e-21
1.875e-06
1.27345e-22
1.11357e-21
1.875e-06
-5.17841e-23
9.71707e-22
1.875e-06
4.28806e-24
9.04517e-22
1.875e-06
1.67435e-22
8.40678e-22
1.875e-06
1.75351e-22
9.99102e-22
1.875e-06
6.2448e-23
8.55627e-22
1.875e-06
4.38809e-24
8.25734e-22
1.875e-06
3.73324e-23
7.5072e-22
1.875e-06
1.0212e-22
7.28623e-22
1.875e-06
2.05444e-22
6.52092e-22
1.875e-06
1.82581e-22
4.98791e-22
1.875e-06
8.51468e-23
4.36495e-22
1.875e-06
8.05689e-23
4.89678e-22
1.875e-06
2.36538e-23
4.927e-22
1.875e-06
-2.99132e-23
4.40005e-22
1.875e-06
-1.01197e-22
4.53349e-22
1.875e-06
-8.09328e-23
3.23764e-22
1.875e-06
9.16311e-23
3.56561e-22
1.875e-06
5.29157e-23
3.25681e-22
1.875e-06
-1.04401e-22
2.03689e-22
1.875e-06
-1.23427e-22
1.53135e-22
1.875e-06
1.31902e-23
3.11003e-22
1.875e-06
-9.79108e-23
2.6905e-22
1.875e-06
-1.50956e-22
1.45414e-22
1.875e-06
-6.16016e-24
1.25276e-22
1.875e-06
-3.70591e-23
4.17173e-23
1.875e-06
-5.45765e-23
-1.626e-22
1.875e-06
2.85124e-23
-3.46771e-22
1.875e-06
-8.42371e-23
-3.84068e-22
1.875e-06
-2.25373e-23
-3.11644e-22
1.875e-06
-6.56242e-23
-1.38479e-22
-1.52976e-22
-1.87044e-22
1.875e-06
-5.50163e-23
7.5929e-22
1.875e-06
-1.86881e-22
9.58262e-22
1.875e-06
-4.09787e-23
1.0695e-21
1.875e-06
-1.69087e-23
1.22605e-21
1.875e-06
7.24103e-23
1.36817e-21
1.875e-06
-7.9123e-24
1.30479e-21
1.875e-06
-4.74661e-23
1.18006e-21
1.875e-06
-1.68107e-23
1.02342e-21
1.875e-06
3.97763e-23
1.09011e-21
1.875e-06
4.67109e-23
1.06216e-21
1.875e-06
1.75967e-22
1.03411e-21
1.875e-06
7.69776e-23
9.20162e-22
1.875e-06
9.89915e-23
9.85162e-22
1.875e-06
6.3916e-23
9.48042e-22
1.875e-06
1.41793e-22
8.5736e-22
1.875e-06
1.14596e-22
6.77991e-22
1.875e-06
5.42764e-23
6.41915e-22
1.875e-06
1.3581e-22
5.91063e-22
1.875e-06
9.44808e-23
5.6142e-22
1.875e-06
1.29982e-22
5.33191e-22
1.875e-06
8.81287e-23
4.63363e-22
1.875e-06
5.89364e-23
4.96018e-22
1.875e-06
-3.76799e-23
5.95901e-22
1.875e-06
-1.72696e-22
3.73853e-22
1.875e-06
-1.49636e-22
2.89165e-22
1.875e-06
2.90904e-23
3.17825e-22
1.875e-06
1.00387e-22
2.69228e-22
1.875e-06
-1.07066e-24
1.92077e-22
1.875e-06
-1.00762e-22
1.88395e-22
1.875e-06
-6.10554e-23
1.95649e-22
1.875e-06
2.7174e-24
2.83651e-22
1.875e-06
-7.22233e-23
2.27159e-22
1.875e-06
-4.23821e-23
1.41269e-22
1.875e-06
-2.65606e-23
-5.60004e-24
1.875e-06
-4.41305e-24
-1.07772e-22
1.875e-06
1.5781e-23
-2.47601e-22
1.875e-06
-8.01949e-23
-3.48907e-22
1.875e-06
-1.29597e-22
-2.61431e-22
1.875e-06
-2.88073e-23
-1.40909e-22
-5.29763e-23
-7.62642e-23
1.875e-06
-5.33063e-23
6.70125e-22
1.875e-06
-1.13589e-22
1.07686e-21
1.875e-06
-9.58989e-23
1.19138e-21
1.875e-06
-1.178e-22
1.31376e-21
1.875e-06
-8.80679e-23
1.31944e-21
1.875e-06
3.33193e-23
1.33362e-21
1.875e-06
3.7006e-23
1.20703e-21
1.875e-06
2.52827e-23
1.10362e-21
1.875e-06
3.20541e-23
1.10785e-21
1.875e-06
9.36138e-23
1.03782e-21
1.875e-06
1.89345e-23
1.00396e-21
1.875e-06
1.24934e-22
1.02549e-21
1.875e-06
-9.22752e-23
1.03999e-21
1.875e-06
5.47783e-23
9.58641e-22
1.875e-06
1.27874e-22
8.21137e-22
1.875e-06
6.00359e-23
6.77873e-22
1.875e-06
7.36023e-23
6.30019e-22
1.875e-06
4.89442e-23
5.41909e-22
1.875e-06
1.56737e-22
5.27158e-22
1.875e-06
9.81979e-23
5.14683e-22
1.875e-06
1.57191e-22
5.00754e-22
1.875e-06
-7.22815e-24
5.01367e-22
1.875e-06
-1.04496e-22
5.45685e-22
1.875e-06
-1.17965e-22
4.46771e-22
1.875e-06
-6.05997e-23
3.9022e-22
1.875e-06
-8.70574e-23
2.73688e-22
1.875e-06
1.91702e-23
1.33187e-22
1.875e-06
9.90566e-23
1.37535e-22
1.875e-06
1.89406e-23
2.52358e-22
1.875e-06
2.1187e-23
2.31062e-22
1.875e-06
-8.10693e-23
1.93877e-22
1.875e-06
5.76832e-23
1.96871e-22
1.875e-06
-5.26503e-23
1.0151e-22
1.875e-06
-1.44915e-22
4.7316e-24
1.875e-06
-2.23581e-22
-1.85489e-22
1.875e-06
-9.87409e-23
-3.69917e-22
1.875e-06
1.16417e-22
-1.67109e-22
1.875e-06
1.79651e-23
-2.54557e-23
1.875e-06
-6.26909e-23
-7.84641e-23
-2.63565e-23
-5.54915e-23
1.875e-06
-1.57042e-22
5.83786e-22
1.875e-06
-7.39615e-23
1.03695e-21
1.875e-06
-1.39036e-23
1.22884e-21
1.875e-06
-5.41114e-23
1.37901e-21
1.875e-06
-8.19468e-23
1.44842e-21
1.875e-06
-5.9797e-24
1.36795e-21
1.875e-06
-1.29641e-22
1.21527e-21
1.875e-06
-1.15748e-22
1.15896e-21
1.875e-06
6.35449e-24
1.15967e-21
1.875e-06
7.92436e-23
1.03618e-21
1.875e-06
1.31133e-22
1.04703e-21
1.875e-06
3.28221e-23
9.86508e-22
1.875e-06
5.13897e-23
1.15206e-21
1.875e-06
-1.76387e-23
1.01718e-21
1.875e-06
9.6594e-23
8.07165e-22
1.875e-06
4.99194e-23
6.35523e-22
1.875e-06
4.70003e-23
5.36513e-22
1.875e-06
-3.36604e-23
4.9288e-22
1.875e-06
7.75757e-23
5.82649e-22
1.875e-06
1.85249e-22
6.22235e-22
1.875e-06
1.48404e-22
5.01584e-22
1.875e-06
-1.0973e-23
4.61054e-22
1.875e-06
-1.43154e-22
4.36199e-22
1.875e-06
-8.05767e-23
3.99766e-22
1.875e-06
-8.35227e-23
3.71359e-22
1.875e-06
3.84735e-23
2.92389e-22
1.875e-06
-1.12791e-24
9.94851e-23
1.875e-06
-6.94124e-23
6.76825e-23
1.875e-06
3.73468e-23
2.50274e-22
1.875e-06
3.3018e-23
2.06403e-22
1.875e-06
6.43712e-23
1.8507e-22
1.875e-06
-8.09013e-23
9.81698e-23
1.875e-06
-1.08111e-22
1.07172e-22
1.875e-06
-1.32301e-22
1.21875e-22
1.875e-06
-1.40143e-22
-2.1776e-23
1.875e-06
-1.533e-22
-3.12217e-22
1.875e-06
-6.4397e-23
-2.86968e-22
1.875e-06
3.66742e-23
-6.12314e-23
1.875e-06
-8.03992e-23
-1.05715e-22
-3.7809e-23
-1.68766e-22
1.875e-06
-6.14166e-23
6.10924e-22
1.875e-06
-1.67352e-22
1.06777e-21
1.875e-06
-1.69123e-22
1.21086e-21
1.875e-06
1.95262e-23
1.374e-21
1.875e-06
3.25942e-23
1.37397e-21
1.875e-06
-1.21139e-22
1.3131e-21
1.875e-06
-6.93519e-23
1.25232e-21
1.875e-06
-1.20378e-22
1.17404e-21
1.875e-06
3.62414e-24
1.22389e-21
1.875e-06
5.72824e-23
1.16504e-21
1.875e-06
6.07613e-23
1.0501e-21
1.875e-06
2.48406e-23
9.61453e-22
1.875e-06
4.51688e-23
1.09203e-21
1.875e-06
1.40894e-23
1.08447e-21
1.875e-06
-2.38592e-23
7.90774e-22
1.875e-06
1.24909e-23
6.838e-22
1.875e-06
5.55172e-23
6.64338e-22
1.875e-06
2.58762e-22
6.06226e-22
1.875e-06
2.14616e-22
4.59656e-22
1.875e-06
1.48572e-22
4.80318e-22
1.875e-06
-8.51268e-23
3.29991e-22
1.875e-06
-1.93989e-22
4.98971e-22
1.875e-06
-3.08259e-23
5.09987e-22
1.875e-06
-1.46393e-23
4.33102e-22
1.875e-06
-9.10238e-24
4.76659e-22
1.875e-06
-8.51966e-23
2.62345e-22
1.875e-06
-1.93616e-23
1.57632e-22
1.875e-06
-2.28245e-23
1.93988e-22
1.875e-06
-3.52089e-23
1.47564e-22
1.875e-06
6.41936e-24
1.67728e-22
1.875e-06
9.763e-23
5.93093e-23
1.875e-06
-6.61613e-23
1.35317e-22
1.875e-06
-1.04872e-22
9.40274e-23
1.875e-06
4.40448e-24
1.23975e-22
1.875e-06
-5.0298e-23
2.55572e-23
1.875e-06
-1.74652e-22
-1.03711e-22
1.875e-06
-1.65763e-22
-1.42074e-22
1.875e-06
-5.97089e-23
-9.65952e-23
1.875e-06
1.06463e-22
-1.01282e-22
9.13559e-23
-1.65153e-22
1.875e-06
2.63348e-23
7.13925e-22
1.875e-06
-4.74435e-25
1.06794e-21
1.875e-06
1.36749e-23
1.22507e-21
1.875e-06
-7.46829e-24
1.37251e-21
1.875e-06
-3.20589e-23
1.3291e-21
1.875e-06
-1.40864e-22
1.37802e-21
1.875e-06
-2.16363e-22
1.27132e-21
1.875e-06
-8.35091e-23
1.31798e-21
1.875e-06
5.14475e-23
1.25061e-21
1.875e-06
8.40141e-23
1.14814e-21
1.875e-06
-4.44455e-23
1.04582e-21
1.875e-06
-5.39755e-24
1.04707e-21
1.875e-06
1.17781e-22
1.06062e-21
1.875e-06
1.39548e-22
1.12062e-21
1.875e-06
2.88252e-23
8.59397e-22
1.875e-06
7.90869e-24
7.6051e-22
1.875e-06
-3.84642e-23
6.94101e-22
1.875e-06
-6.60232e-23
4.72627e-22
1.875e-06
9.81874e-23
3.5895e-22
1.875e-06
1.47792e-23
3.53553e-22
1.875e-06
-5.63946e-23
3.12957e-22
1.875e-06
4.45965e-23
6.0116e-22
1.875e-06
-3.7212e-23
5.90625e-22
1.875e-06
-1.88609e-23
4.98822e-22
1.875e-06
-1.21831e-23
4.35588e-22
1.875e-06
-4.20859e-23
3.16182e-22
1.875e-06
1.08625e-22
2.35699e-22
1.875e-06
9.51622e-23
2.38362e-22
1.875e-06
5.26125e-23
1.71263e-22
1.875e-06
-9.81967e-23
1.08404e-22
1.875e-06
-7.05485e-23
-3.01591e-23
1.875e-06
-3.3052e-23
6.57409e-24
1.875e-06
-1.44462e-23
5.44278e-23
1.875e-06
9.31991e-24
1.65735e-22
1.875e-06
1.01545e-23
9.0861e-23
1.875e-06
-2.42855e-23
-1.63103e-23
1.875e-06
2.27108e-24
1.41976e-23
1.875e-06
-6.39266e-23
-2.0794e-23
1.875e-06
-4.22783e-23
-1.80789e-22
1.47552e-23
-1.88776e-22
1.875e-06
1.02245e-22
7.76185e-22
1.875e-06
1.62244e-22
1.17682e-21
1.875e-06
1.07913e-23
1.03035e-21
1.875e-06
-9.38427e-23
1.1975e-21
1.875e-06
-9.33403e-23
1.39485e-21
1.875e-06
-6.88223e-24
1.33418e-21
1.875e-06
-1.04619e-22
1.34838e-21
1.875e-06
-1.95388e-22
1.33443e-21
1.875e-06
-1.73252e-22
1.17973e-21
1.875e-06
-1.81434e-23
1.28334e-21
1.875e-06
-2.0723e-22
1.0789e-21
1.875e-06
4.51021e-22
1.10563e-21
1.875e-06
5.26109e-23
1.01373e-21
1.875e-06
1.09213e-22
1.05232e-21
1.875e-06
4.36669e-23
9.82331e-22
1.875e-06
-1.17583e-22
7.79523e-22
1.875e-06
-2.64169e-25
5.89427e-22
1.875e-06
-7.87235e-23
4.35524e-22
1.875e-06
-1.64133e-22
4.47463e-22
1.875e-06
-3.11409e-23
4.21224e-22
1.875e-06
-3.80192e-23
3.68803e-22
1.875e-06
-6.18402e-23
5.20382e-22
1.875e-06
-6.47334e-23
6.73672e-22
1.875e-06
3.2895e-23
4.33434e-22
1.875e-06
1.53936e-22
3.90226e-22
1.875e-06
8.83278e-23
3.61763e-22
1.875e-06
-6.63427e-23
2.27007e-22
1.875e-06
-1.42437e-23
1.63942e-22
1.875e-06
-1.89746e-22
2.58653e-23
1.875e-06
2.77892e-22
1.33564e-22
1.875e-06
-1.87114e-23
5.67741e-23
1.875e-06
-3.40855e-24
7.17663e-23
1.875e-06
1.10751e-22
-3.42847e-23
1.875e-06
-1.70368e-22
1.26331e-22
1.875e-06
-8.75742e-24
1.31585e-22
1.875e-06
1.28236e-22
7.61907e-23
1.875e-06
-1.41229e-23
-3.40988e-23
1.875e-06
4.6169e-23
-1.07176e-22
1.875e-06
-1.00196e-22
-2.68672e-22
-6.50795e-23
-2.12044e-22
1.875e-06
2.23945e-22
6.94611e-22
1.875e-06
1.64e-22
9.92066e-22
1.875e-06
7.87186e-24
1.01651e-21
1.875e-06
-2.87024e-23
1.17209e-21
1.875e-06
3.05024e-23
1.29477e-21
1.875e-06
2.71372e-23
1.36363e-21
1.875e-06
6.64826e-23
1.40485e-21
1.875e-06
-9.29016e-23
1.32749e-21
1.875e-06
-1.4071e-22
1.22314e-21
1.875e-06
-7.12989e-23
1.32535e-21
1.875e-06
-8.24167e-24
1.12205e-21
1.875e-06
5.47518e-23
1.11808e-21
1.875e-06
8.49536e-23
1.13208e-21
1.875e-06
7.04416e-23
9.75826e-22
1.875e-06
-1.10066e-22
9.12111e-22
1.875e-06
-2.02406e-23
8.4406e-22
1.875e-06
-1.09276e-22
5.56754e-22
1.875e-06
-7.6751e-23
4.90515e-22
1.875e-06
-1.02814e-22
5.7033e-22
1.875e-06
-7.04591e-23
4.56249e-22
1.875e-06
6.93738e-24
3.95378e-22
1.875e-06
-5.84026e-23
5.19432e-22
1.875e-06
2.07234e-23
6.421e-22
1.875e-06
-2.18946e-23
3.99588e-22
1.875e-06
1.8074e-23
3.50838e-22
1.875e-06
6.29844e-23
3.44821e-22
1.875e-06
2.78486e-23
2.74182e-22
1.875e-06
9.97229e-23
1.53087e-22
1.875e-06
5.88526e-23
7.33854e-23
1.875e-06
-1.22485e-23
7.12133e-23
1.875e-06
-1.28493e-23
2.32438e-23
1.875e-06
-1.90775e-23
8.10689e-23
1.875e-06
-6.19273e-23
-5.58304e-23
1.875e-06
6.65651e-23
1.49485e-22
1.875e-06
1.20554e-22
1.10716e-22
1.875e-06
1.53975e-22
-3.12848e-23
1.875e-06
5.51246e-23
-7.03546e-23
1.875e-06
-2.62362e-25
-1.54858e-22
1.875e-06
-2.01642e-23
-2.07738e-22
-1.6801e-22
-1.41524e-22
1.875e-06
-7.37701e-24
4.75354e-22
1.875e-06
7.92827e-23
8.84302e-22
1.875e-06
-1.08841e-23
1.13346e-21
1.875e-06
2.46834e-23
1.10675e-21
1.875e-06
4.81334e-23
1.23767e-21
1.875e-06
1.04027e-22
1.33361e-21
1.875e-06
2.60738e-23
1.34206e-21
1.875e-06
8.18738e-24
1.3525e-21
1.875e-06
-2.75315e-23
1.27152e-21
1.875e-06
-1.64843e-22
1.41501e-21
1.875e-06
-6.59202e-23
1.21813e-21
1.875e-06
-9.23617e-24
1.05363e-21
1.875e-06
-5.5714e-23
1.0415e-21
1.875e-06
-2.33509e-22
8.74413e-22
1.875e-06
-1.23351e-22
9.32798e-22
1.875e-06
-7.8429e-23
8.26007e-22
1.875e-06
-1.08346e-22