/*--------------------------------*- C++ -*----------------------------------*\
| =========                 |                                                 |
| \\      /  F ield         | OpenFOAM: The Open Source CFD Toolbox           |
|  \\    /   O peration     | Version:  v2012                                 |
|   \\  /    A nd           | Website:  www.openfoam.com                      |
|    \\/     M anipulation  |                                                 |
\*---------------------------------------------------------------------------*/
FoamFile
{
    version     2.0;
    format      ascii;
    class       volVectorField;
    location    "35";
    object      U;
}
// * * * * * * * * * * * * * * * * * * * * * * * * * * * * * * * * * * * * * //

dimensions      [0 1 -1 0 0 0 0];


internalField   nonuniform List<vector> 
64000
(
(0.003 3.10922e-19 2.44956e-19)
(0.003 5.15568e-19 4.13132e-19)
(0.003 5.09638e-19 5.28094e-19)
(0.003 4.91061e-19 5.8142e-19)
(0.003 5.95207e-19 5.78236e-19)
(0.003 5.76496e-19 5.08263e-19)
(0.003 5.30657e-19 4.69901e-19)
(0.003 3.69533e-19 4.36881e-19)
(0.003 3.5032e-19 5.48945e-19)
(0.003 5.4983e-19 5.01691e-19)
(0.003 5.78237e-19 3.63022e-19)
(0.003 5.307e-19 4.81353e-19)
(0.003 4.52368e-19 4.78757e-19)
(0.003 4.15332e-19 3.51588e-19)
(0.003 3.34416e-19 4.03229e-19)
(0.003 2.78953e-19 4.21049e-19)
(0.003 2.23429e-19 3.00131e-19)
(0.003 8.14169e-20 1.40488e-19)
(0.003 8.46367e-20 1.2742e-19)
(0.003 2.0238e-19 2.59659e-19)
(0.003 1.02618e-19 2.09668e-19)
(0.003 1.86607e-19 1.99526e-19)
(0.003 2.99676e-19 2.06482e-19)
(0.003 3.62959e-19 1.47774e-19)
(0.003 3.45798e-19 1.73096e-19)
(0.003 2.15045e-19 1.73744e-19)
(0.003 1.51671e-19 1.90229e-19)
(0.003 2.52246e-19 2.17501e-19)
(0.003 2.48434e-19 2.30122e-19)
(0.003 8.46153e-20 2.67879e-19)
(0.003 -4.83268e-20 2.58892e-19)
(0.003 -1.05533e-20 1.25633e-19)
(0.003 1.73178e-19 7.8996e-20)
(0.003 9.21401e-20 4.15991e-20)
(0.003 6.6215e-20 1.17513e-19)
(0.003 6.82115e-20 1.91359e-19)
(0.003 -6.35734e-20 7.7186e-20)
(0.003 -1.30974e-19 9.98324e-20)
(0.003 -1.24199e-19 1.885e-19)
(0.003 -5.95711e-20 1.17657e-19)
(0.003 2.68223e-19 4.04427e-19)
(0.003 4.18405e-19 8.46988e-19)
(0.003 6.52605e-19 1.12018e-18)
(0.003 5.91333e-19 1.08569e-18)
(0.003 5.04708e-19 1.04897e-18)
(0.003 6.64534e-19 1.08661e-18)
(0.003 6.31012e-19 1.04023e-18)
(0.003 5.88742e-19 8.47465e-19)
(0.003 5.84259e-19 8.39538e-19)
(0.003 5.52852e-19 1.11236e-18)
(0.003 5.18818e-19 1.07565e-18)
(0.003 4.81698e-19 9.61038e-19)
(0.003 4.05551e-19 8.67456e-19)
(0.003 2.65997e-19 7.56629e-19)
(0.003 2.07217e-19 7.47193e-19)
(0.003 1.63959e-19 7.22293e-19)
(0.003 4.00308e-19 6.58124e-19)
(0.003 3.45992e-19 4.6991e-19)
(0.003 1.18058e-19 3.85197e-19)
(0.003 8.17546e-20 4.7367e-19)
(0.003 2.43085e-19 3.70164e-19)
(0.003 3.41182e-19 4.03958e-19)
(0.003 3.24485e-19 4.51616e-19)
(0.003 3.91424e-19 5.31014e-19)
(0.003 2.08951e-19 4.35781e-19)
(0.003 2.069e-19 3.28653e-19)
(0.003 2.80621e-19 2.75659e-19)
(0.003 1.6769e-19 3.05565e-19)
(0.003 6.71026e-20 4.17389e-19)
(0.003 6.28108e-20 3.21704e-19)
(0.003 2.5966e-20 1.44345e-19)
(0.003 5.32386e-20 1.02353e-19)
(0.003 1.2344e-19 1.79012e-19)
(0.003 4.64411e-20 1.67872e-19)
(0.003 1.52235e-20 2.41228e-19)
(0.003 -6.86008e-20 2.14494e-19)
(0.003 -1.69512e-19 -4.15367e-20)
(0.003 -1.75393e-19 -3.8394e-20)
(0.003 -1.12149e-19 1.66562e-19)
(0.003 -1.1882e-19 1.41495e-19)
(0.003 1.51435e-19 5.39529e-19)
(0.003 1.69327e-19 9.55101e-19)
(0.003 2.8673e-19 1.19117e-18)
(0.003 4.92394e-19 1.27697e-18)
(0.003 4.6292e-19 1.22868e-18)
(0.003 5.07378e-19 1.20357e-18)
(0.003 5.37483e-19 1.26515e-18)
(0.003 5.34175e-19 1.14595e-18)
(0.003 5.77465e-19 1.17595e-18)
(0.003 4.72068e-19 1.27434e-18)
(0.003 3.77188e-19 1.14859e-18)
(0.003 3.16747e-19 1.08978e-18)
(0.003 3.56167e-19 9.43854e-19)
(0.003 2.47236e-19 8.17339e-19)
(0.003 2.35424e-19 8.24816e-19)
(0.003 2.14041e-19 7.6758e-19)
(0.003 3.08934e-19 8.37123e-19)
(0.003 4.32964e-19 6.80653e-19)
(0.003 1.79519e-19 4.13543e-19)
(0.003 8.38005e-20 4.75659e-19)
(0.003 2.31648e-19 5.21805e-19)
(0.003 2.5238e-19 4.96256e-19)
(0.003 2.93727e-19 4.6872e-19)
(0.003 2.61076e-19 5.18006e-19)
(0.003 2.61037e-19 4.73247e-19)
(0.003 1.72739e-19 4.5185e-19)
(0.003 1.21466e-19 4.12954e-19)
(0.003 8.45733e-21 4.13835e-19)
(0.003 -1.17969e-20 3.74138e-19)
(0.003 7.15543e-20 3.19592e-19)
(0.003 1.08533e-19 3.2627e-19)
(0.003 7.50411e-20 2.47068e-19)
(0.003 -6.25304e-20 1.8474e-19)
(0.003 -6.35895e-20 1.36651e-19)
(0.003 3.23995e-20 1.84199e-19)
(0.003 -1.90165e-21 7.29329e-20)
(0.003 -1.49924e-19 -1.47748e-19)
(0.003 -1.17199e-19 4.58375e-20)
(0.003 -6.63821e-20 1.62856e-19)
(0.003 -1.14509e-19 9.92496e-20)
(0.003 3.59117e-19 6.74772e-19)
(0.003 2.76063e-19 1.09691e-18)
(0.003 1.83439e-19 1.27948e-18)
(0.003 3.48273e-19 1.44448e-18)
(0.003 4.15052e-19 1.40856e-18)
(0.003 4.3199e-19 1.40654e-18)
(0.003 3.84727e-19 1.37072e-18)
(0.003 3.40085e-19 1.22951e-18)
(0.003 3.57527e-19 1.22383e-18)
(0.003 4.20888e-19 1.27685e-18)
(0.003 4.00122e-19 1.28235e-18)
(0.003 3.30837e-19 1.26537e-18)
(0.003 2.67119e-19 1.06246e-18)
(0.003 2.62951e-19 9.01203e-19)
(0.003 4.79391e-19 8.93301e-19)
(0.003 6.05953e-19 7.92666e-19)
(0.003 2.64961e-19 7.61443e-19)
(0.003 1.89829e-19 7.34309e-19)
(0.003 2.22936e-19 5.22117e-19)
(0.003 1.84201e-19 4.82395e-19)
(0.003 1.40744e-19 5.53073e-19)
(0.003 2.24343e-19 5.37798e-19)
(0.003 2.86398e-19 5.16546e-19)
(0.003 2.49031e-19 6.20999e-19)
(0.003 2.92812e-19 6.21134e-19)
(0.003 1.73424e-19 4.83795e-19)
(0.003 3.24133e-20 3.75299e-19)
(0.003 -1.14758e-20 3.5932e-19)
(0.003 4.5845e-20 4.14537e-19)
(0.003 -2.20125e-20 3.95103e-19)
(0.003 -5.53655e-20 2.76253e-19)
(0.003 -2.89496e-20 2.09794e-19)
(0.003 -7.73768e-20 2.23519e-19)
(0.003 -4.72626e-20 1.8229e-19)
(0.003 -4.89721e-20 1.89503e-19)
(0.003 -1.0368e-19 6.67734e-20)
(0.003 1.09989e-19 -9.1317e-20)
(0.003 1.41535e-19 6.87417e-20)
(0.003 6.01699e-20 1.28367e-19)
(0.003 1.14235e-20 1.04475e-19)
(0.003 1.39385e-19 7.15333e-19)
(0.003 2.41573e-19 1.18613e-18)
(0.003 1.85096e-19 1.35317e-18)
(0.003 1.88269e-19 1.48814e-18)
(0.003 2.20845e-19 1.51923e-18)
(0.003 2.03778e-19 1.55918e-18)
(0.003 1.99879e-19 1.47765e-18)
(0.003 4.0498e-19 1.24479e-18)
(0.003 4.61869e-19 1.17089e-18)
(0.003 4.18929e-19 1.37106e-18)
(0.003 3.29324e-19 1.3668e-18)
(0.003 2.83603e-19 1.23686e-18)
(0.003 3.00483e-19 1.04566e-18)
(0.003 2.85826e-19 1.00425e-18)
(0.003 4.02582e-19 1.12487e-18)
(0.003 5.34989e-19 1.05104e-18)
(0.003 2.81871e-19 7.8888e-19)
(0.003 1.32831e-19 5.97356e-19)
(0.003 2.72131e-19 4.92281e-19)
(0.003 2.63811e-19 4.8187e-19)
(0.003 5.83304e-20 5.33368e-19)
(0.003 1.23617e-19 5.87866e-19)
(0.003 2.64078e-19 5.98209e-19)
(0.003 2.00363e-19 6.13088e-19)
(0.003 2.04483e-19 6.51722e-19)
(0.003 2.08914e-19 5.39105e-19)
(0.003 1.30509e-19 4.38351e-19)
(0.003 -1.17565e-20 4.06508e-19)
(0.003 1.38461e-21 3.8408e-19)
(0.003 -2.81999e-20 2.61878e-19)
(0.003 1.32872e-20 2.36269e-19)
(0.003 6.11031e-20 2.67347e-19)
(0.003 -2.43037e-20 1.8896e-19)
(0.003 -4.49243e-21 1.5088e-19)
(0.003 -3.05284e-20 1.61242e-19)
(0.003 -9.93641e-20 1.35611e-19)
(0.003 8.06958e-20 1.24948e-20)
(0.003 1.37328e-19 -4.17453e-20)
(0.003 -4.56908e-21 1.3087e-19)
(0.003 -1.55412e-20 1.87273e-19)
(0.003 6.38425e-21 7.64743e-19)
(0.003 1.90022e-19 1.25685e-18)
(0.003 1.55931e-19 1.3804e-18)
(0.003 1.41161e-19 1.50975e-18)
(0.003 1.87055e-19 1.58624e-18)
(0.003 1.79853e-19 1.55354e-18)
(0.003 2.06367e-19 1.48249e-18)
(0.003 4.71011e-19 1.53425e-18)
(0.003 5.41679e-19 1.43285e-18)
(0.003 3.89118e-19 1.31644e-18)
(0.003 3.59116e-19 1.32432e-18)
(0.003 3.3189e-19 1.3289e-18)
(0.003 2.58974e-19 1.18656e-18)
(0.003 3.61159e-19 1.02044e-18)
(0.003 3.11616e-19 1.1474e-18)
(0.003 1.5797e-19 1.0707e-18)
(0.003 1.35014e-19 8.41023e-19)
(0.003 3.75746e-20 6.44313e-19)
(0.003 1.73731e-19 5.24581e-19)
(0.003 2.28991e-19 4.54004e-19)
(0.003 1.45828e-19 4.73197e-19)
(0.003 1.23392e-19 5.61604e-19)
(0.003 2.74238e-19 6.33289e-19)
(0.003 3.17736e-19 6.50616e-19)
(0.003 2.00779e-19 6.55845e-19)
(0.003 2.37653e-19 5.25002e-19)
(0.003 1.80127e-19 4.62581e-19)
(0.003 -2.82021e-20 3.35962e-19)
(0.003 -1.69601e-19 3.12774e-19)
(0.003 -7.30038e-20 4.01094e-19)
(0.003 1.41195e-19 3.44711e-19)
(0.003 2.25257e-19 2.4497e-19)
(0.003 5.40721e-20 1.30829e-19)
(0.003 -1.67106e-20 2.21037e-19)
(0.003 -7.2677e-20 2.27608e-19)
(0.003 7.22481e-21 4.74681e-20)
(0.003 4.8953e-20 6.49484e-20)
(0.003 6.17909e-20 -5.37359e-21)
(0.003 1.21674e-19 1.16199e-20)
(0.003 1.0318e-19 1.19465e-19)
(0.003 9.56275e-20 9.09038e-19)
(0.003 2.27904e-19 1.41936e-18)
(0.003 2.21285e-19 1.47008e-18)
(0.003 1.00647e-19 1.54737e-18)
(0.003 1.74807e-19 1.65375e-18)
(0.003 1.77147e-19 1.65427e-18)
(0.003 2.89033e-19 1.55303e-18)
(0.003 5.21207e-19 1.52594e-18)
(0.003 4.96493e-19 1.52297e-18)
(0.003 3.87548e-19 1.47986e-18)
(0.003 2.85448e-19 1.45103e-18)
(0.003 2.19624e-19 1.34782e-18)
(0.003 2.44097e-19 1.17764e-18)
(0.003 3.91529e-19 1.11782e-18)
(0.003 2.49252e-19 1.16432e-18)
(0.003 1.60315e-19 1.0375e-18)
(0.003 1.45438e-19 7.74086e-19)
(0.003 1.41476e-19 5.6982e-19)
(0.003 1.78868e-19 5.35922e-19)
(0.003 7.17428e-20 5.07211e-19)
(0.003 1.78303e-19 4.9304e-19)
(0.003 2.72587e-19 5.73294e-19)
(0.003 1.84303e-19 6.86665e-19)
(0.003 1.2742e-19 6.90869e-19)
(0.003 5.64772e-20 6.26338e-19)
(0.003 1.791e-19 6.18061e-19)
(0.003 9.98012e-20 5.20833e-19)
(0.003 3.73542e-20 3.21536e-19)
(0.003 -2.38748e-20 2.7181e-19)
(0.003 -9.03725e-21 2.33046e-19)
(0.003 1.24551e-19 3.06545e-19)
(0.003 9.57828e-20 2.90036e-19)
(0.003 5.28795e-21 1.06609e-19)
(0.003 4.56903e-20 9.19888e-20)
(0.003 1.46804e-19 1.52955e-19)
(0.003 2.26845e-19 1.49343e-19)
(0.003 4.03406e-20 1.83348e-20)
(0.003 -5.23462e-20 -2.48718e-20)
(0.003 6.15447e-20 1.22309e-19)
(0.003 8.54901e-20 1.49996e-19)
(0.003 2.15575e-19 8.18088e-19)
(0.003 1.89605e-19 1.36945e-18)
(0.003 1.93885e-19 1.55172e-18)
(0.003 1.96018e-19 1.63403e-18)
(0.003 2.26334e-19 1.72961e-18)
(0.003 2.94268e-19 1.63094e-18)
(0.003 3.97269e-19 1.61746e-18)
(0.003 3.3835e-19 1.69503e-18)
(0.003 3.12774e-19 1.6638e-18)
(0.003 3.51204e-19 1.62681e-18)
(0.003 2.19788e-19 1.53448e-18)
(0.003 1.51315e-19 1.32171e-18)
(0.003 1.91333e-19 1.15383e-18)
(0.003 3.05164e-19 1.13602e-18)
(0.003 2.7714e-19 1.12896e-18)
(0.003 2.11763e-19 1.10188e-18)
(0.003 1.04885e-19 8.09825e-19)
(0.003 1.14275e-19 5.74881e-19)
(0.003 2.63532e-19 5.56985e-19)
(0.003 2.26927e-19 4.14868e-19)
(0.003 1.52054e-19 4.10684e-19)
(0.003 1.54642e-19 6.46734e-19)
(0.003 5.36755e-20 6.87054e-19)
(0.003 5.27664e-20 6.74478e-19)
(0.003 7.52462e-20 7.1081e-19)
(0.003 6.61359e-20 6.41871e-19)
(0.003 1.30584e-19 4.91061e-19)
(0.003 1.35857e-19 3.40753e-19)
(0.003 5.49454e-20 2.26647e-19)
(0.003 1.25986e-19 2.24008e-19)
(0.003 -1.27154e-20 3.77887e-19)
(0.003 -9.5086e-20 3.23511e-19)
(0.003 2.96863e-20 1.86025e-19)
(0.003 1.07562e-19 1.71914e-19)
(0.003 2.38582e-19 1.27794e-19)
(0.003 1.133e-19 -7.32073e-20)
(0.003 1.53524e-20 -1.33006e-19)
(0.003 -2.98038e-21 8.78409e-20)
(0.003 -6.62879e-20 1.54466e-19)
(0.003 -3.93433e-20 9.21642e-20)
(0.003 -5.52398e-20 8.54964e-19)
(0.003 -9.43026e-21 1.5698e-18)
(0.003 1.21668e-19 1.61789e-18)
(0.003 1.66219e-19 1.68978e-18)
(0.003 2.88512e-19 1.74816e-18)
(0.003 4.87551e-19 1.77291e-18)
(0.003 4.44823e-19 1.74511e-18)
(0.003 1.57834e-19 1.68752e-18)
(0.003 1.43994e-19 1.67348e-18)
(0.003 2.39274e-19 1.6941e-18)
(0.003 2.02254e-19 1.519e-18)
(0.003 1.05901e-19 1.35022e-18)
(0.003 1.48121e-19 1.2016e-18)
(0.003 2.31208e-19 1.13172e-18)
(0.003 2.98649e-19 1.17515e-18)
(0.003 2.00798e-19 1.10476e-18)
(0.003 2.43848e-19 8.64662e-19)
(0.003 1.89112e-19 5.60113e-19)
(0.003 -3.38068e-20 5.78686e-19)
(0.003 3.71033e-20 5.26991e-19)
(0.003 2.00774e-19 4.51695e-19)
(0.003 1.4665e-19 6.53649e-19)
(0.003 1.78748e-19 7.93896e-19)
(0.003 2.07437e-19 7.75248e-19)
(0.003 1.51391e-19 6.52952e-19)
(0.003 4.73806e-21 5.59666e-19)
(0.003 -3.56994e-20 4.78046e-19)
(0.003 4.28011e-20 3.51736e-19)
(0.003 1.16569e-19 1.97593e-19)
(0.003 7.80586e-20 3.32239e-19)
(0.003 -8.6366e-20 3.86688e-19)
(0.003 -1.19444e-19 3.05865e-19)
(0.003 4.97626e-20 2.0204e-19)
(0.003 8.14209e-20 1.36325e-19)
(0.003 5.24907e-20 -7.38841e-20)
(0.003 -2.52912e-20 -3.26221e-19)
(0.003 8.2562e-20 -7.27482e-20)
(0.003 5.73281e-20 1.32239e-19)
(0.003 -3.88358e-20 8.51398e-20)
(0.003 -4.32035e-20 3.26023e-20)
(0.003 -2.18275e-19 9.38364e-19)
(0.003 -2.50999e-20 1.43346e-18)
(0.003 1.71492e-19 1.61718e-18)
(0.003 3.2969e-19 1.81158e-18)
(0.003 2.53634e-19 1.92556e-18)
(0.003 2.44705e-19 1.90575e-18)
(0.003 3.72983e-19 1.85078e-18)
(0.003 2.34914e-19 1.75828e-18)
(0.003 1.74714e-19 1.58056e-18)
(0.003 1.57024e-19 1.59336e-18)
(0.003 2.35456e-19 1.554e-18)
(0.003 1.27557e-19 1.30718e-18)
(0.003 8.69254e-20 1.18401e-18)
(0.003 1.31297e-19 1.20344e-18)
(0.003 2.14479e-19 1.18362e-18)
(0.003 2.92242e-19 1.11783e-18)
(0.003 2.82988e-19 8.76266e-19)
(0.003 1.93102e-19 6.22285e-19)
(0.003 -1.21332e-19 4.55224e-19)
(0.003 -9.08846e-20 4.64995e-19)
(0.003 2.20874e-19 6.2042e-19)
(0.003 2.9087e-19 7.8696e-19)
(0.003 1.96131e-19 9.02121e-19)
(0.003 1.38334e-19 8.42893e-19)
(0.003 2.071e-19 6.77653e-19)
(0.003 6.03296e-20 5.44987e-19)
(0.003 -2.07633e-19 4.03881e-19)
(0.003 -1.37744e-19 3.13211e-19)
(0.003 6.40679e-20 3.2472e-19)
(0.003 5.5029e-20 3.58291e-19)
(0.003 2.99877e-20 2.86356e-19)
(0.003 -5.4773e-20 3.07016e-19)
(0.003 4.41045e-20 2.97084e-19)
(0.003 1.65291e-20 1.53052e-19)
(0.003 -6.34488e-20 -4.5396e-20)
(0.003 6.03502e-21 -3.75413e-19)
(0.003 9.06536e-20 -3.95597e-19)
(0.003 1.36355e-19 -2.2107e-19)
(0.003 7.76071e-20 -9.90505e-20)
(0.003 1.49479e-20 -1.41927e-19)
(0.003 6.88511e-20 9.60052e-19)
(0.003 1.82339e-19 1.56785e-18)
(0.003 2.46484e-19 1.77858e-18)
(0.003 2.57701e-19 1.87924e-18)
(0.003 1.73736e-19 1.89856e-18)
(0.003 2.29014e-19 1.90241e-18)
(0.003 2.14593e-19 1.91589e-18)
(0.003 2.06508e-19 1.82162e-18)
(0.003 1.25751e-19 1.64434e-18)
(0.003 1.43713e-19 1.56279e-18)
(0.003 2.26337e-19 1.40626e-18)
(0.003 1.99026e-19 1.25883e-18)
(0.003 1.47904e-19 1.14153e-18)
(0.003 1.48972e-19 1.05648e-18)
(0.003 1.97474e-19 1.19293e-18)
(0.003 2.6854e-19 1.2442e-18)
(0.003 2.35888e-19 9.22252e-19)
(0.003 1.25183e-19 6.15134e-19)
(0.003 7.67117e-20 4.76114e-19)
(0.003 8.64818e-20 5.09917e-19)
(0.003 1.93759e-19 7.10932e-19)
(0.003 3.01317e-19 8.97394e-19)
(0.003 1.33335e-19 9.56987e-19)
(0.003 5.3851e-20 9.04548e-19)
(0.003 3.33376e-20 6.45415e-19)
(0.003 -8.85336e-20 4.48227e-19)
(0.003 -1.03239e-19 3.82083e-19)
(0.003 4.29766e-21 3.6366e-19)
(0.003 4.43898e-20 3.40385e-19)
(0.003 -3.53957e-20 4.43863e-19)
(0.003 -7.87326e-20 3.98715e-19)
(0.003 -1.57148e-20 2.8475e-19)
(0.003 5.76452e-20 2.5497e-19)
(0.003 -9.4929e-21 1.26769e-19)
(0.003 -1.32575e-19 -2.86781e-20)
(0.003 -1.00788e-19 -2.75516e-19)
(0.003 -3.76991e-20 -4.2691e-19)
(0.003 1.06015e-19 -2.6795e-19)
(0.003 1.58854e-19 -2.10125e-19)
(0.003 1.29201e-19 -2.54452e-19)
(0.003 2.28107e-19 1.04306e-18)
(0.003 2.03984e-19 1.65712e-18)
(0.003 1.45603e-19 1.78658e-18)
(0.003 1.43721e-19 1.81035e-18)
(0.003 2.35138e-19 1.89193e-18)
(0.003 1.96899e-19 1.97962e-18)
(0.003 1.35311e-19 1.90987e-18)
(0.003 2.7059e-19 1.80825e-18)
(0.003 2.26571e-19 1.55779e-18)
(0.003 6.94068e-20 1.57628e-18)
(0.003 1.38887e-19 1.51213e-18)
(0.003 2.07849e-19 1.28105e-18)
(0.003 2.32236e-19 1.20827e-18)
(0.003 2.36266e-19 1.13489e-18)
(0.003 1.59106e-19 1.19634e-18)
(0.003 8.35258e-20 1.20423e-18)
(0.003 1.0085e-19 8.9184e-19)
(0.003 1.62588e-19 6.30059e-19)
(0.003 2.87979e-19 5.40828e-19)
(0.003 2.9093e-19 5.71368e-19)
(0.003 1.33643e-19 7.26968e-19)
(0.003 1.55488e-21 8.49396e-19)
(0.003 -4.31872e-20 8.7491e-19)
(0.003 -1.41641e-20 9.04707e-19)
(0.003 -1.13312e-19 7.07598e-19)
(0.003 -1.84839e-19 4.46593e-19)
(0.003 -4.76026e-20 3.96488e-19)
(0.003 5.6541e-20 3.94246e-19)
(0.003 1.84266e-20 3.03004e-19)
(0.003 -1.04137e-19 3.72971e-19)
(0.003 -3.07191e-20 3.6034e-19)
(0.003 4.96432e-20 3.21017e-19)
(0.003 -7.34827e-20 2.66636e-19)
(0.003 2.87338e-20 8.57059e-20)
(0.003 8.78604e-20 -3.40387e-20)
(0.003 -1.19232e-19 -2.1451e-19)
(0.003 -2.1253e-19 -4.34244e-19)
(0.003 2.73416e-20 -3.23725e-19)
(0.003 1.60177e-19 -2.97857e-19)
(0.003 1.92499e-19 -3.87502e-19)
(0.003 2.48039e-19 1.07941e-18)
(0.003 2.47362e-19 1.63994e-18)
(0.003 1.78767e-19 1.74832e-18)
(0.003 2.10423e-19 1.89926e-18)
(0.003 1.11096e-19 1.95948e-18)
(0.003 -3.19388e-20 1.96778e-18)
(0.003 1.15433e-19 1.90998e-18)
(0.003 1.93244e-19 1.82037e-18)
(0.003 2.11648e-19 1.68159e-18)
(0.003 1.57462e-19 1.52379e-18)
(0.003 5.05804e-20 1.38012e-18)
(0.003 1.97913e-19 1.31882e-18)
(0.003 3.04841e-19 1.29877e-18)
(0.003 2.58289e-19 1.25388e-18)
(0.003 1.35542e-19 1.20696e-18)
(0.003 4.93378e-20 1.10032e-18)
(0.003 8.19846e-20 8.30716e-19)
(0.003 1.03869e-19 6.57885e-19)
(0.003 1.71866e-19 6.50368e-19)
(0.003 2.10316e-19 6.51613e-19)
(0.003 1.52252e-19 6.94148e-19)
(0.003 5.69652e-20 7.87587e-19)
(0.003 8.12499e-20 8.28311e-19)
(0.003 1.08595e-20 8.29649e-19)
(0.003 -2.08513e-19 6.50639e-19)
(0.003 -2.72143e-19 4.2603e-19)
(0.003 -1.54895e-19 3.74534e-19)
(0.003 4.88487e-20 4.07949e-19)
(0.003 -5.54752e-21 3.30977e-19)
(0.003 -1.73242e-19 2.82335e-19)
(0.003 -5.28858e-21 3.60148e-19)
(0.003 7.73824e-20 3.3209e-19)
(0.003 -3.88292e-20 1.93416e-19)
(0.003 5.64894e-20 1.25669e-19)
(0.003 1.02017e-19 3.08287e-20)
(0.003 -4.13029e-20 -3.66156e-19)
(0.003 -5.70125e-20 -4.36096e-19)
(0.003 -5.82443e-20 -1.95953e-19)
(0.003 -7.24247e-20 -1.37572e-19)
(0.003 -2.19624e-20 -2.55249e-19)
(0.003 -3.41206e-21 1.14414e-18)
(0.003 2.05372e-19 1.74468e-18)
(0.003 2.29139e-19 1.80324e-18)
(0.003 8.64978e-20 1.91109e-18)
(0.003 -5.96488e-20 1.93637e-18)
(0.003 -2.84995e-20 1.93868e-18)
(0.003 1.77815e-19 1.86161e-18)
(0.003 2.39694e-19 1.73258e-18)
(0.003 1.31545e-19 1.66016e-18)
(0.003 3.95131e-20 1.57642e-18)
(0.003 1.60666e-21 1.41621e-18)
(0.003 2.37598e-19 1.32931e-18)
(0.003 3.37481e-19 1.3904e-18)
(0.003 1.91841e-19 1.28001e-18)
(0.003 8.41822e-20 1.20387e-18)
(0.003 7.79557e-20 1.08751e-18)
(0.003 1.18657e-19 9.14493e-19)
(0.003 2.17889e-19 7.19943e-19)
(0.003 2.44629e-19 5.78899e-19)
(0.003 1.37972e-19 6.00153e-19)
(0.003 1.73398e-19 7.26124e-19)
(0.003 9.15702e-20 8.358e-19)
(0.003 4.96769e-20 8.39359e-19)
(0.003 -3.00153e-20 8.12973e-19)
(0.003 -1.4639e-19 6.15174e-19)
(0.003 -5.15901e-20 3.16416e-19)
(0.003 -2.7866e-20 2.67608e-19)
(0.003 -1.07067e-19 4.41264e-19)
(0.003 -1.06701e-19 4.07155e-19)
(0.003 -9.65213e-20 2.36004e-19)
(0.003 -2.04875e-19 3.75899e-19)
(0.003 -1.16092e-19 3.78992e-19)
(0.003 3.86595e-20 2.27622e-19)
(0.003 -4.84508e-20 1.25109e-19)
(0.003 -5.83492e-20 -1.14483e-20)
(0.003 3.21857e-20 -3.94437e-19)
(0.003 -2.77238e-20 -4.83619e-19)
(0.003 -1.4258e-19 -3.21734e-19)
(0.003 -1.69415e-19 -3.27918e-19)
(0.003 -2.0596e-19 -4.0025e-19)
(0.003 -2.21421e-19 1.15292e-18)
(0.003 -1.80632e-19 1.69684e-18)
(0.003 7.19346e-20 1.82106e-18)
(0.003 1.88638e-20 1.81825e-18)
(0.003 2.48745e-20 1.87075e-18)
(0.003 3.41695e-20 1.91467e-18)
(0.003 1.10004e-19 1.91724e-18)
(0.003 1.91909e-19 1.82275e-18)
(0.003 8.12091e-20 1.68399e-18)
(0.003 -5.64595e-20 1.53803e-18)
(0.003 1.4451e-19 1.43525e-18)
(0.003 2.72095e-19 1.46814e-18)
(0.003 2.20569e-19 1.47168e-18)
(0.003 7.73088e-20 1.2777e-18)
(0.003 7.85848e-20 1.1033e-18)
(0.003 8.61937e-20 1.07929e-18)
(0.003 1.25973e-19 8.99143e-19)
(0.003 2.92821e-19 7.39345e-19)
(0.003 2.51864e-19 7.07807e-19)
(0.003 1.91152e-19 6.63946e-19)
(0.003 2.04291e-19 7.41909e-19)
(0.003 8.01834e-20 7.76268e-19)
(0.003 -7.67473e-20 8.91941e-19)
(0.003 -2.20328e-19 7.79944e-19)
(0.003 -1.61796e-19 5.4169e-19)
(0.003 1.07027e-19 4.18462e-19)
(0.003 1.60943e-19 3.05866e-19)
(0.003 -9.09041e-20 3.38611e-19)
(0.003 -1.90773e-19 3.17975e-19)
(0.003 -5.33743e-20 1.99845e-19)
(0.003 -7.65145e-20 2.9604e-19)
(0.003 -1.52741e-19 3.52899e-19)
(0.003 -6.81338e-20 2.86086e-19)
(0.003 -4.50377e-20 7.79162e-20)
(0.003 -2.45912e-20 1.93848e-20)
(0.003 2.73016e-20 -2.58162e-19)
(0.003 -9.0663e-20 -4.77147e-19)
(0.003 -9.57481e-20 -3.06733e-19)
(0.003 -1.02931e-19 -2.66779e-19)
(0.003 -1.95687e-19 -3.24766e-19)
(0.003 -8.55828e-20 1.07381e-18)
(0.003 -2.58004e-19 1.71432e-18)
(0.003 -1.72938e-19 1.92088e-18)
(0.003 -1.47853e-19 1.91158e-18)
(0.003 1.51238e-21 1.94008e-18)
(0.003 4.5719e-20 1.93567e-18)
(0.003 -1.52437e-21 1.87461e-18)
(0.003 3.47592e-20 1.7918e-18)
(0.003 4.01275e-20 1.67371e-18)
(0.003 9.25486e-20 1.45844e-18)
(0.003 1.83406e-19 1.46828e-18)
(0.003 1.34948e-19 1.55627e-18)
(0.003 -7.2844e-21 1.55875e-18)
(0.003 7.1759e-20 1.29432e-18)
(0.003 2.09176e-19 1.18274e-18)
(0.003 1.38153e-19 1.0998e-18)
(0.003 1.03074e-19 8.40365e-19)
(0.003 1.39735e-19 7.20279e-19)
(0.003 1.74868e-19 6.83124e-19)
(0.003 1.6356e-19 6.83584e-19)
(0.003 1.61967e-19 7.20647e-19)
(0.003 9.09603e-20 8.75472e-19)
(0.003 -4.40157e-20 9.25616e-19)
(0.003 -2.29308e-19 6.7823e-19)
(0.003 -1.80311e-19 4.52536e-19)
(0.003 -4.99717e-20 4.37795e-19)
(0.003 5.11783e-20 3.05171e-19)
(0.003 4.13301e-20 2.31019e-19)
(0.003 -2.3035e-20 2.87302e-19)
(0.003 6.0477e-21 2.49044e-19)
(0.003 -5.16592e-20 3.01659e-19)
(0.003 -1.64614e-20 2.70948e-19)
(0.003 -5.8027e-20 2.14686e-19)
(0.003 -1.3212e-19 1.38439e-19)
(0.003 -1.63134e-19 -3.44305e-20)
(0.003 -1.06988e-19 -3.21389e-19)
(0.003 -3.50156e-20 -3.18958e-19)
(0.003 -1.34354e-19 -1.23734e-19)
(0.003 -9.218e-20 -1.9317e-19)
(0.003 -6.18604e-20 -2.68682e-19)
(0.003 -1.68236e-19 9.84251e-19)
(0.003 -1.35271e-19 1.61298e-18)
(0.003 -2.98941e-20 1.89216e-18)
(0.003 -1.67328e-19 1.91411e-18)
(0.003 -2.04184e-19 1.95814e-18)
(0.003 -5.17155e-20 1.95259e-18)
(0.003 -5.11364e-20 1.9772e-18)
(0.003 -4.24816e-20 1.90477e-18)
(0.003 5.31574e-20 1.74876e-18)
(0.003 1.82201e-19 1.51692e-18)
(0.003 1.29698e-19 1.45246e-18)
(0.003 7.05207e-20 1.53526e-18)
(0.003 -6.96114e-20 1.48934e-18)
(0.003 8.33308e-21 1.41058e-18)
(0.003 1.71709e-19 1.22464e-18)
(0.003 1.24873e-19 9.95356e-19)
(0.003 8.27655e-20 7.43313e-19)
(0.003 -4.99678e-20 7.08541e-19)
(0.003 1.3616e-19 8.1108e-19)
(0.003 2.44906e-19 7.58349e-19)
(0.003 2.49913e-19 8.41196e-19)
(0.003 1.99561e-20 7.6035e-19)
(0.003 -2.339e-19 7.75635e-19)
(0.003 -1.91696e-19 5.99691e-19)
(0.003 -8.44285e-20 4.23702e-19)
(0.003 -5.18803e-20 4.05955e-19)
(0.003 -1.23592e-20 2.93263e-19)
(0.003 3.88313e-20 3.4288e-19)
(0.003 4.42063e-20 3.04445e-19)
(0.003 3.90227e-20 2.5971e-19)
(0.003 1.54188e-20 2.19271e-19)
(0.003 -6.48635e-21 2.32309e-19)
(0.003 -1.22468e-19 2.04948e-19)
(0.003 -2.58373e-19 2.09801e-19)
(0.003 -3.52426e-19 6.13333e-20)
(0.003 -2.37105e-19 -2.41847e-19)
(0.003 6.0529e-20 -3.3263e-19)
(0.003 7.10345e-20 -1.38007e-19)
(0.003 -8.56093e-20 -2.5582e-19)
(0.003 -9.91705e-20 -3.11426e-19)
(0.003 -1.87346e-19 8.95282e-19)
(0.003 -2.01196e-19 1.64677e-18)
(0.003 -1.54792e-19 2.01096e-18)
(0.003 -3.13794e-20 1.92004e-18)
(0.003 -4.21355e-20 1.82732e-18)
(0.003 -1.15198e-19 1.93851e-18)
(0.003 -1.95874e-19 1.93134e-18)
(0.003 -2.19934e-19 1.85663e-18)
(0.003 8.04059e-21 1.794e-18)
(0.003 1.25492e-19 1.59688e-18)
(0.003 1.18987e-19 1.497e-18)
(0.003 1.05224e-19 1.53641e-18)
(0.003 9.33089e-20 1.48354e-18)
(0.003 -1.26532e-20 1.39183e-18)
(0.003 1.23409e-20 1.30854e-18)
(0.003 1.52004e-20 1.07953e-18)
(0.003 9.76759e-20 8.97059e-19)
(0.003 2.34063e-19 6.02914e-19)
(0.003 3.10034e-19 6.57676e-19)
(0.003 2.66739e-19 7.69714e-19)
(0.003 5.90075e-20 8.74147e-19)
(0.003 -1.95725e-19 8.59688e-19)
(0.003 -1.80128e-19 6.97331e-19)
(0.003 -9.16807e-20 5.56585e-19)
(0.003 -1.01698e-19 4.68893e-19)
(0.003 -6.43675e-20 4.54052e-19)
(0.003 1.96317e-20 4.21907e-19)
(0.003 -2.84733e-20 3.88128e-19)
(0.003 4.29487e-21 3.25859e-19)
(0.003 3.00077e-20 2.63185e-19)
(0.003 1.29755e-19 2.15794e-19)
(0.003 -1.19085e-19 1.99275e-19)
(0.003 -2.25231e-19 1.31419e-19)
(0.003 -1.15299e-19 1.31684e-19)
(0.003 -1.60547e-19 9.92564e-20)
(0.003 -2.19691e-19 1.80974e-21)
(0.003 -1.78117e-19 -1.95186e-19)
(0.003 -8.62004e-20 -1.482e-19)
(0.003 4.75928e-21 -2.44664e-19)
(0.003 1.07594e-19 -2.81983e-19)
(0.003 -4.39096e-20 9.18053e-19)
(0.003 -1.62138e-19 1.56184e-18)
(0.003 -1.76928e-19 1.8467e-18)
(0.003 3.70423e-20 1.92928e-18)
(0.003 3.42168e-20 1.89768e-18)
(0.003 -1.88191e-19 1.91821e-18)
(0.003 -2.92717e-19 1.92584e-18)
(0.003 -2.0974e-19 1.91695e-18)
(0.003 5.96305e-20 1.83377e-18)
(0.003 1.37366e-19 1.66022e-18)
(0.003 1.06564e-20 1.56499e-18)
(0.003 9.57224e-21 1.53574e-18)
(0.003 1.11953e-19 1.46423e-18)
(0.003 1.38549e-19 1.36305e-18)
(0.003 6.0642e-20 1.26874e-18)
(0.003 5.37901e-21 1.09968e-18)
(0.003 1.537e-20 9.94642e-19)
(0.003 1.7381e-19 8.26474e-19)
(0.003 2.89647e-19 7.84502e-19)
(0.003 1.32468e-19 7.46445e-19)
(0.003 -1.42704e-19 7.56021e-19)
(0.003 -1.54726e-19 7.16778e-19)
(0.003 -5.21267e-20 7.65041e-19)
(0.003 -5.60352e-21 6.42464e-19)
(0.003 -1.53358e-20 4.64044e-19)
(0.003 -1.14196e-19 3.95134e-19)
(0.003 5.441e-20 4.15688e-19)
(0.003 7.31088e-20 3.80513e-19)
(0.003 6.16255e-22 3.04864e-19)
(0.003 4.91651e-21 2.34307e-19)
(0.003 -1.20178e-20 2.13608e-19)
(0.003 -1.20276e-19 9.91872e-20)
(0.003 -5.52029e-20 1.07584e-19)
(0.003 1.87926e-20 2.01945e-19)
(0.003 -2.76348e-20 1.69599e-19)
(0.003 -1.81738e-19 6.5259e-20)
(0.003 -1.36489e-19 -3.67443e-20)
(0.003 -1.14086e-19 -3.87654e-20)
(0.003 1.02092e-20 -1.63545e-19)
(0.003 1.10941e-19 -1.95459e-19)
(0.003 1.15968e-19 9.88892e-19)
(0.003 1.67735e-19 1.66e-18)
(0.003 7.47228e-20 1.78108e-18)
(0.003 -8.2145e-20 1.82973e-18)
(0.003 -1.48362e-19 1.91576e-18)
(0.003 -1.71054e-19 1.83889e-18)
(0.003 -2.47472e-19 1.83315e-18)
(0.003 -2.27239e-19 1.86102e-18)
(0.003 -1.20011e-19 1.92106e-18)
(0.003 4.27351e-20 1.81663e-18)
(0.003 1.11997e-19 1.55101e-18)
(0.003 9.65803e-20 1.53352e-18)
(0.003 1.81236e-19 1.4119e-18)
(0.003 2.2405e-19 1.41442e-18)
(0.003 3.60283e-20 1.36949e-18)
(0.003 -7.75597e-20 1.15814e-18)
(0.003 -7.26695e-20 9.26115e-19)
(0.003 -1.66378e-19 7.32429e-19)
(0.003 -1.21331e-19 8.607e-19)
(0.003 -4.28462e-21 7.43472e-19)
(0.003 -8.44177e-20 7.16046e-19)
(0.003 -1.26936e-20 8.10657e-19)
(0.003 -3.43391e-20 8.4901e-19)
(0.003 2.4241e-20 6.12595e-19)
(0.003 1.34535e-19 4.06771e-19)
(0.003 2.31798e-20 3.79308e-19)
(0.003 2.5569e-20 4.90547e-19)
(0.003 6.54271e-20 4.35239e-19)
(0.003 4.35012e-20 2.99265e-19)
(0.003 3.04881e-20 1.99893e-19)
(0.003 -5.3457e-20 1.88356e-19)
(0.003 -3.93893e-20 7.52963e-20)
(0.003 7.51771e-21 5.99907e-20)
(0.003 -2.94419e-20 1.89034e-19)
(0.003 5.73725e-20 1.81271e-19)
(0.003 5.56746e-20 1.13725e-19)
(0.003 1.5101e-20 3.62702e-20)
(0.003 -5.78552e-20 -1.47026e-19)
(0.003 -1.06983e-19 -2.69412e-19)
(0.003 -6.34925e-20 -2.82788e-19)
(0.003 2.65922e-19 9.88986e-19)
(0.003 2.49207e-19 1.56982e-18)
(0.003 2.25513e-20 1.73597e-18)
(0.003 -1.19813e-19 1.77467e-18)
(0.003 -7.81228e-20 1.7933e-18)
(0.003 1.88465e-20 1.84165e-18)
(0.003 -1.66772e-20 1.82715e-18)
(0.003 -2.15962e-19 1.77794e-18)
(0.003 -2.84032e-19 1.79237e-18)
(0.003 -8.669e-20 1.8905e-18)
(0.003 1.62378e-19 1.74716e-18)
(0.003 1.53496e-19 1.63869e-18)
(0.003 1.51254e-19 1.50159e-18)
(0.003 1.98103e-19 1.44355e-18)
(0.003 -2.72746e-20 1.35146e-18)
(0.003 -1.22417e-19 1.08943e-18)
(0.003 -8.39963e-20 8.87913e-19)
(0.003 -1.25011e-19 7.41903e-19)
(0.003 -2.25701e-19 8.41067e-19)
(0.003 -1.22794e-19 8.1023e-19)
(0.003 -9.87042e-20 7.46971e-19)
(0.003 -1.0282e-19 7.3741e-19)
(0.003 -6.9631e-20 7.92721e-19)
(0.003 -3.73527e-20 6.48126e-19)
(0.003 1.40633e-19 5.48825e-19)
(0.003 1.78972e-19 4.2647e-19)
(0.003 -1.69801e-21 3.90495e-19)
(0.003 7.00746e-20 3.70483e-19)
(0.003 1.00044e-19 2.73371e-19)
(0.003 1.3783e-20 1.76652e-19)
(0.003 -4.13355e-20 1.86142e-19)
(0.003 -5.03086e-21 1.09785e-19)
(0.003 -3.14436e-20 8.16838e-20)
(0.003 -3.15625e-20 1.31947e-19)
(0.003 7.67757e-20 2.12906e-19)
(0.003 2.53021e-19 1.62415e-19)
(0.003 1.12637e-19 -1.28235e-20)
(0.003 1.74129e-20 -2.0956e-19)
(0.003 -1.53663e-19 -2.63029e-19)
(0.003 -2.65774e-19 -1.59866e-19)
(0.003 2.42471e-19 9.51195e-19)
(0.003 2.49273e-19 1.55078e-18)
(0.003 -1.45765e-20 1.76702e-18)
(0.003 1.42181e-20 1.7082e-18)
(0.003 1.2369e-19 1.76858e-18)
(0.003 1.52775e-19 1.81373e-18)
(0.003 7.25222e-20 1.82435e-18)
(0.003 -8.9758e-20 1.74265e-18)
(0.003 -1.5763e-19 1.73184e-18)
(0.003 -1.96562e-19 1.90101e-18)
(0.003 -7.62111e-20 1.82223e-18)
(0.003 4.60289e-20 1.66393e-18)
(0.003 4.07237e-20 1.55788e-18)
(0.003 -1.59303e-19 1.46621e-18)
(0.003 -1.78907e-19 1.31691e-18)
(0.003 -5.87501e-20 1.11367e-18)
(0.003 -1.62854e-19 9.34635e-19)
(0.003 -1.64863e-19 7.75718e-19)
(0.003 -2.1251e-19 8.06015e-19)
(0.003 -1.10276e-19 8.10375e-19)
(0.003 -1.01627e-20 7.58095e-19)
(0.003 -1.75431e-20 7.67762e-19)
(0.003 6.82397e-20 7.68423e-19)
(0.003 6.62378e-20 6.12661e-19)
(0.003 4.19592e-20 4.75583e-19)
(0.003 1.24982e-19 4.46963e-19)
(0.003 5.36131e-20 4.30281e-19)
(0.003 7.4081e-20 4.40187e-19)
(0.003 4.99769e-20 3.31242e-19)
(0.003 -1.76825e-20 1.27271e-19)
(0.003 2.72188e-20 7.50305e-20)
(0.003 6.68877e-20 7.01217e-20)
(0.003 -9.85523e-21 8.2273e-20)
(0.003 3.55065e-20 1.33006e-19)
(0.003 1.57416e-19 2.4798e-19)
(0.003 1.91847e-19 1.7122e-19)
(0.003 1.30138e-19 -1.54614e-19)
(0.003 6.24159e-20 -2.55391e-19)
(0.003 4.03109e-20 -1.71282e-19)
(0.003 -5.56965e-20 -9.4961e-20)
(0.003 -8.56211e-20 1.03088e-18)
(0.003 -2.93311e-20 1.66083e-18)
(0.003 8.09673e-20 1.73051e-18)
(0.003 4.68333e-20 1.704e-18)
(0.003 3.62046e-20 1.7622e-18)
(0.003 9.91846e-20 1.88998e-18)
(0.003 8.87943e-20 1.81816e-18)
(0.003 1.31078e-19 1.66512e-18)
(0.003 -4.52739e-20 1.6755e-18)
(0.003 -1.77371e-19 1.80033e-18)
(0.003 -1.2867e-19 1.78313e-18)
(0.003 -1.43334e-19 1.72578e-18)
(0.003 -2.66237e-19 1.60504e-18)
(0.003 -2.48497e-19 1.35526e-18)
(0.003 -1.17646e-19 1.17129e-18)
(0.003 -1.13785e-19 1.05338e-18)
(0.003 -1.8253e-19 9.49497e-19)
(0.003 -1.24954e-19 8.41268e-19)
(0.003 -1.56191e-19 8.37064e-19)
(0.003 -1.87519e-19 8.14808e-19)
(0.003 -7.9522e-20 7.84348e-19)
(0.003 7.43693e-20 7.84622e-19)
(0.003 1.65807e-19 8.07127e-19)
(0.003 1.6559e-19 6.53742e-19)
(0.003 1.41104e-19 5.61546e-19)