/*--------------------------------*- C++ -*----------------------------------*\
| =========                 |                                                 |
| \\      /  F ield         | OpenFOAM: The Open Source CFD Toolbox           |
|  \\    /   O peration     | Version:  v2012                                 |
|   \\  /    A nd           | Website:  www.openfoam.com                      |
|    \\/     M anipulation  |                                                 |
\*---------------------------------------------------------------------------*/
FoamFile
{
    version     2.0;
    format      ascii;
    class       surfaceScalarField;
    location    "440/topAir";
    object      phi;
}
// * * * * * * * * * * * * * * * * * * * * * * * * * * * * * * * * * * * * * //

dimensions      [1 0 -1 0 0 0 0];
oriented        oriented;


internalField   nonuniform List<scalar> 
3140
(
9.4965413e-06
-2.9889927e-07
7.1342546e-08
9.6807132e-06
-2.6505934e-07
8.0915789e-08
9.857676e-06
-2.4666954e-07
6.975173e-08
1.0001693e-05
-1.9566496e-07
5.1709051e-08
1.0106406e-05
-1.3309229e-07
2.8461372e-08
1.0180887e-05
-7.4968926e-08
5.9276602e-10
1.025809e-05
-2.7166464e-08
-4.9917969e-08
1.0360966e-05
1.3537181e-08
-1.1631183e-07
1.0496035e-05
7.7577296e-08
-2.1256478e-07
1.0686209e-05
1.5997605e-07
-3.5008772e-07
1.0927664e-05
3.020669e-07
-5.4347499e-07
1.1194349e-05
5.3895153e-07
-8.0559184e-07
1.1434945e-05
9.0062668e-07
-1.1411455e-06
1.1656172e-05
1.3309231e-06
-1.5519996e-06
1.1831111e-05
1.8178428e-06
-1.9924976e-06
1.1946582e-05
2.2978991e-06
-2.4129465e-06
1.199002e-05
2.7271986e-06
-2.7701375e-06
1.1955039e-05
3.0801015e-06
-3.0446507e-06
1.1852872e-05
3.3402369e-06
-3.2377148e-06
1.1714439e-05
3.4987793e-06
-3.360149e-06
1.1576657e-05
3.5626699e-06
-3.4248589e-06
1.14689e-05
3.5510509e-06
-3.443436e-06
1.1408562e-05
3.4843182e-06
-3.4242976e-06
1.1399679e-05
3.3799853e-06
-3.3716167e-06
1.1429335e-05
3.2540707e-06
-3.2844681e-06
1.1457268e-05
3.1261135e-06
-3.1550598e-06
1.1395349e-05
3.0266547e-06
-2.9660807e-06
1.1067731e-05
3.0144015e-06
-2.6885643e-06
1.0114057e-05
3.2260695e-06
-2.2748023e-06
3.9866681e-06
-1.6593037e-06
9.1166172e-06
-2.2478595e-07
7.8238804e-08
9.0871761e-06
-3.3677574e-07
1.0115903e-07
9.0901245e-06
-3.5579116e-07
1.0617674e-07
9.1387889e-06
-3.5090848e-07
1.0658517e-07
9.2317e-06
-3.2798612e-07
1.0199146e-07
9.3631255e-06
-2.9679979e-07
9.0416211e-08
9.5359108e-06
-2.6970088e-07
6.97626e-08
9.7645518e-06
-2.5231854e-07
3.7323435e-08
1.007465e-05
-2.2166751e-07
-1.0648581e-08
1.049399e-05
-1.6185685e-07
-9.718913e-08
1.1045538e-05
-2.4651358e-08
-2.2423592e-07
1.1719703e-05
2.7358589e-07
-4.0792297e-07
1.2435121e-05
8.4888201e-07
-6.6245155e-07
1.3080198e-05
1.6578856e-06
-9.7061597e-07
1.3585372e-05
2.5957249e-06
-1.2816842e-06
1.3887086e-05
3.5279382e-06
-1.5307097e-06
1.3967664e-05
4.3336812e-06
-1.6865414e-06
1.3854073e-05
4.9706454e-06
-1.7769841e-06
1.3609656e-05
5.4303207e-06
-1.8461072e-06
1.3316806e-05
5.7152986e-06
-1.9243268e-06
1.3039595e-05
5.8418666e-06
-2.0027557e-06
1.281071e-05
5.8397185e-06
-2.0606638e-06
1.2642066e-05
5.7362018e-06
-2.0843102e-06
1.2530781e-05
5.5523528e-06
-2.0624804e-06
1.2459395e-05
5.3039368e-06
-1.9803743e-06
1.2384533e-05
5.0140011e-06
-1.8155525e-06
1.2220043e-05
4.7271601e-06
-1.5392653e-06
1.1812514e-05
4.5382952e-06
-1.1203948e-06
1.0917762e-05
4.641745e-06
-5.2570929e-07
5.2628849e-06
3.4473389e-07
9.1722344e-06
-2.0831002e-07
8.0250187e-08
9.0071919e-06
-2.7694691e-07
1.052133e-07
8.8282913e-06
-2.9012998e-07
1.1323907e-07
8.6482021e-06
-2.8946415e-07
1.1864463e-07
8.4792289e-06
-2.816022e-07
1.2258889e-07
8.3266634e-06
-2.6889549e-07
1.2466041e-07
8.1878734e-06
-2.5659028e-07
1.2567772e-07
8.0582549e-06
-2.5048582e-07
1.2778451e-07
7.954381e-06
-2.5224317e-07
1.3444896e-07
7.9156071e-06
-2.6827721e-07
1.4519681e-07
8.0473625e-06
-3.1003858e-07
1.5366074e-07
8.5002604e-06
-3.1788942e-07
1.3912912e-07
9.32716e-06
-5.9694162e-08
8.3223164e-08
1.0472599e-05
5.1837581e-07
-3.7991765e-09
1.1548724e-05
1.5694129e-06
-4.7499019e-08
1.2368627e-05
2.690633e-06
1.9461268e-08
1.2842993e-05
3.5677641e-06
2.9300979e-07
1.3003007e-05
4.1971172e-06
6.142138e-07
1.2942558e-05
4.6197294e-06
8.7104373e-07
1.2780743e-05
4.866609e-06
1.0100274e-06
1.2605387e-05
4.9569706e-06
1.0595207e-06
1.2444761e-05
4.9092837e-06
1.0902311e-06
1.2302681e-05
4.756925e-06
1.1205028e-06
1.2169434e-05
4.5319376e-06
1.1527911e-06
1.2035598e-05
4.2607947e-06
1.1760569e-06
1.187696e-05
3.963404e-06
1.2082206e-06
1.1656451e-05
3.6731343e-06
1.2733663e-06
1.1335222e-05
3.4684944e-06
1.3895653e-06
1.083142e-05
3.5352182e-06
1.6082027e-06
4.2456994e-06
1.8883735e-06
8.9822551e-06
7.838721e-08
8.6031717e-06
1.0213607e-07
8.2039875e-06
1.090539e-07
7.801715e-06
1.1280802e-07
7.4052362e-06
1.148762e-07
7.0210755e-06
1.1526465e-07
6.649269e-06
1.1521548e-07
6.2817231e-06
1.1705864e-07
5.904851e-06
1.246265e-07
5.4933059e-06
1.4326325e-07
4.9981011e-06
1.8515948e-07
4.4091496e-06
2.7106278e-07
3.9242826e-06
4.251847e-07
3.7941388e-06
6.490423e-07
4.3720379e-06
9.9191915e-07
5.4542347e-06
1.6084092e-06
6.4587761e-06
2.5628095e-06
7.2520969e-06
3.4028518e-06
7.8621263e-06
4.0082272e-06
8.3574131e-06
4.3695181e-06
8.7797594e-06
4.5327507e-06
9.1446143e-06
4.54267e-06
9.4369035e-06
4.4630696e-06
9.6429982e-06
4.324479e-06
9.7506113e-06
4.1519993e-06
9.762565e-06
3.9504152e-06
9.7110194e-06
3.7237496e-06
9.7114367e-06
3.4671509e-06
1.0107108e-05
3.1383411e-06
2.4128499e-06
9.6084164e-06
-2.9858691e-07
3.0497401e-08
9.9085e-06
-2.659963e-07
4.6850133e-08
1.0189933e-05
-2.5991227e-07
4.8264403e-08
1.0425816e-05
-2.2612726e-07
4.1996279e-08
1.0609524e-05
-1.8526867e-07
3.0078748e-08
1.0753456e-05
-1.5392253e-07
1.0654615e-08
1.0858895e-05
-1.4017865e-07
-1.5094229e-08
1.093679e-05
-1.4653727e-07
-4.7583643e-08
1.0995613e-05
-1.7853825e-07
-9.276751e-08
1.1043175e-05
-2.4259196e-07
-1.549832e-07
1.1087473e-05
-3.4801051e-07
-2.3967625e-07
1.113789e-05
-5.0409745e-07
-3.5174596e-07
1.1209619e-05
-7.2006485e-07
-4.9241046e-07
1.1378607e-05
-1.0575313e-06
-6.6261146e-07
1.1654219e-05
-1.4297667e-06
-8.3694393e-07
1.2005577e-05
-1.7674747e-06
-9.9509498e-07
1.2348142e-05
-1.9666034e-06
-1.1444659e-06
1.2597656e-05
-1.990231e-06
-1.3027791e-06
1.2715564e-05
-1.8849235e-06
-1.4701513e-06
1.2720821e-05
-1.7344117e-06
-1.630962e-06
1.2660014e-05
-1.5984383e-06
-1.7659637e-06
1.2578911e-05
-1.4931281e-06
-1.8698443e-06
1.2510871e-05
-1.4182516e-06
-1.9389145e-06
1.2476507e-05
-1.3687373e-06
-1.9697388e-06
1.2487618e-05
-1.3379269e-06
-1.9592717e-06
1.2545735e-05
-1.3135671e-06
-1.901728e-06
1.2630806e-05
-1.2695521e-06
-1.784377e-06
1.2691437e-05
-1.1526373e-06
-1.6003209e-06
1.2607967e-05
-8.2344873e-07
-1.3732044e-06
1.8037517e-07
-1.148848e-06
9.2410928e-06
-2.2629225e-07
3.3820546e-08
9.3588342e-06
-3.4078362e-07
5.8205942e-08
9.5028082e-06
-3.6493259e-07
6.7225439e-08
9.68608e-06
-3.7037508e-07
6.7565182e-08
9.9048818e-06
-3.6401989e-07
6.1946849e-08
1.0147457e-05
-3.5541943e-07
4.9345255e-08
1.0405194e-05
-3.5591071e-07
2.7767515e-08
1.0675752e-05
-3.7499988e-07
-4.7610959e-09
1.0964359e-05
-4.2244409e-07
-5.533704e-08
1.1267126e-05
-5.1608628e-07
-1.2644196e-07
1.1595006e-05
-6.738274e-07
-2.2624763e-07
1.1963413e-05
-9.1992477e-07
-3.6036553e-07
1.2395838e-05
-1.2864916e-06
-5.2812615e-07
1.2885479e-05
-1.8060142e-06
-7.1118266e-07
1.3436956e-05
-2.3843949e-06
-8.7779251e-07
1.3967415e-05
-2.803385e-06
-1.0247363e-06
1.436217e-05
-2.8512307e-06
-1.1966962e-06
1.4553329e-05
-2.5519044e-06
-1.4071246e-06
1.4540706e-05
-2.0866946e-06
-1.6328554e-06
1.4392689e-05
-1.6623874e-06
-1.849793e-06
1.4187484e-05
-1.3590182e-06
-2.0387238e-06
1.3953805e-05
-1.1378705e-06
-2.1843103e-06
1.3706037e-05
-9.9083803e-07
-2.2663916e-06
1.3457952e-05
-9.1993118e-07
-2.2660318e-06
1.3248134e-05
-9.4248285e-07
-2.1691732e-06
1.3135943e-05
-1.0528861e-06
-1.9673334e-06
1.3206916e-05
-1.235638e-06
-1.6470823e-06
1.3692884e-05
-1.5075569e-06
-1.2533959e-06
1.5349749e-05
-1.9323748e-06
-1.0740248e-06
-2.2375378e-06
-1.2751502e-06
9.2991134e-06
-2.1067009e-07
3.4475144e-08
9.2841867e-06
-2.806452e-07
6.0001183e-08
9.2570965e-06
-2.9564589e-07
7.1042151e-08
9.2303081e-06
-2.9910917e-07
7.4166783e-08
9.2143833e-06
-2.9787032e-07
7.2363725e-08
9.2126077e-06
-2.9418897e-07
6.5204814e-08
9.2244592e-06
-2.937567e-07
5.1670702e-08
9.2492855e-06
-3.0325693e-07
3.1212234e-08
9.2858482e-06
-3.3019439e-07
5.6311734e-09
9.3443739e-06
-3.8785308e-07
-4.1569083e-08
9.4333553e-06
-5.0103279e-07
-1.081206e-07
9.5664028e-06
-7.0848484e-07
-2.0534083e-07
9.7630823e-06
-1.0623061e-06
-3.375717e-07
1.0042104e-05
-1.6069453e-06
-4.8185783e-07
1.0396713e-05
-2.2130932e-06
-5.738411e-07
1.0731598e-05
-2.5640219e-06
-5.5622633e-07
1.1028846e-05
-2.393661e-06
-4.6434036e-07
1.1207868e-05
-1.8063889e-06
-3.1357691e-07
1.1236349e-05
-1.0676568e-06
-1.7980371e-07
1.1139116e-05
-3.7491148e-07
-1.8294945e-07
1.0984942e-05
6.6255407e-08
-2.1446505e-07
1.0846847e-05
2.6436881e-07
-1.7699805e-07
1.0745657e-05
3.1629978e-07
-8.867086e-08
1.0645256e-05
2.7117894e-07
5.8924779e-08
1.0510856e-05
1.1421131e-07
2.5067184e-07
1.0320726e-05
-1.3466817e-07
4.7743368e-07
1.0119448e-05
-5.0788014e-07
7.4464483e-07
1.0049701e-05
-9.1857497e-07
8.6875613e-07
1.0689106e-05
-1.354493e-06
3.9035404e-07
-1.6789555e-06
-8.1159485e-07
9.1031775e-06
3.3491829e-08
8.8667996e-06
5.7868452e-08
8.6121624e-06
6.8044885e-08
8.3554452e-06
7.0415706e-08
8.1046073e-06
6.7843365e-08
7.8657101e-06
5.9972403e-08
7.6411743e-06
4.5993924e-08
7.4293869e-06
2.5587876e-08
7.2234898e-06
3.2710701e-10
7.0255139e-06
-4.6617653e-08
6.8169185e-06
-1.0728369e-07
6.5735156e-06
-1.9402779e-07
6.2684808e-06
-3.3211727e-07
5.8746952e-06
-5.6443318e-07
5.4751107e-06
-8.232765e-07
5.2016766e-06
-6.8565078e-07
5.1221923e-06
2.447777e-07
5.1112497e-06
1.6029157e-06
5.1266001e-06
2.9202309e-06
5.346109e-06
3.7702829e-06
5.7159888e-06
4.2256656e-06
6.1104199e-06
4.4099331e-06
6.4517263e-06
4.4358976e-06
6.7130626e-06
4.3326036e-06
6.8857699e-06
4.0922092e-06
6.9967652e-06
3.7037006e-06
7.0160207e-06
3.1959191e-06
7.0200318e-06
2.5441779e-06
7.7743397e-06
1.0295009e-06
-1.5797227e-06
9.5858003e-06
-3.0051365e-07
1.4194727e-08
9.8764179e-06
-2.6670658e-07
2.296345e-08
1.0156541e-05
-2.5720199e-07
2.5380433e-08
1.0394321e-05
-2.1910835e-07
2.3371714e-08
1.0579922e-05
-1.7389916e-07
1.8435918e-08
1.071781e-05
-1.3820064e-07
1.1043698e-08
1.0817728e-05
-1.1556949e-07
6.5871629e-10
1.0887416e-05
-1.0636327e-07
-1.0782042e-08
1.0932658e-05
-1.1236047e-07
-2.5494476e-08
1.0958994e-05
-1.3811592e-07
-4.2995131e-08
1.0973616e-05
-1.9172151e-07
-6.225153e-08
1.0988646e-05
-2.8620566e-07
-7.9978031e-08
1.1027401e-05
-4.4242401e-07
-8.7616491e-08
1.1177972e-05
-7.3829198e-07
-7.3024133e-08
1.1429357e-05
-1.0596282e-06
-2.6265998e-08
1.1692775e-05
-1.3357451e-06
7.9533012e-08
1.1901667e-05
-1.5511132e-06
1.993652e-07
1.2042293e-05
-1.7380857e-06
2.953394e-07
1.2107146e-05
-1.9050291e-06
3.6978155e-07
1.2099018e-05
-2.0599843e-06
4.3627077e-07
1.2042216e-05
-2.2189417e-06
5.0853168e-07
1.1961249e-05
-2.3827197e-06
5.9233723e-07
1.1868527e-05
-2.5327055e-06
6.8469171e-07
1.1764894e-05
-2.646651e-06
7.7826951e-07
1.1653167e-05
-2.7192435e-06
8.6882587e-07
1.1561078e-05
-2.7694748e-06
9.5625654e-07
1.1565922e-05
-2.8184039e-06
1.0248472e-06
1.1803495e-05
-2.8385428e-06
9.9535829e-07
1.2204774e-05
-2.443816e-06
6.6234238e-07
-1.1419606e-06
-4.4024714e-08
9.213231e-06
-2.2619504e-07
1.5240184e-08
9.3180389e-06
-3.4005192e-07
2.6744499e-08
9.4590197e-06
-3.6222312e-07
3.1268481e-08
9.6420145e-06
-3.6425682e-07
2.9723202e-08
9.8599545e-06
-3.5303821e-07
2.315204e-08
1.0097971e-05
-3.3786545e-07
1.1001063e-08
1.0346084e-05
-3.2831471e-07
-7.5896725e-09
1.0600162e-05
-3.3122698e-07
-3.3960714e-08
1.0858305e-05
-3.543697e-07
-7.1443189e-08
1.1123561e-05
-4.07614e-07
-1.2213552e-07
1.1405656e-05
-5.1212989e-07
-1.8777666e-07
1.1728209e-05
-7.033193e-07
-2.6544553e-07
1.2135619e-05
-1.0369318e-06
-3.402942e-07
1.2613295e-05
-1.5491591e-06
-3.7691312e-07
1.3083189e-05
-2.0507637e-06
-3.5567029e-07
1.3371038e-05
-2.2975968e-06
-3.5060744e-07
1.3442784e-05
-2.3859596e-06
-4.3428678e-07
1.3355083e-05
-2.4498902e-06
-6.0902803e-07
1.3125427e-05
-2.4662706e-06
-8.4388732e-07
1.2778186e-05
-2.4718659e-06
-1.0929604e-06
1.2350259e-05
-2.52627e-06
-1.306125e-06
1.186554e-05
-2.6317253e-06
-1.4537628e-06
1.1331271e-05
-2.7427856e-06
-1.525891e-06
1.0746123e-05
-2.8174842e-06
-1.5145281e-06
1.0112236e-05
-2.8602495e-06
-1.3990238e-06
9.4964295e-06
-2.9602198e-06
-1.1651951e-06
9.1519981e-06
-3.2266415e-06
-8.9758314e-07
9.5950573e-06
-3.6934141e-06
-8.4218813e-07
1.1208042e-05
-3.7876945e-06
-1.3420459e-06
-2.9373039e-06
-2.2746736e-06
9.2722042e-06
-2.1039343e-07
1.5429876e-08
9.2450274e-06
-2.8009567e-07
2.7221323e-08
9.2155523e-06
-2.9409927e-07
3.2392962e-08
9.1900005e-06
-2.9609535e-07
3.1556787e-08
9.1767821e-06
-2.9289075e-07
2.5434309e-08
9.1773406e-06
-2.8643651e-07
1.3216904e-08
9.1888634e-06
-2.8164031e-07
-6.5276312e-09
9.2085842e-06
-2.8402305e-07
-3.5714182e-08
9.2381351e-06
-2.9953467e-07
-7.8756615e-08
9.2697332e-06
-3.3960572e-07
-1.4117535e-07
9.3042177e-06
-4.2741143e-07
-2.2731343e-07
9.3448404e-06
-6.0882716e-07
-3.40416e-07
9.41748e-06
-9.759227e-07
-4.7115659e-07
9.5605663e-06
-1.6057199e-06
-5.6889733e-07
9.6068355e-06
-2.1287494e-06
-5.445647e-07
9.281415e-06
-2.0447917e-06
-4.8794087e-07
8.7702268e-06
-1.7774629e-06
-5.6639336e-07
8.363517e-06
-1.6550506e-06
-7.0641154e-07
7.9187262e-06
-1.3013949e-06
-9.042203e-07
7.3586939e-06
-9.6409532e-07
-1.1346945e-06
6.6975039e-06
-7.75385e-07
-1.3085557e-06
5.9931514e-06
-7.495262e-07
-1.3603665e-06
5.2925593e-06
-8.4331506e-07
-1.294278e-06
4.6648065e-06
-1.0233561e-06
-1.1146921e-06
4.1270326e-06
-1.2870249e-06
-7.9098899e-07
3.7545743e-06
-1.6666274e-06
-4.4764814e-07
3.7762223e-06
-2.179475e-06
-3.252034e-07
4.3336155e-06
-2.9248366e-06
-4.5496088e-07
5.5334359e-06
-3.1568807e-06
-1.433597e-06
-1.9916872e-06
-3.1329243e-06
9.076995e-06
1.5055596e-08
8.8283958e-06
2.637164e-08
8.5712218e-06
3.1119291e-08
8.3156485e-06
2.9893362e-08
8.0672731e-06
2.3327586e-08
7.8302895e-06
1.0519124e-08
7.6044937e-06
-9.8512444e-09
7.3866302e-06
-4.0572675e-08
7.1747348e-06
-8.7313909e-08
6.9476176e-06
-1.5910918e-07
6.6812638e-06
-2.6834657e-07
6.3192241e-06
-4.4083453e-07
5.7409485e-06
-7.3001079e-07
4.7816272e-06
-1.2140488e-06
3.5710655e-06
-1.7512638e-06
2.6049915e-06
-1.7795242e-06
2.3373327e-06
-1.2769669e-06
2.2281387e-06
4.6664266e-08
2.2624748e-06
1.5743052e-06
2.4570958e-06
2.6029379e-06
2.7642704e-06
3.1371786e-06
3.0607471e-06
3.360055e-06
3.2431999e-06
3.4076277e-06
3.2347329e-06
3.3162115e-06
3.0363944e-06
3.0028618e-06
2.7339864e-06
2.3396839e-06
2.3081146e-06
1.4434883e-06
1.7486484e-06
1.8057321e-07
1.2281755e-06
-1.5973828e-06
-4.0572747e-06
9.5801284e-06
-3.0077142e-07
3.8212652e-09
9.8630305e-06
-2.6627979e-07
6.3641611e-09
1.0136817e-05
-2.5503479e-07
6.6633717e-09
1.036925e-05
-2.1401583e-07
4.9990401e-09
1.0549818e-05
-1.6395291e-07
1.8768931e-09
1.0684453e-05
-1.2061946e-07
-2.899759e-09
1.0781384e-05
-8.6819273e-08
-9.371047e-09
1.0849363e-05
-6.1241691e-08
-1.7415545e-08
1.0895094e-05
-4.3495289e-08
-2.7585888e-08
1.0927733e-05
-3.537445e-08
-4.002146e-08
1.0962808e-05
-4.2792768e-08
-5.4083148e-08
1.1030997e-05
-8.0386202e-08
-6.6882139e-08
1.1187386e-05
-1.7250046e-07
-6.98563e-08
1.1513006e-05
-3.4546177e-07
-5.1151369e-08
1.1879042e-05
-3.8848619e-07
-2.3710294e-09
1.2167237e-05
-2.6945398e-07
6.1071303e-08
1.2353892e-05
-1.212035e-07
1.3304079e-07
1.2478203e-05
-4.8035985e-08
2.1750089e-07
1.2564961e-05
-4.3567677e-08
3.2462285e-07
1.2624225e-05
-8.2143069e-08
4.5688287e-07
1.2667461e-05
-1.5485309e-07
6.1778612e-07
1.2700254e-05
-2.5594171e-07
8.1317489e-07
1.272557e-05
-3.838428e-07
1.0409145e-06
1.2751333e-05
-5.3634576e-07
1.2862835e-06
1.2785256e-05
-6.8848907e-07
1.5200532e-06
1.2800579e-05
-7.6304565e-07
1.6989884e-06
1.2683147e-05
-6.3546338e-07
1.769849e-06
1.2249593e-05
-2.4919965e-07
1.6669743e-06
1.0906457e-05
7.5116488e-07
1.2483834e-06
2.9462844e-06
5.6952588e-07
9.2056433e-06
-2.2603805e-07
3.8327089e-09
9.2987776e-06
-3.395289e-07
6.8603984e-09
9.428502e-06
-3.6066486e-07
7.1766383e-09
9.6002614e-06
-3.6061094e-07
4.5628015e-09
9.805488e-06
-3.4558085e-07
-4.4121255e-10
1.0029696e-05
-3.2386374e-07
-9.9545911e-09
1.0261871e-05
-3.0383029e-07
-2.2741162e-08
1.0497749e-05
-2.9062568e-07
-4.0435654e-08
1.0737131e-05
-2.8973551e-07
-6.4544443e-08
1.0987955e-05
-3.1193787e-07
-9.629621e-08
1.1273912e-05
-3.8108548e-07
-1.3519231e-07
1.1649435e-05
-5.4548132e-07
-1.7529668e-07
1.221345e-05
-8.745768e-07
-2.01145e-07
1.2950332e-05
-1.2735626e-06
-1.8478268e-07
1.3620415e-05
-1.2803677e-06
-1.3375549e-07
1.4077271e-05
-9.6373247e-07
-1.1374524e-07
1.436583e-05
-7.1105208e-07
-1.3406655e-07
1.4527282e-05
-6.4413486e-07
-1.7587509e-07
1.4569725e-05
-6.8930138e-07
-2.4250276e-07
1.4512033e-05
-7.9935231e-07
-3.2035708e-07
1.4360771e-05
-9.3168275e-07
-3.8071169e-07
1.4112816e-05
-1.069261e-06
-3.9555522e-07
1.3765804e-05
-1.2162945e-06
-3.4991279e-07
1.3348067e-05
-1.3837049e-06
-2.5327283e-07
1.2957893e-05
-1.5622534e-06
-1.3901973e-07
1.2740751e-05
-1.6507788e-06
-6.379915e-08
1.2711165e-05
-1.3718476e-06
-1.3400993e-07
1.2662701e-05
-6.1876485e-07
-4.249359e-07
1.2218175e-05
7.9014699e-07
-9.6095697e-07
2.6265486e-06
-1.7297434e-06
9.2649524e-06
-2.1039454e-07
3.794437e-09
9.2259807e-06
-2.8013384e-07
6.7975511e-09
9.1843903e-06
-2.9380937e-07
7.127481e-09
9.1458698e-06
-2.94961e-07
4.4270355e-09
9.1171798e-06
-2.9027099e-07
-1.1859042e-09
9.0996454e-06
-2.8123408e-07
-1.1878655e-08
9.0889066e-06
-2.7247213e-07
-2.7147493e-08
9.0808771e-06
-2.6899993e-07
-4.9311049e-08
9.0706544e-06
-2.7708315e-07
-8.1186031e-08
9.0540848e-06
-3.1003724e-07
-1.2650038e-07
9.0334514e-06
-3.9850319e-07
-1.8923633e-07
9.0341082e-06
-6.17901e-07
-2.6857702e-07
9.1670204e-06
-1.1335575e-06
-3.4510508e-07
9.5634088e-06
-1.8662432e-06
-3.7525434e-07
9.7571163e-06
-1.7390599e-06
-2.8430295e-07
9.441812e-06
-8.5670263e-07
-2.8265824e-07
8.9754092e-06
-4.8964409e-07
-3.2295409e-07
8.4132861e-06
-3.6344174e-07
-4.260876e-07
7.8270855e-06
-4.4505119e-07
-5.6387878e-07
7.1765274e-06
-5.5002052e-07
-7.3632188e-07
6.4569092e-06
-6.6473368e-07
-8.6042471e-07
5.6939867e-06
-8.0042197e-07
-8.7247434e-07
4.9051163e-06
-9.3989189e-07
-7.8938032e-07
4.1408203e-06
-1.1175737e-06
-6.2432761e-07
3.6204613e-06
-1.4189326e-06
-4.2030024e-07
3.683409e-06
-1.7939394e-06
-3.7150185e-07
4.4517955e-06
-1.7412212e-06
-7.2576419e-07
5.4171593e-06
-7.1643022e-07
-1.3200088e-06
6.1026477e-06
7.3693785e-07
-2.0630859e-06
2.2533042e-06
-2.8191023e-06
9.069966e-06
3.6473102e-09
8.8097685e-06
6.4349276e-09
8.5405397e-06
6.5383672e-09
8.2718505e-06
3.6213174e-09
8.007573e-06
-2.6663119e-09
7.7507835e-06
-1.3925917e-08
7.4989774e-06
-3.0517757e-08
7.2447386e-06
-5.5334664e-08
6.9731025e-06
-9.2762412e-08
6.654445e-06
-1.5049146e-07
6.2300847e-06
-2.424959e-07
5.5688548e-06
-3.9756327e-07
4.3902626e-06
-6.8601686e-07
2.5292903e-06
-1.2335355e-06
5.679384e-07
-1.5476398e-06
-9.5354122e-07
-1.136603e-06
-2.0109399e-06
-7.1477981e-07
-2.249082e-06
-8.2621759e-08
-1.8580511e-06
7.3023108e-07
-1.2990373e-06
1.4865844e-06
-7.9841148e-07
1.9668044e-06
-4.8138789e-07
2.2397465e-06
-4.1318694e-07
2.398426e-06
-6.5446392e-07
2.4401392e-06
-1.1935449e-06
2.1235958e-06
-1.7694086e-06
1.1212597e-06
-2.0761968e-06
8.7148114e-09
-1.2540919e-06
-1.3541887e-06
3.9048422e-07
-2.498854e-06
-3.2562666e-06
9.5768366e-06
-3.0126578e-07
-2.7661983e-09
9.855338e-06
-2.6705264e-07
-5.0621652e-09
1.0125021e-05
-2.5589526e-07
-7.0912126e-09
1.0353854e-05
-2.1476699e-07
-9.0270839e-09
1.0531175e-05
-1.6439367e-07
-1.1000473e-08
1.0661944e-05
-1.2042264e-07
-1.3188973e-08
1.0754422e-05
-8.6078869e-08
-1.5700017e-08
1.0816301e-05
-6.0514052e-08
-1.8683578e-08
1.0855155e-05
-4.3865984e-08
-2.2422156e-08
1.0882197e-05
-3.9467144e-08
-2.73159e-08
1.0919989e-05
-5.719294e-08
-3.4097711e-08
1.1017625e-05
-1.1897546e-07
-4.4320087e-08
1.1255844e-05
-2.4459302e-07
-6.1502659e-08
1.1676641e-05
-3.7948663e-07
-9.1424903e-08
1.2082072e-05
-2.8180636e-07
-1.2685395e-07
1.2387645e-05
-8.3524592e-08
-1.6340728e-07
1.2623617e-05
1.0262714e-07
-2.0733194e-07
1.2824428e-05
2.8275766e-07
-2.673221e-07
1.3021014e-05
4.772889e-07
-3.5010751e-07
1.3224917e-05
7.1160048e-07
-4.5917567e-07
1.3428165e-05
1.0012085e-06
-5.86993e-07
1.3609215e-05
1.3463504e-06
-7.1434239e-07
1.3737367e-05
1.7317121e-06
-8.1886217e-07
1.3781549e-05
2.1305976e-06
-8.8820891e-07
1.3696964e-05
2.523407e-06
-9.183238e-07
1.3395073e-05
2.9066365e-06
-9.0527847e-07
1.2702612e-05
3.299075e-06
-8.364939e-07
1.1336033e-05
3.7248504e-06
-6.9154544e-07
8.807909e-06
4.232512e-06
-4.5692819e-07
5.236792e-06
-1.9103605e-07
9.2010192e-06
-2.2622766e-07
-3.2554483e-09
9.2873876e-06
-3.3993341e-07
-6.6261498e-09
9.4098424e-06
-3.6114823e-07
-1.0022758e-08
9.5741447e-06
-3.6099233e-07
-1.3510338e-08
9.7720838e-06
-3.4557309e-07
-1.7194902e-08
9.9863737e-06
-3.2328496e-07
-2.1374847e-08
1.0206177e-05
-3.0258962e-07
-2.6022388e-08
1.0425969e-05
-2.892449e-07
-3.1475969e-08
1.0646118e-05
-2.9018827e-07
-3.8320942e-08
1.0878117e-05
-3.2011796e-07
-4.7511418e-08
1.1159689e-05
-4.1250142e-07
-6.110637e-08
1.1583341e-05
-6.3414951e-07
-8.2952735e-08
1.2299968e-05
-1.041275e-06
-1.1981803e-07
1.3134486e-05
-1.2298536e-06
-1.6921076e-07
1.3761527e-05
-8.4325617e-07
-2.0049303e-07
1.4241076e-05
-4.6576271e-07
-2.1268831e-07
1.4625716e-05
-1.9586678e-07
-2.2600627e-07
1.4935773e-05
3.9411735e-08
-2.5110716e-07
1.5197205e-05
2.5649444e-07
-2.9428894e-07
1.5441244e-05
4.9497178e-07
-3.6118337e-07
1.5661871e-05
8.1174308e-07
-4.2661139e-07
1.5840398e-05
1.2083641e-06
-4.5088063e-07
1.5943573e-05
1.6828538e-06
-4.1789801e-07
1.5941995e-05
2.2184559e-06
-3.5144008e-07
1.5772317e-05
2.8392908e-06
-2.9520182e-07
1.530996e-05
3.55364e-06
-2.5688875e-07
1.4313737e-05
4.3189669e-06
-1.6522065e-07
1.2494663e-05
5.1064721e-06
5.1097323e-09
9.4404292e-06
5.9805881e-06
3.364554e-07
7.2522358e-06
6.9631016e-07
9.2602974e-06
-2.1047362e-07
-3.2964611e-09
9.2142279e-06
-2.8034478e-07
-6.7220229e-09
9.1645489e-06
-2.940703e-07
-1.0271781e-08
9.1171724e-06
-2.9515519e-07
-1.403393e-08
9.0787749e-06
-2.9021741e-07
-1.8144295e-08
9.0475232e-06
-2.810244e-07
-2.2887717e-08
9.0182322e-06
-2.7216662e-07
-2.8279829e-08
8.9836596e-06
-2.6924215e-07
-3.4740942e-08
8.9356099e-06
-2.8026229e-07
-4.3059732e-08
8.8663903e-06
-3.2306546e-07
-5.4320695e-08
8.7788952e-06
-4.4227518e-07
-7.1922408e-08
8.7359068e-06
-7.5723851e-07
-1.0239041e-07
9.0322382e-06
-1.5221624e-06
-1.6104941e-07
9.6605691e-06
-2.0029498e-06
-2.3805908e-07
9.5368368e-06
-7.4416663e-07
-2.6337626e-07
9.3853423e-06
-3.5204995e-07
-2.4601428e-07
9.1597563e-06
-6.2661939e-08
-2.3038871e-07
8.9481115e-06
7.0694408e-08
-2.4791589e-07
8.8728637e-06
5.7671029e-08
-2.9490056e-07
8.9955986e-06
-3.9894706e-08
-3.3067887e-07
9.3710728e-06
-1.3397678e-07
-2.9706346e-07
9.9583887e-06
-1.0417966e-07
-1.5440285e-07
1.066068e-05
8.5892459e-08
9.5141827e-08
1.1398797e-05
3.9539767e-07
4.4897009e-07
1.2062588e-05
9.5262302e-07
7.9045422e-07
1.2346099e-05
1.8054656e-06
1.081134e-06
1.1882005e-05
2.7707186e-06
1.2746351e-06
1.0446826e-05
3.7225696e-06
1.4864492e-06
7.7169458e-06
4.8934425e-06
1.7389568e-06
6.4487025e-06
1.9032132e-06
9.065351e-06
-3.2250508e-09
8.7979925e-06
-6.5517576e-09
8.5204628e-06
-1.0002527e-08
8.242606e-06
-1.3677427e-08
7.9674665e-06
-1.774455e-08
7.6949576e-06
-2.2441871e-08
7.4201258e-06
-2.7852975e-08
7.1299145e-06
-3.4366296e-08
6.799469e-06
-4.258033e-08
6.3795894e-06
-5.3679898e-08
5.7652225e-06
-7.0416125e-08
4.7085162e-06
-9.8279704e-08
2.6487665e-06
-1.5205122e-07
-3.7072063e-07
-2.6920473e-07
-2.396536e-06
-2.7857913e-07
-3.8655277e-06
-2.7599463e-08
-4.8369702e-06
1.8784016e-07
-5.260155e-06
4.0711367e-07
-5.1186786e-06
6.416627e-07
-4.5447873e-06
8.6695034e-07
-3.7662675e-06
1.0503529e-06
-2.8766778e-06
1.2447875e-06
-1.8416809e-06
1.4521406e-06
-6.0807461e-07
1.6048146e-06
8.2776375e-07
1.64058e-06
2.0564143e-06
1.696239e-06
2.7133594e-06
2.118909e-06
2.4270744e-06
2.6514185e-06
1.9010917e-06
2.9220907e-06
2.8626557e-06
9.5766276e-06
-3.0129195e-07
-9.1180714e-09
9.8547852e-06
-2.6710193e-07
-1.6094947e-08
1.0123973e-05
-2.5595484e-07
-2.0290587e-08
1.0352101e-05
-2.148257e-07
-2.2289096e-08
1.0528337e-05
-1.6444392e-07
-2.2744295e-08
1.0657793e-05
-1.205553e-07
-2.2035355e-08
1.074872e-05
-8.6282795e-08
-2.0288506e-08
1.080845e-05
-6.0797027e-08
-1.7578638e-08
1.0844242e-05
-4.4072466e-08
-1.4157465e-08
1.0866345e-05
-3.8896402e-08
-1.0666321e-08
1.0894393e-05
-5.4125806e-08
-8.4357981e-09
1.0970116e-05
-1.1028671e-07
-1.0687346e-08
1.1169574e-05
-2.3645724e-07
-2.6063434e-08
1.1571362e-05
-4.2338764e-07
-7.0212231e-08
1.1967699e-05
-3.6878251e-07
-1.5239731e-07
1.2236009e-05
-1.7758546e-07
-2.49827e-07
1.2391845e-05
-1.293037e-08
-3.4436818e-07
1.247735e-05
9.3045269e-08
-4.4088336e-07
1.2533479e-05
1.441832e-07
-5.4617737e-07
1.2608388e-05
1.3168188e-07
-6.620923e-07
1.2739749e-05
7.490748e-08
-7.8991249e-07
1.2931971e-05
3.0464699e-08
-9.3368822e-07
1.3138211e-05
7.6963036e-08
-1.0983733e-06
1.3308667e-05
2.2452187e-07
-1.2787747e-06
1.3395468e-05
4.562588e-07
-1.4559719e-06
1.3325146e-05
7.6335714e-07
-1.5918214e-06
1.2943977e-05
1.1734479e-06
-1.6214188e-06
1.1981718e-05
1.7610565e-06
-1.4828144e-06
9.9595867e-06
2.7053375e-06
-1.1336024e-06
4.5122552e-06
-4.5792272e-07
9.2007585e-06
-2.2627385e-07
-1.0062849e-08
9.2866057e-06
-3.4001441e-07
-1.9559795e-08
9.408288e-06
-3.6127145e-07
-2.638599e-08
9.5714721e-06
-3.6115656e-07
-3.0359755e-08
9.7673971e-06
-3.4580159e-07
-3.1756649e-08
9.9795994e-06
-3.2356191e-07
-3.0563562e-08
1.019659e-05
-3.0293406e-07
-2.6355188e-08
1.0412407e-05
-2.895898e-07
-1.8498274e-08
1.0626656e-05
-2.9020266e-07
-6.4611704e-09
1.0847664e-05
-3.182548e-07
1.07617e-08
1.1106427e-05
-4.0580242e-07
3.1582213e-08
1.1482493e-05
-6.188702e-07
4.9004238e-08
1.2126414e-05
-1.0450211e-06
4.3848775e-08
1.2946865e-05
-1.4015036e-06
-1.0763116e-08
1.3534443e-05
-1.0268623e-06
-1.2817571e-07
1.3933974e-05
-6.1618284e-07
-1.7133411e-07
1.4204244e-05
-3.4925429e-07
-1.5744414e-07
1.4381868e-05
-2.2327031e-07
-1.0541886e-07
1.4447148e-05
-1.8203455e-07
-2.3026404e-08
1.4445534e-05
-3.2307586e-07
1.0740946e-07
1.4420526e-05
-5.68851e-07
2.5558816e-07
1.4409338e-05
-7.7457693e-07
3.7818081e-07
1.4455645e-05
-8.0553974e-07
4.306514e-07
1.4593259e-05
-6.420015e-07
3.8754842e-07
1.4799924e-05
-3.2076646e-07
2.8134967e-07
1.489371e-05
2.3399061e-07
1.7937703e-07
1.4539418e-05
1.0862219e-06
2.7144603e-07
1.3469546e-05
2.1332957e-06
6.9324438e-07
1.156204e-05
3.5747615e-06
1.3614088e-06
5.5016862e-06
1.9778059e-06
9.2600108e-06
-2.105054e-07
-1.0115192e-08
9.2133715e-06
-2.8039952e-07
-1.9698006e-08
9.1628113e-06
-2.9415847e-07
-2.6824947e-08
9.1140954e-06
-2.9528592e-07
-3.1188913e-08
9.0734218e-06
-2.9043333e-07
-3.2839055e-08
9.0397016e-06
-2.812634e-07
-3.1465909e-08
9.0071255e-06
-2.7240316e-07
-2.6234213e-08
8.9680453e-06
-2.6932197e-07
-1.592795e-08
8.9141842e-06
-2.7943391e-07
3.2685141e-11
8.8328021e-06
-3.2001202e-07
2.8813684e-08
8.7180354e-06
-4.3230507e-07
6.9323127e-08
8.6029902e-06
-7.281927e-07
1.2190474e-07
8.715869e-06
-1.4840483e-06
1.6537579e-07
9.2831717e-06
-2.3257294e-06
1.2701063e-07
8.9454666e-06
-9.4256665e-07
-6.4465726e-09
8.5975827e-06
-4.6123402e-07
-5.312325e-08
8.1218619e-06
-1.0364292e-07
-2.8098201e-09
7.4306883e-06
3.1052388e-08
1.869748e-07
6.5388079e-06
-2.3331684e-08
4.3557537e-07
5.4221606e-06
-2.2994895e-07
6.9024265e-07
4.2118054e-06
-5.5999423e-07
9.0279806e-07
3.2053221e-06
-9.5154343e-07
1.0291068e-06
2.8073364e-06
-1.3106915e-06
1.0005832e-06
3.2227236e-06
-1.484846e-06
8.781009e-07
4.3833351e-06
-1.440959e-06
7.492197e-07
6.1144147e-06
-1.0528538e-06
6.3449412e-07
7.6038964e-06
-1.0369415e-07
9.7150258e-07
8.1684799e-06
1.0773927e-06
1.9712447e-06
7.9154751e-06
2.5595256e-06
2.9972567e-06
4.3334874e-06
3.7010502e-06
9.065056e-06
-9.8342525e-09
8.7971235e-06
-1.9019066e-08
8.5186848e-06
-2.5722649e-08
8.239351e-06
-2.962989e-08
7.9619113e-06
-3.0738506e-08
7.6868467e-06
-2.864097e-08
7.4088933e-06
-2.23029e-08
7.1154435e-06
-1.0238595e-08
6.7816716e-06
1.1758123e-08
6.3569437e-06
5.1037347e-08
5.7339717e-06
1.2025645e-07
4.6578096e-06
2.4977205e-07
2.5122288e-06
5.1164402e-07
-1.0060083e-06
9.6566945e-07
-3.4886407e-06
1.2748084e-06
-5.1259951e-06
1.1531534e-06
-6.1787749e-06
1.1381125e-06
-6.6844557e-06
9.429718e-07
-6.5568229e-06
4.9036417e-07
-5.8113744e-06
-1.092752e-07
-4.8852084e-06
-4.3590438e-07
-3.9766e-06
-6.1526985e-07
-3.2002865e-06
-6.349533e-07
-2.5223221e-06
-5.5922778e-07
-1.9162974e-06
-4.0934933e-07
-1.265186e-06
-1.278103e-08
-2.6573873e-07
1.0104063e-06
6.6497416e-07
2.7963414e-06
2.0437433e-06
4.110793e-06
4.8824438e-06
9.5793651e-06
-3.0096902e-07
-1.85305e-08
9.8609801e-06
-2.6664153e-07
-3.1045594e-08
1.0132959e-05
-2.5556887e-07
-3.6667814e-08
1.0363032e-05
-2.1474386e-07
-3.7580908e-08
1.0540731e-05
-1.6489312e-07
-3.5507591e-08
1.067155e-05
-1.216858e-07
-3.1122024e-08
1.0764022e-05
-8.807345e-08
-2.4641367e-08
1.0826059e-05
-6.2943196e-08
-1.6638116e-08
1.0863319e-05
-4.6060367e-08
-5.3471679e-09
1.0884191e-05
-3.9164782e-08
7.5651959e-09
1.0902463e-05
-4.7721084e-08
2.0779054e-08
1.0944222e-05
-8.5805492e-08
3.275627e-08
1.1060935e-05
-1.8075366e-07
3.6691792e-08
1.1360076e-05
-3.9597902e-07
2.4633451e-08
1.1740081e-05
-5.0376904e-07
-3.0278965e-08
1.2048798e-05
-4.1160153e-07
-1.475828e-07
1.2229938e-05
-2.6597362e-07
-2.5914717e-07
1.2323122e-05
-1.9632461e-07
-3.3655564e-07
1.2377975e-05
-2.2890329e-07
-3.7026644e-07
1.2434414e-05
-3.4938886e-07
-3.6655833e-07
1.2509632e-05
-5.2218445e-07
-3.3936118e-07
1.2592947e-05
-7.0627001e-07
-3.0570077e-07
1.2655964e-05
-8.7233041e-07
-2.8208224e-07
1.2680785e-05
-1.0173215e-06
-2.7712709e-07
1.2679175e-05
-1.1536104e-06