/*--------------------------------*- C++ -*----------------------------------*\
| =========                 |                                                 |
| \\      /  F ield         | OpenFOAM: The Open Source CFD Toolbox           |
|  \\    /   O peration     | Version:  v2012                                 |
|   \\  /    A nd           | Website:  www.openfoam.com                      |
|    \\/     M anipulation  |                                                 |
\*---------------------------------------------------------------------------*/
FoamFile
{
    version     2.0;
    format      ascii;
    class       volVectorField;
    location    "440/topAir";
    object      U;
}
// * * * * * * * * * * * * * * * * * * * * * * * * * * * * * * * * * * * * * //

dimensions      [0 1 -1 0 0 0 0];


internalField   nonuniform List<vector> 
1200
(
(0.10437934 -0.0024035563 0.0008715477)
(0.11769713 -0.0025013161 0.0013037873)
(0.12914565 -0.0023018865 0.0013789901)
(0.13808226 -0.001767706 0.0012389692)
(0.14588929 -0.00096193366 0.00089841162)
(0.15318791 -5.2456422e-05 0.00031880128)
(0.16022536 0.00086453665 -0.00052542665)
(0.16726134 0.0017157096 -0.0017791723)
(0.17447067 0.0025878009 -0.0037000627)
(0.18213864 0.0036591 -0.0065844413)
(0.19043966 0.0052377203 -0.010813913)
(0.19910211 0.0076748706 -0.016786127)
(0.20678216 0.011363119 -0.024767579)
(0.2120393 0.015813652 -0.034650455)
(0.21483258 0.020885221 -0.045744938)
(0.21563547 0.025871149 -0.056912238)
(0.21463492 0.03016585 -0.066964399)
(0.21198049 0.03348553 -0.075109104)
(0.20803814 0.035739301 -0.08107738)
(0.20345121 0.03690965 -0.084996869)
(0.19899813 0.037095482 -0.08719356)
(0.19534264 0.036512407 -0.0880334)
(0.19288127 0.035390391 -0.087828907)
(0.19174076 0.033930147 -0.086799476)
(0.19180288 0.032327754 -0.085051599)
(0.19263538 0.030845915 -0.082538217)
(0.19326194 0.02990907 -0.078985741)
(0.19172875 0.030342152 -0.073807308)
(0.1845722 0.034138132 -0.065987652)
(0.14415252 0.047429606 -0.053452706)
(0.098701836 -0.003805692 0.00084502171)
(0.098479478 -0.0046270282 0.0012716151)
(0.098879827 -0.0046915726 0.0014465675)
(0.099725449 -0.0042411308 0.0015231094)
(0.10110549 -0.0034650149 0.0015294563)
(0.10305037 -0.0026057611 0.0014521187)
(0.10553654 -0.0018189191 0.0012687249)
(0.10868262 -0.0011925967 0.00092602515)
(0.11298201 -0.00041289839 0.00030805044)
(0.11889793 0.00087812853 -0.00075032032)
(0.12730234 0.0034547829 -0.0025381321)
(0.13851317 0.0082810235 -0.0054128936)
(0.15236959 0.016186211 -0.0098659522)
(0.1672904 0.026307373 -0.016067133)
(0.18133813 0.038092274 -0.023659302)
(0.19281381 0.05023324 -0.031726366)
(0.200577 0.061624743 -0.039279203)
(0.20424258 0.071474702 -0.045731365)
(0.20424802 0.079140315 -0.050902258)
(0.2017215 0.084156884 -0.054817883)
(0.19807735 0.086549677 -0.057552432)
(0.19445823 0.086814447 -0.05915208)
(0.19151152 0.085545272 -0.059693501)
(0.18950664 0.083242254 -0.059283959)
(0.18846635 0.080306233 -0.057989136)
(0.18814484 0.077219171 -0.055700977)
(0.18784887 0.074778811 -0.052012323)
(0.18623536 0.074547775 -0.046062467)
(0.18195273 0.079880608 -0.03590001)
(0.15433595 0.095533061 -0.016340108)
(0.098831782 -0.0028793688 0.00087169536)
(0.098018195 -0.004170497 0.0013192455)
(0.096430421 -0.004573464 0.0015149717)
(0.094428092 -0.0046585451 0.0016299665)
(0.092475215 -0.004614447 0.0017171407)
(0.090753188 -0.0045258421 0.0017889424)
(0.089251608 -0.0044908403 0.001863062)
(0.087898819 -0.0045729988 0.0019786369)
(0.086731235 -0.0045906719 0.0022022211)
(0.086030726 -0.0044468427 0.002568234)
(0.086287351 -0.003901458 0.0030369032)
(0.089374728 -0.0016269307 0.0032466184)
(0.098237105 0.0050591929 0.0025914335)
(0.11285385 0.017530702 0.00080396751)
(0.13075686 0.034136215 -0.0020904952)
(0.1485305 0.052213067 -0.0052805045)
(0.1632668 0.068844279 -0.0079890431)
(0.17360691 0.082780448 -0.0099201276)
(0.17956268 0.093522559 -0.011301921)
(0.18215869 0.10088327 -0.012576291)
(0.18282422 0.10492109 -0.014020163)
(0.18262606 0.1059859 -0.015496143)
(0.18203529 0.10465219 -0.016600223)
(0.18119217 0.1015019 -0.017032444)
(0.18014361 0.09702994 -0.016651758)
(0.17885216 0.091718539 -0.015346877)
(0.17707296 0.086342572 -0.012883262)
(0.17441756 0.082579697 -0.0087901316)
(0.17151316 0.084223472 -0.0021862506)
(0.15672253 0.097629176 0.010314062)
(0.096873907 -0.0015487294 0.00083759373)
(0.094691215 -0.0022852229 0.0012471308)
(0.091024474 -0.0025086693 0.0014043235)
(0.086532497 -0.0025390713 0.0014787937)
(0.082032248 -0.002477158 0.0015269817)
(0.077768711 -0.0023530168 0.0015651289)
(0.073706465 -0.0022051595 0.0016167919)
(0.069750736 -0.0020722908 0.0017258427)
(0.065778577 -0.0019843609 0.0019642386)
(0.061592734 -0.0020904226 0.0024364498)
(0.05681299 -0.0028374561 0.0033611168)
(0.051041032 -0.0043253386 0.005142073)
(0.043789165 -0.0050193826 0.0083833035)
(0.038960453 0.00036519273 0.013058193)
(0.043958207 0.014621539 0.01852596)
(0.05772822 0.031909773 0.024281899)
(0.073437 0.046986653 0.029961208)
(0.087737256 0.059174963 0.035375459)
(0.099825876 0.068578886 0.040121607)
(0.11001264 0.075244203 0.04360134)
(0.11883834 0.079132015 0.045754464)
(0.12657635 0.080294815 0.046752752)
(0.13314846 0.079115984 0.046786721)
(0.13830307 0.076125416 0.046148722)
(0.1418482 0.071863162 0.045202793)
(0.14375121 0.066802244 0.044319608)
(0.14428552 0.061582899 0.043786799)
(0.14447618 0.057508948 0.043421199)
(0.14867349 0.057530632 0.042387531)
(0.17386677 0.067637757 0.041419415)
(0.10563772 -0.0024041912 0.00099027661)
(0.11980705 -0.0025102487 0.0013750391)
(0.1325069 -0.0023969269 0.0013620078)
(0.14278651 -0.0020430844 0.0011217261)
(0.15175081 -0.0015175117 0.00067435032)
(0.15996443 -0.00099648984 -2.0636876e-05)
(0.16744436 -0.00062423879 -0.0010183642)
(0.17411332 -0.00046613378 -0.0024644013)
(0.17995435 -0.00058364563 -0.0046052737)
(0.18495254 -0.0010478636 -0.0077115265)
(0.18904881 -0.0019755211 -0.012108487)
(0.19214848 -0.0034943861 -0.018066625)
(0.19371353 -0.0057225732 -0.025610884)
(0.19347887 -0.0092833318 -0.034187877)
(0.19295191 -0.013546124 -0.042726557)
(0.19343931 -0.017735026 -0.050088662)
(0.19488654 -0.020845936 -0.055833536)
(0.19637103 -0.022371587 -0.060165881)
(0.19700763 -0.022618412 -0.063374483)
(0.19649153 -0.022341805 -0.065615234)
(0.19512896 -0.022117323 -0.067005514)
(0.19350467 -0.022080686 -0.067650288)
(0.1921518 -0.022192022 -0.067614588)
(0.19143745 -0.022396738 -0.066912842)
(0.1915948 -0.022634191 -0.065505907)
(0.19275556 -0.022725854 -0.063257354)
(0.19488442 -0.022233954 -0.059828361)
(0.19773263 -0.020093453 -0.054584567)
(0.20089597 -0.012865828 -0.046648791)
(0.19569485 0.0099534619 -0.036110227)
(0.099989243 -0.003816308 0.0010423745)
(0.10070353 -0.0046710255 0.0015725225)
(0.10248603 -0.0048688796 0.0017543807)
(0.10489075 -0.004668538 0.0017838836)
(0.10774394 -0.0042622137 0.0017041465)
(0.11098829 -0.0038952182 0.0014943965)
(0.11453295 -0.0037598359 0.0011145769)
(0.11829787 -0.0039614481 0.00049529699)
(0.12227312 -0.004613623 -0.00047640708)
(0.12642654 -0.0058846665 -0.0019475517)
(0.13076878 -0.0079939719 -0.0040776574)
(0.13537315 -0.011182557 -0.007043119)
(0.14037385 -0.01571281 -0.010940204)
(0.14574876 -0.022226514 -0.01534277)
(0.15153875 -0.02959327 -0.019294663)
(0.15760988 -0.035867057 -0.0218749)
(0.16340708 -0.038920614 -0.023100404)
(0.16793401 -0.038123817 -0.02391471)
(0.17043947 -0.034607919 -0.025072583)
(0.17093277 -0.030341747 -0.026762921)
(0.1701563 -0.026789837 -0.028743916)
(0.16893105 -0.024303164 -0.030659319)
(0.16765131 -0.022722423 -0.032081625)
(0.16646427 -0.02186886 -0.032534468)
(0.16564053 -0.021759133 -0.031528962)
(0.16577421 -0.022461558 -0.028614415)
(0.16785165 -0.023862343 -0.023272945)
(0.1740602 -0.025440599 -0.014680399)
(0.19056758 -0.025690295 -0.0014384315)
(0.250498 -0.017411913 0.013885108)
(0.10012934 -0.0029069752 0.0010624321)
(0.10026691 -0.004222504 0.001618828)
(0.10012273 -0.0046673567 0.001846372)
(0.09982388 -0.004827684 0.0019491338)
(0.099582388 -0.0048968015 0.0019878148)
(0.099514331 -0.004959819 0.0019641043)
(0.099633528 -0.0051003799 0.0018769924)
(0.099917394 -0.0054099084 0.0017376769)
(0.100347 -0.0060118317 0.0015726842)
(0.10096193 -0.0071351846 0.0013706383)
(0.10186274 -0.0090766234 0.0010067321)
(0.10320437 -0.012255747 0.00027191119)
(0.10520469 -0.017282915 -0.00081209243)
(0.10792125 -0.024834435 -0.0016269426)
(0.11139602 -0.033642041 -0.00093982957)
(0.1154298 -0.040834331 0.0031948972)
(0.12078376 -0.042644784 0.011085962)
(0.12661033 -0.03910114 0.019653036)
(0.13146663 -0.032666322 0.026831166)
(0.13449523 -0.026520626 0.031505946)
(0.13561459 -0.021736659 0.034485024)
(0.13581788 -0.017693872 0.037456997)
(0.13669356 -0.015010486 0.040223072)
(0.13811581 -0.014073381 0.042509717)
(0.13917305 -0.015312084 0.043782789)
(0.1395387 -0.018260995 0.04450818)
(0.13922408 -0.022067178 0.045280871)
(0.1395038 -0.027026711 0.046297769)
(0.14589846 -0.033579269 0.049226533)
(0.17798558 -0.041395333 0.048199147)
(0.098115162 -0.0015753405 0.0010378445)
(0.096825565 -0.0023408985 0.001575831)
(0.094531185 -0.0025966691 0.0017897075)
(0.09166277 -0.002671727 0.0018755561)
(0.088791798 -0.0026702548 0.0018935255)
(0.086109723 -0.0026249145 0.0018490707)
(0.083616425 -0.0025767022 0.0017477128)
(0.081279583 -0.0025783552 0.0016062965)
(0.079052225 -0.0027033386 0.0014611758)
(0.076905174 -0.0030790166 0.0013672058)
(0.074773686 -0.0039404707 0.0013992978)
(0.072462313 -0.0057066765 0.001684078)
(0.069636906 -0.0089772618 0.0022656261)
(0.06596257 -0.014050953 0.0031673323)
(0.061574802 -0.019047767 0.0062289634)
(0.057951089 -0.019142488 0.017123872)
(0.05873375 -0.011378863 0.040412655)
(0.061031103 0.0012382359 0.063737727)
(0.063844932 0.01446553 0.082315693)
(0.067630982 0.025385728 0.095684322)
(0.073462681 0.032622057 0.10400172)
(0.08069978 0.035574767 0.10768048)
(0.087356779 0.03537748 0.10862112)
(0.092929789 0.032748173 0.10746236)
(0.097098367 0.028615632 0.10450269)
(0.10005894 0.023292324 0.099384852)
(0.1018656 0.016968692 0.092074953)
(0.10241139 0.0099206939 0.083117843)
(0.10894596 0.0024205582 0.073300938)
(0.14220963 -0.0034478992 0.045780554)
(0.1055135 -0.0024246419 0.00032657205)
(0.1194838 -0.0025293293 0.00052768657)
(0.13209014 -0.0023910113 0.0005939574)
(0.14238346 -0.0019909823 0.0005666696)
(0.15140601 -0.0014091029 0.00047019929)
(0.15963316 -0.00083046651 0.0003051632)
(0.16709671 -0.00036073771 3.9190962e-05)
(0.17378012 -3.696655e-05 -0.00034536212)
(0.17969375 0.0001192208 -0.00086214887)
(0.18482984 6.9001245e-05 -0.0015331382)
(0.18913893 -0.00025749093 -0.0023755547)
(0.19252702 -0.00097846391 -0.0033641406)
(0.19439062 -0.0022897581 -0.0043567671)
(0.19438093 -0.0049993537 -0.0050643575)
(0.19401009 -0.0084186391 -0.0050600202)
(0.19411622 -0.011939101 -0.0044578172)
(0.19398458 -0.015415407 -0.0040791771)
(0.19291993 -0.018940568 -0.0046880983)
(0.19090773 -0.022416595 -0.0063759613)
(0.18813723 -0.02583624 -0.008741238)
(0.18487441 -0.02928295 -0.01132481)
(0.18152199 -0.032704464 -0.013789473)
(0.17846376 -0.035859591 -0.015908929)
(0.17590516 -0.038464914 -0.01750222)
(0.17390792 -0.040400779 -0.018344136)
(0.17256865 -0.041836522 -0.018142413)
(0.17242034 -0.043058522 -0.016811754)
(0.17497359 -0.043696729 -0.01556258)
(0.18221129 -0.039603764 -0.01813487)
(0.19244132 -0.022161128 -0.025725953)
(0.099867629 -0.003829422 0.00032028043)
(0.10035062 -0.0046728044 0.00053522143)
(0.10200366 -0.0048305346 0.00061438689)
(0.10439137 -0.0045641333 0.00059341517)
(0.10725873 -0.0040762532 0.00048580382)
(0.11048938 -0.003616282 0.0002737163)
(0.11396787 -0.0033219649 -7.5198766e-05)
(0.11759983 -0.0032549305 -0.00059999388)
(0.12133274 -0.0034833156 -0.0013472771)
(0.12514977 -0.0041108173 -0.0024007577)
(0.12907735 -0.0053421041 -0.0038356895)
(0.13322733 -0.0075185152 -0.0056831297)
(0.13785046 -0.011171472 -0.0078209377)
(0.14299055 -0.017150861 -0.0098276255)
(0.14833427 -0.023544439 -0.011349998)
(0.15298722 -0.028181658 -0.013138315)
(0.15558256 -0.031238826 -0.016510257)
(0.15592196 -0.033687649 -0.021494953)
(0.15470739 -0.035460684 -0.027281215)
(0.15230478 -0.036794822 -0.03300587)
(0.14888703 -0.038254565 -0.037942707)
(0.14477467 -0.040112757 -0.041650049)
(0.14026483 -0.042184715 -0.043907807)
(0.13545925 -0.044145057 -0.044506621)
(0.13036391 -0.045962222 -0.042993525)
(0.12498907 -0.048288344 -0.038727385)
(0.1208769 -0.052089634 -0.031587179)
(0.12322177 -0.057206311 -0.025330887)
(0.13993714 -0.055476084 -0.033403966)
(0.19067905 -0.035783689 -0.056661544)
(0.10001195 -0.002902618 0.00032470638)
(0.099928896 -0.0042125321 0.00054595277)
(0.099662064 -0.0046383628 0.00063902743)
(0.09935562 -0.0047680871 0.00063602122)
(0.099152212 -0.004794711 0.00054759382)
(0.09912176 -0.0047957876 0.00035523156)
(0.099256044 -0.0048369324 2.6865185e-05)
(0.099513617 -0.0049897159 -0.00048297271)
(0.09987887 -0.0053572072 -0.0012362791)
(0.10032923 -0.0060981201 -0.0023070134)
(0.10083516 -0.0075288369 -0.0038199211)
(0.10143164 -0.010223085 -0.0059089511)
(0.10230026 -0.015141207 -0.0085804085)
(0.1035661 -0.022927797 -0.011439748)
(0.10457723 -0.030427337 -0.013851723)
(0.10442785 -0.033349846 -0.01625345)
(0.10141906 -0.033146111 -0.020013462)
(0.097303055 -0.032895477 -0.023000023)
(0.093520649 -0.032447755 -0.025978918)
(0.089293683 -0.032505425 -0.029984371)
(0.083580695 -0.033747045 -0.033679093)
(0.076621057 -0.036052447 -0.035569719)
(0.069228357 -0.038803773 -0.035244377)
(0.062231007 -0.041417839 -0.032201439)
(0.056490302 -0.043953975 -0.025191399)
(0.052122201 -0.047542201 -0.013604847)
(0.051360362 -0.05327863 0.00059256875)
(0.057629736 -0.062472196 0.0075425517)
(0.068180318 -0.065686512 -0.020996759)
(0.09997431 -0.053043988 -0.072531397)
(0.098000113 -0.0015706784 0.0003163676)
(0.096493435 -0.0023314788 0.00052732179)
(0.094078287 -0.0025794933 0.00061168637)
(0.091201251 -0.0026447916 0.00060091387)
(0.088366291 -0.002630925 0.00050526267)
(0.085718753 -0.0025680497 0.00030651664)
(0.083234545 -0.0024927217 -2.91517e-05)
(0.08086229 -0.0024513082 -0.00055101941)
(0.078566186 -0.0025040053 -0.0013297544)
(0.076246752 -0.0027552585 -0.0024584459)
(0.073686501 -0.0034280449 -0.0041472388)
(0.070508751 -0.0050320071 -0.0067752053)
(0.065996895 -0.008756742 -0.011105725)
(0.058727801 -0.015945914 -0.018378771)
(0.046906136 -0.021841441 -0.028312736)
(0.033607348 -0.01878306 -0.03422243)
(0.023673133 -0.014063769 -0.027417611)
(0.028301509 -0.010984362 0.0059004046)
(0.028103819 -0.0013497722 0.042340282)
(0.02984255 0.0088734645 0.06688505)
(0.034019547 0.016156342 0.080934145)
(0.039122848 0.019597075 0.087806958)
(0.043323591 0.019779847 0.090272274)
(0.045429373 0.017115259 0.089394819)
(0.044765412 0.011803106 0.085395126)
(0.041712787 0.0037667092 0.078237715)
(0.036907878 -0.0070123744 0.068213529)
(0.032989712 -0.021812777 0.05167576)
(0.015764746 -0.027163 -0.011726259)
(0.025722635 -0.00060417284 -0.10455917)
(0.10548457 -0.0024258431 0.0001524859)
(0.11937619 -0.0025253249 0.00026799978)
(0.13189478 -0.0023722411 0.00032194175)
(0.14211858 -0.0019417922 0.00031476925)
(0.15109718 -0.0013038875 0.0002518744)
(0.15932179 -0.00063243371 0.00013397926)
(0.16684357 -2.2426947e-05 -3.8615645e-05)
(0.17367326 0.00050973789 -0.00027044642)
(0.17987463 0.00096986301 -0.00056743285)
(0.18553219 0.0013576991 -0.00092612591)
(0.19075859 0.0016476564 -0.001310029)
(0.19573017 0.0017592155 -0.0015949347)
(0.20020509 0.0015492015 -0.0014478955)
(0.20427889 0.00057481573 -0.00030730157)
(0.20932396 0.00047181477 0.0023350315)
(0.21508387 0.001507933 0.0061320071)
(0.22014547 0.0027469564 0.010481532)
(0.2238929 0.0035511214 0.015190165)
(0.22655275 0.0037317947 0.020347127)
(0.22835515 0.0032327158 0.026165339)
(0.22931378 0.0020687941 0.032801095)
(0.22941161 0.00028638069 0.040157041)
(0.22867464 -0.0020445066 0.04780353)
(0.22725408 -0.0047638431 0.05503567)
(0.22551544 -0.0074458822 0.061077)
(0.22387092 -0.0092148242 0.065235532)
(0.22220816 -0.0089780988 0.06682425)
(0.21916305 -0.005980612 0.064618464)
(0.20968696 0.003349593 0.054116527)
(0.1467466 0.033315967 0.030813782)
(0.099837406 -0.0038308963 0.00014916036)
(0.10021971 -0.004667608 0.00026795276)
(0.1017402 -0.0048040585 0.00031951742)
(0.10399902 -0.0044934706 0.00029856772)
(0.10673852 -0.0039256391 0.00020705983)
(0.109831 -0.0033333797 3.9559076e-05)
(0.11315643 -0.0028368491 -0.00022175776)
(0.11662054 -0.0024675717 -0.00060317209)
(0.12018286 -0.0022529594 -0.0011396266)
(0.12386895 -0.0022731846 -0.0018640889)
(0.12781532 -0.0027308027 -0.0027799766)
(0.13237243 -0.0040498477 -0.0037833298)
(0.13819877 -0.0068477189 -0.0044996169)
(0.14572074 -0.010912748 -0.0041645537)
(0.15443784 -0.011695548 -0.0026386561)
(0.16245434 -0.0089229649 -0.0012925284)
(0.16813469 -0.0059605891 -0.0011581023)
(0.17167012 -0.0045167325 -0.0023356379)
(0.17375539 -0.0046311888 -0.004493638)
(0.17476297 -0.0056673967 -0.0070188759)
(0.17489109 -0.0071466866 -0.0091560771)
(0.17418095 -0.0089287302 -0.01031177)
(0.1725457 -0.011127967 -0.010238992)
(0.16996226 -0.013904595 -0.0090296428)
(0.16687285 -0.017001558 -0.0070606941)
(0.16457553 -0.019035935 -0.0056946607)
(0.16563502 -0.016787894 -0.0075213454)
(0.17120783 -0.0072568629 -0.014825649)
(0.18155469 0.013955041 -0.028512356)
(0.18009196 0.053290485 -0.047372777)
(0.09998284 -0.0029001213 0.00014965892)
(0.099801827 -0.0042070487 0.00026863075)
(0.099399387 -0.0046239071 0.00032235956)
(0.09895083 -0.0047355391 0.0003024454)
(0.098595271 -0.0047314806 0.00020675895)
(0.098387361 -0.0046807005 2.4419685e-05)
(0.09830664 -0.0046382183 -0.00026969519)
(0.098299277 -0.0046599933 -0.00071259643)
(0.098312051 -0.0048338747 -0.00135788)
(0.098302895 -0.0053399605 -0.002289605)
(0.098282774 -0.0065782317 -0.003585896)
(0.098470021 -0.0094022733 -0.0052607444)
(0.099525783 -0.015278153 -0.0070130947)
(0.10169157 -0.023204247 -0.0077615154)
(0.10478114 -0.024737597 -0.0062777881)
(0.10798042 -0.019692312 -0.0038576374)
(0.10553748 -0.014772849 -0.0035679625)
(0.099860679 -0.012013204 -0.0058241643)
(0.093199723 -0.012256516 -0.009635107)
(0.086779072 -0.014683173 -0.013626245)
(0.080209102 -0.018113085 -0.016267196)
(0.073085139 -0.021616223 -0.016526969)
(0.065591343 -0.024678906 -0.014798042)
(0.05785872 -0.027493977 -0.011692558)
(0.050434472 -0.030822495 -0.0080893886)
(0.046109396 -0.033878832 -0.0093629704)
(0.051698963 -0.029964352 -0.021987973)
(0.069432323 -0.016619561 -0.039427494)
(0.091220215 0.0093122079 -0.06110818)
(0.094948393 0.046178855 -0.085433215)
(0.097971572 -0.001572411 0.00014545721)
(0.096369502 -0.0023353807 0.00025862816)
(0.093821392 -0.0025831551 0.00030636766)
(0.090802195 -0.002644573 0.00027993806)
(0.087812172 -0.0026221995 0.0001764033)
(0.084976865 -0.0025430855 -1.7546275e-05)
(0.082251087 -0.0024418766 -0.00033192477)
(0.079552134 -0.0023629017 -0.00081545283)
(0.07676197 -0.0023708084 -0.0015499284)
(0.073665964 -0.0025957258 -0.0026900958)
(0.069847153 -0.003360033 -0.0044845197)
(0.06444289 -0.0055427316 -0.0074125523)
(0.055988911 -0.011398956 -0.012504191)
(0.040990287 -0.020585819 -0.02139203)
(0.017180387 -0.017140301 -0.031423516)
(-0.0053407661 -0.00082312574 -0.028645066)
(-0.021955566 0.0027702031 -0.018138792)
(-0.030146395 0.0011924435 -0.0034286818)
(-0.024423099 -0.00075746726 0.019575023)
(-0.019330507 0.0011068022 0.038449411)
(-0.013048416 0.0029454943 0.050052836)
(-0.0078767872 0.0034250744 0.056278722)
(-0.0051379947 0.0023670998 0.059314215)
(-0.0059319399 -0.0010072887 0.059175437)
(-0.011434024 -0.008103731 0.051030025)
(-0.021543161 -0.016981308 0.026446544)
(-0.033178796 -0.017881735 -0.014719032)
(-0.033281289 0.0026816625 -0.052546716)
(-0.0069620144 0.031763185 -0.081386661)
(0.027905133 0.061746869 -0.10454657)
(0.10546737 -0.0024301738 4.2108806e-06)
(0.11931424 -0.0025331004 -1.9524531e-06)
(0.13177588 -0.0023824919 -2.7841161e-05)
(0.14194387 -0.0019529789 -7.5458192e-05)
(0.15087219 -0.0013136865 -0.00014421952)
(0.15904682 -0.00063662879 -0.00023497032)
(0.16651018 -2.0750367e-05 -0.00035314958)
(0.17326144 0.00051133388 -0.00050590969)
(0.17935595 0.00095876984 -0.00070698976)
(0.18488446 0.0013061406 -0.00097036549)
(0.18999516 0.0014949473 -0.0013045588)
(0.19499627 0.0013956323 -0.0016978574)
(0.19989602 0.0009141544 -0.0020830824)
(0.20510004 0.00015108789 -0.00234303)
(0.21165795 0.00082488969 -0.002336757)
(0.2186592 0.0021554925 -0.0022097703)
(0.22482842 0.0036243101 -0.0022266047)
(0.23027241 0.0054482542 -0.0024440075)
(0.23566909 0.0078453649 -0.002789292)
(0.2413688 0.010933006 -0.0031197858)
(0.24727811 0.01471204 -0.0031132437)
(0.25295295 0.019043882 -0.0022743008)
(0.257719 0.023700862 -0.00010838875)
(0.26081223 0.028400061 0.0035360692)
(0.26143872 0.032931034 0.0083155614)
(0.25852402 0.037329695 0.01343264)
(0.25013049 0.042098733 0.017822926)
(0.23290025 0.048211707 0.020194522)
(0.20337225 0.057825049 0.018005627)
(0.10064125 0.079935607 0.0090008588)
(0.099817724 -0.0038360514 -1.4166567e-06)
(0.10014164 -0.0046767098 -1.5187941e-05)
(0.10158186 -0.0048149521 -5.2708033e-05)
(0.10375655 -0.0045030202 -0.00011731356)
(0.10641427 -0.003929436 -0.00020933693)
(0.10941507 -0.0033261262 -0.00033043277)
(0.11262194 -0.0028177908 -0.00049028993)
(0.11593096 -0.0024450239 -0.00070290501)
(0.11929793 -0.0022504138 -0.0009879747)
(0.12276592 -0.0023545177 -0.0013673185)
(0.12655414 -0.0030539609 -0.0018601446)
(0.13125288 -0.0049340309 -0.0024583905)
(0.13790061 -0.0084634953 -0.0030711496)
(0.14693206 -0.010780254 -0.0033341575)
(0.15698761 -0.0076274707 -0.0029476798)
(0.16511749 -0.0033532712 -0.0028259458)
(0.17197713 0.00016202269 -0.0032474165)
(0.17889179 0.0031916238 -0.0040980181)
(0.18604198 0.0064791974 -0.0052852141)
(0.19404593 0.0107964 -0.0067371893)
(0.20307142 0.016809186 -0.0080905341)
(0.21292112 0.024745094 -0.0086573)
(0.223086 0.034262559 -0.0077887578)
(0.23275526 0.044942711 -0.0053298975)
(0.24071161 0.056572118 -0.0018532873)
(0.24504677 0.069146608 0.001576875)
(0.24266597 0.082749215 0.0040765113)
(0.22888083 0.097502182 0.004968765)
(0.20157904 0.11388654 0.0023012738)
(0.10336655 0.13921429 -0.0071661394)
(0.099962891 -0.0029014893 -2.5259794e-06)
(0.099722623 -0.0042105423 -1.7563558e-05)
(0.099235074 -0.0046283327 -5.7108784e-05)
(0.0986915 -0.0047388063 -0.00012582512)
(0.098234882 -0.0047305317 -0.00022574409)
(0.097904551 -0.0046750254 -0.00036122914)
(0.097656313 -0.004628083 -0.00054585852)
(0.097412592 -0.0046528357 -0.0008009582)
(0.097089688 -0.0048579168 -0.00115949)
(0.096615331 -0.0054840414 -0.0016674666)
(0.096019897 -0.0070924473 -0.0023991159)
(0.095805782 -0.010930271 -0.003456939)
(0.097070027 -0.01890523 -0.0049872919)
(0.09950394 -0.024511442 -0.0066062045)
(0.10659274 -0.018581925 -0.0052294713)
(0.1075748 -0.012145055 -0.0047226387)
(0.10589053 -0.0064878695 -0.005469004)
(0.10291048 -0.0013593129 -0.0071434773)
(0.10160958 0.0023904503 -0.009703864)
(0.10299494 0.004569874 -0.01283938)
(0.10717109 0.0062694958 -0.015309945)
(0.11578219 0.0093191401 -0.016428687)
(0.12815233 0.015171999 -0.015397379)
(0.14189934 0.024187741 -0.011581795)
(0.15699374 0.036709619 -0.0061711504)
(0.17088044 0.052035698 -0.00083590856)
(0.17847121 0.068759048 0.0026398278)
(0.17383367 0.0877861 0.0030700101)
(0.15695462 0.11136955 -0.00033939862)
(0.073753021 0.14670632 -0.008762047)
(0.097951689 -0.0015727418 -3.0159104e-06)
(0.0962905 -0.002336181 -1.8776916e-05)
(0.093656489 -0.0025839017 -5.9361406e-05)
(0.090539542 -0.0026445615 -0.00012986033)
(0.087440916 -0.0026202683 -0.00023284247)
(0.084467518 -0.0025396734 -0.0003748353)
(0.081541872 -0.0024375534 -0.00057237677)
(0.078537175 -0.0023628079 -0.00085391154)
(0.075259346 -0.0023944471 -0.0012666006)
(0.071348527 -0.0027088706 -0.0018952895)
(0.066075613 -0.0037798389 -0.0029115817)
(0.057861906 -0.0070292922 -0.0047138109)
(0.044452248 -0.016011148 -0.008463864)
(0.016471664 -0.02210954 -0.017461761)
(-0.02531785 0.0017315332 -0.021612527)
(-0.041609559 0.0051380425 -0.013520469)
(-0.058493695 0.0051137653 -0.0064829139)
(-0.06684395 0.0024812327 0.0015161494)
(-0.067782458 -0.0018585717 0.010889806)
(-0.063360102 -0.005823967 0.020854825)
(-0.054730661 -0.0088365189 0.028597475)
(-0.044728231 -0.010661896 0.034167304)
(-0.032466547 -0.010052168 0.037664375)
(-0.018248877 -0.0064769621 0.038580789)
(-0.00029641714 0.0014309042 0.03393921)
(0.019481255 0.017458724 0.023645138)
(0.037911398 0.03979737 0.019373448)
(0.03971574 0.061669457 0.015470836)
(0.042284188 0.091074929 0.0063899586)
(0.032814546 0.13199751 -0.0049667456)
(0.10546746 -0.0024303918 -0.00010163923)
(0.11931276 -0.0025334568 -0.00018858039)
(0.13176956 -0.0023828936 -0.00025462028)
(0.14192954 -0.0019532277 -0.00030222447)
(0.15084574 -0.0013136001 -0.00033627608)
(0.15900293 -0.00063723086 -0.00036137097)
(0.16644388 -2.2415837e-05 -0.00037981692)
(0.17316552 0.00050791709 -0.00039240301)
(0.17921971 0.00095417162 -0.00039897164)
(0.1846933 0.0013063569 -0.00040782978)
(0.18971999 0.0015162337 -0.00044419567)
(0.19454634 0.0014689416 -0.00057936635)
(0.19901302 0.001016594 -0.0010125468)
(0.20337584 -4.5327373e-05 -0.0020576529)
(0.20905534 0.00039413172 -0.0037495839)
(0.21508917 0.0016501712 -0.0056498681)
(0.22010306 0.0028603602 -0.0075404874)
(0.22369608 0.0039589016 -0.0097172148)
(0.2265516 0.0050169846 -0.012647607)
(0.22940708 0.0057666307 -0.016664845)
(0.23290855 0.0060622419 -0.021840767)
(0.23736953 0.0062112882 -0.027985814)
(0.24236742 0.0067228442 -0.034735945)
(0.24689919 0.0078639815 -0.041628986)
(0.24993383 0.009471243 -0.04806759)
(0.25045474 0.011491929 -0.053118247)
(0.24688502 0.014756301 -0.055242121)
(0.23627043 0.021013788 -0.052372059)
(0.21467524 0.033539937 -0.042208502)
(0.1260292 0.063777703 -0.023242657)
(0.099816596 -0.0038366065 -0.00010521183)
(0.10013661 -0.0046776958 -0.00020206312)
(0.10156997 -0.0048163243 -0.00027770105)
(0.10373441 -0.0045046552 -0.00033108241)
(0.1063755 -0.00393135 -0.00036477666)
(0.10935362 -0.0033291513 -0.00038118541)
(0.11253289 -0.0028221201 -0.00037733131)
(0.1158048 -0.0024503265 -0.00034915145)
(0.11911818 -0.0022530141 -0.0002944443)
(0.1224981 -0.0023370764 -0.00021904646)
(0.12611829 -0.0029801966 -0.00015395691)
(0.13047928 -0.0047552871 -0.00021207909)
(0.13660941 -0.0084096923 -0.00068748421)
(0.14471951 -0.012188604 -0.0020042375)
(0.15423729 -0.009686622 -0.0037620033)
(0.16170726 -0.0054566826 -0.0045828303)
(0.16683068 -0.0023353947 -0.0045149479)
(0.17077031 -0.00081601762 -0.0042064287)
(0.17403981 -0.00078442735 -0.0041286253)
(0.17613255 -0.0017930371 -0.0043626997)
(0.17709345 -0.0032297046 -0.0046552087)
(0.17772102 -0.0041709146 -0.0047394094)
(0.17944477 -0.0035326463 -0.0047640054)
(0.18358902 -0.00081087322 -0.0053726539)
(0.19058763 0.0043798977 -0.0071602102)
(0.19914299 0.012419509 -0.0095922812)
(0.20492346 0.023189624 -0.0099207422)
(0.20484921 0.038043836 -0.0052798518)
(0.19888767 0.06158995 0.0067677154)
(0.15672447 0.10109672 0.025640339)
(0.099961707 -0.0029020306 -0.00010557218)
(0.099717174 -0.0042115284 -0.00020219256)
(0.099221839 -0.0046298555 -0.00027904902)
(0.098666322 -0.0047410051 -0.00033414844)
(0.098190807 -0.004733874 -0.00036840837)
(0.097834619 -0.0046788971 -0.00038146033)
(0.097554535 -0.0046320562 -0.00036673348)
(0.097268426 -0.0046550977 -0.000314029)
(0.096888707 -0.0048509745 -0.0002101504)
(0.096317023 -0.0054470734 -4.2606122e-05)
(0.09550417 -0.0069761176 0.00019855807)
(0.094760929 -0.010654258 0.00045603589)
(0.095516743 -0.018771331 0.00048565492)
(0.095699531 -0.02774176 -0.00018505409)
(0.10081801 -0.02191885 -0.0033771566)
(0.10020678 -0.014883077 -0.0039393716)
(0.096461559 -0.0086818191 -0.0026354736)
(0.09011761 -0.0037117877 -0.00070899783)
(0.081675461 -0.0016554637 0.0012816239)
(0.070534566 -0.0037373139 0.0038911858)
(0.057243368 -0.0091730337 0.0077145993)
(0.043613879 -0.01556414 0.013136842)
(0.034369831 -0.019981113 0.019896495)
(0.036782733 -0.020782409 0.025796625)
(0.048109413 -0.017470285 0.030615712)
(0.067965214 -0.008881931 0.034249162)
(0.096961098 0.004818024 0.036761292)
(0.11452789 0.025479367 0.043849602)
(0.12592374 0.055124159 0.056374626)
(0.11402569 0.096926547 0.070728704)
(0.097950576 -0.0015730156 -0.00010291327)
(0.096285102 -0.0023367004 -0.0001958082)
(0.093642977 -0.0025847119 -0.00026861408)
(0.09051318 -0.0026457018 -0.00031919453)
(0.087394777 -0.0026219859 -0.000348029)
(0.084394706 -0.0025415269 -0.00035302505)
(0.081437091 -0.0024392078 -0.00032477387)
(0.078395534 -0.0023627368 -0.00024599549)
(0.075077328 -0.002385174 -8.7118691e-05)
(0.071112525 -0.002670427 0.00021276757)
(0.065738712 -0.0036408264 0.00078878232)
(0.057300072 -0.0065533084 0.0019481809)
(0.043764169 -0.014978434 0.004525523)
(0.014242165 -0.025771741 0.010163527)
(-0.038420378 7.9981933e-05 0.013323764)
(-0.057711094 0.005359553 0.013265104)
(-0.075931221 0.0061268606 0.015515145)
(-0.085948973 0.0038912593 0.01653257)
(-0.088314717 -0.00074621829 0.016802878)
(-0.082289282 -0.006187033 0.016228972)
(-0.070931817 -0.010765306 0.015363394)
(-0.059281393 -0.014299139 0.016589654)
(-0.048653757 -0.017232496 0.019624485)
(-0.039384486 -0.019463903 0.023617374)
(-0.031172187 -0.019477979 0.028600166)
(-0.024245869 -0.014578694 0.037910331)
(-0.013553353 -0.0018941734 0.051996351)
(0.0031923846 0.025930614 0.07087325)
(0.02085337 0.055609835 0.089045362)
(0.062537118 0.090322965 0.10142902)
(0.10548356 -0.0024274634 -0.00023902147)
(0.11936758 -0.0025283469 -0.00043718475)
(0.1318678 -0.0023768765 -0.00057209507)
(0.14206304 -0.0019483484 -0.00064782118)
(0.1510035 -0.0013127854 -0.00067336374)
(0.15917742 -0.00064302455 -0.00065276945)
(0.16663244 -3.5381872e-05 -0.00058694718)
(0.17337268 0.00049053555 -0.00049179487)
(0.17944595 0.00093673068 -0.00037022172)
(0.18491967 0.0013025742 -0.00023215577)
(0.18988891 0.0015672224 -0.00012267461)