/*--------------------------------*- C++ -*----------------------------------*\
| =========                 |                                                 |
| \\      /  F ield         | OpenFOAM: The Open Source CFD Toolbox           |
|  \\    /   O peration     | Version:  v2012                                 |
|   \\  /    A nd           | Website:  www.openfoam.com                      |
|    \\/     M anipulation  |                                                 |
\*---------------------------------------------------------------------------*/
FoamFile
{
    version     2.0;
    format      ascii;
    class       volScalarField;
    location    "30";
    object      p;
}
// * * * * * * * * * * * * * * * * * * * * * * * * * * * * * * * * * * * * * //

dimensions      [0 2 -2 0 0 0 0];


internalField   nonuniform List<scalar> 
64000
(
4.21779e-22
-3.37315e-21
-2.63212e-21
-4.73254e-21
-8.39145e-21
-2.87046e-21
-4.44731e-21
-3.98733e-21
-5.19649e-21
-4.14502e-21
-4.98998e-21
-6.30086e-21
-4.20242e-21
-6.37506e-21
-3.81855e-21
-5.09034e-21
-9.63996e-22
-6.64169e-22
-1.48827e-21
-1.39024e-21
-1.54232e-21
-2.37691e-21
-2.16637e-21
1.91965e-22
-5.35535e-21
-1.81416e-21
1.35481e-22
-3.96252e-21
-3.21651e-21
-1.31883e-21
-5.30122e-22
-4.40219e-22
-1.24784e-21
-1.34914e-21
-1.72943e-21
-5.41385e-21
-8.72295e-22
1.6268e-22
-2.35299e-22
-5.11682e-22
-5.96669e-21
-9.95886e-21
-1.00022e-20
-7.62812e-21
-1.044e-20
-1.17803e-20
-8.74288e-21
-4.53678e-21
-3.83651e-21
-9.12303e-21
-1.01185e-20
-1.0416e-20
-4.86645e-21
-4.94689e-21
-6.10333e-21
-5.6752e-21
-3.55584e-21
2.07893e-21
-2.69569e-21
-2.29991e-21
1.33183e-21
-3.48894e-21
-5.04511e-21
-7.55611e-21
-6.04906e-21
-3.00081e-21
-3.40162e-21
-5.3863e-21
-3.57227e-21
-1.1469e-21
2.30652e-21
7.34406e-22
-3.61668e-21
-3.08134e-21
-2.22233e-21
-2.435e-21
-1.35342e-21
5.1292e-22
6.08176e-22
-6.05836e-22
-5.00327e-21
-8.26125e-21
-1.24944e-20
-1.02671e-20
-8.93619e-21
-1.16296e-20
-1.02196e-20
-8.48359e-21
-9.22288e-21
-9.73503e-21
-7.31106e-21
-8.47889e-21
-7.73815e-21
-4.67263e-21
-3.61472e-21
-1.41141e-21
-8.33733e-21
-2.88079e-21
-6.64361e-24
-4.69809e-22
-2.5953e-21
-5.59619e-21
-5.59231e-21
-5.63186e-21
-3.96074e-21
-4.93739e-21
-5.56889e-21
-5.36513e-21
-1.52207e-21
-1.82089e-21
-9.38114e-22
-3.65461e-23
-3.54537e-21
-6.21438e-23
-1.56703e-21
-4.91269e-21
1.91093e-21
2.04971e-21
3.61013e-22
3.87732e-22
-8.86463e-21
-8.89686e-21
-1.01409e-20
-1.37692e-20
-1.20496e-20
-1.32244e-20
-1.10507e-20
-7.70458e-21
-9.89858e-21
-1.00445e-20
-8.11819e-21
-9.81402e-21
-9.03427e-21
-4.47736e-21
-4.85531e-21
-3.56373e-21
-5.00139e-21
-4.02458e-21
1.25552e-21
-1.56506e-21
-4.98157e-21
-8.08867e-21
-6.62845e-21
-6.76053e-21
-6.66446e-21
-4.17699e-21
-4.31845e-21
-2.81441e-21
-2.56929e-21
-2.2163e-21
2.94705e-22
-1.2535e-21
-1.23636e-21
-4.97028e-22
-1.3382e-21
-2.12978e-21
-5.05891e-22
-5.10895e-22
-5.49439e-22
-1.43158e-23
-1.56706e-20
-1.00386e-20
-1.04258e-20
-1.15411e-20
-1.22628e-20
-1.42704e-20
-1.08565e-20
-5.18668e-21
-8.7358e-21
-1.17422e-20
-9.11846e-21
-9.12335e-21
-7.39704e-21
-3.39756e-21
-9.0977e-21
-1.20757e-20
-4.69168e-21
-2.42998e-21
-1.64705e-21
-3.19652e-21
-3.30369e-21
-7.79709e-21
-9.02122e-21
-7.00193e-21
-5.40989e-21
-4.5664e-21
-2.88453e-21
-3.11277e-21
-4.95783e-21
-3.75385e-22
1.06747e-21
1.9432e-21
9.91503e-22
2.76386e-22
-3.43527e-21
-2.39076e-21
-1.42311e-21
-1.30486e-21
8.22319e-22
-1.20897e-21
-1.18145e-20
-1.14801e-20
-9.65295e-21
-1.29348e-20
-1.24499e-20
-1.14909e-20
-8.55292e-21
-1.18324e-20
-1.17067e-20
-1.08602e-20
-8.38206e-21
-9.4033e-21
-8.69799e-21
-3.95417e-21
-7.81376e-21
-1.02967e-20
-5.18336e-21
-1.84966e-21
-1.6842e-21
-4.96082e-21
-9.22507e-22
-6.68761e-21
-1.09202e-20
-7.60476e-21
-5.69156e-21
-4.81156e-21
-4.95182e-21
-1.35943e-21
-2.10135e-21
-2.60304e-21
-1.7107e-21
-9.49343e-22
9.65753e-23
1.05313e-21
-9.34864e-22
-1.07845e-21
-2.4612e-21
-2.32973e-21
-2.42847e-22
9.04605e-22
-1.23934e-20
-1.42612e-20
-8.67751e-21
-1.06114e-20
-1.15733e-20
-1.17171e-20
-8.98095e-21
-1.12222e-20
-1.24901e-20
-1.06612e-20
-8.83736e-21
-1.08539e-20
-7.72231e-21
-6.75804e-21
-7.60987e-21
-8.34724e-21
-5.29825e-21
-4.00318e-22
-1.89001e-22
-3.94229e-21
-5.07828e-21
-8.40986e-21
-1.26994e-20
-1.12775e-20
-3.3528e-21
-4.6193e-21
-3.96333e-21
-1.8114e-21
-8.78213e-22
-4.52443e-22
-3.42433e-21
-2.91923e-21
5.85441e-22
6.89524e-22
-6.54223e-23
-3.0283e-21
-2.25408e-21
-1.40578e-21
-1.03169e-21
-5.66234e-22
-1.35252e-20
-1.24551e-20
-1.08127e-20
-9.73816e-21
-1.16259e-20
-9.65955e-21
-8.9392e-21
-1.67741e-20
-1.42566e-20
-1.10342e-20
-9.0303e-21
-8.57225e-21
-8.10064e-21
-8.76308e-21
-6.78937e-21
-8.84733e-21
-4.29347e-21
-2.01529e-21
-3.22857e-21
-4.17226e-21
-5.24631e-21
-7.37161e-21
-8.28144e-21
-9.44795e-21
-5.89279e-21
-5.51536e-21
-3.34949e-21
-6.52594e-22
-1.14125e-21
-3.01597e-21
-2.8887e-21
-2.30782e-21
1.0852e-21
-8.99344e-22
-3.682e-21
-5.89648e-21
-1.61964e-21
-4.82965e-23
-1.06012e-22
-8.51244e-22
-1.89133e-20
-1.44082e-20
-1.09363e-20
-1.11591e-20
-1.22746e-20
-1.33952e-20
-1.20093e-20
-1.21815e-20
-1.39346e-20
-1.33949e-20
-7.31681e-21
-8.5612e-21
-6.48377e-21
-9.65435e-21
-9.89353e-21
-9.18366e-21
-4.3882e-21
1.4798e-21
-6.31467e-21
-7.16356e-21
-2.33028e-21
-6.68651e-21
-8.34662e-21
-1.0838e-20
-3.63474e-21
-3.95315e-21
-5.833e-21
-3.03023e-21
-3.28499e-23
-3.61453e-21
-2.04126e-21
-9.02177e-22
1.13141e-21
-1.02958e-21
-4.92073e-21
-2.92748e-21
-4.03237e-21
1.21361e-21
1.34894e-21
-9.8876e-22
-1.10357e-20
-1.33224e-20
-1.28416e-20
-1.09204e-20
-1.35466e-20
-1.4343e-20
-1.17415e-20
-1.13499e-20
-1.29511e-20
-1.32791e-20
-9.43201e-21
-8.74164e-21
-7.9455e-21
-1.02922e-20
-9.70586e-21
-6.59656e-21
-5.60933e-21
-2.99611e-21
-3.97656e-23
-2.95033e-21
-5.39154e-21
-4.8602e-21
-9.94647e-21
-9.65537e-21
-7.0504e-21
-2.68152e-21
-3.05089e-21
-4.67285e-22
-2.4774e-21
-2.38916e-21
-1.83691e-21
-2.91507e-22
-7.93223e-22
-8.53658e-22
-3.83593e-21
-4.38927e-21
-2.90635e-21
-4.82826e-22
3.70037e-22
-8.94074e-23
-1.03556e-20
-1.38732e-20
-1.29274e-20
-1.51114e-20
-1.1731e-20
-1.34872e-20
-1.63732e-20
-9.42509e-21
-1.40624e-20
-1.50999e-20
-9.59415e-21
-6.82275e-21
-6.822e-21
-1.02221e-20
-9.72576e-21
-9.22622e-21
-5.50045e-21
-1.95401e-21
1.76167e-21
-1.64607e-21
-8.09661e-21
-1.05158e-20
-8.46323e-21
-8.1969e-21
-7.24739e-21
-3.00473e-21
6.6071e-22
-6.36229e-22
-2.06466e-21
-2.82979e-21
-3.93456e-21
1.53503e-21
-3.58524e-21
-1.11036e-21
-1.75858e-21
-4.66311e-21
-2.19672e-21
-2.01037e-21
-1.36991e-22
6.89684e-22
-1.1217e-20
-1.44271e-20
-1.42993e-20
-1.31349e-20
-1.32144e-20
-1.63863e-20
-1.29408e-20
-1.27863e-20
-1.03158e-20
-1.2746e-20
-1.39667e-20
-1.05659e-20
-6.12225e-21
-1.00707e-20
-9.52412e-21
-1.22766e-20
-6.56844e-21
-3.75192e-22
-1.51357e-21
-2.16916e-21
-6.56376e-21
-1.0419e-20
-8.97667e-21
-8.93924e-21
-8.6524e-21
-1.21803e-21
-9.12781e-22
-1.51642e-21
-3.03753e-21
-1.48707e-21
-2.66262e-22
-5.60147e-22
-1.13886e-21
-1.18791e-21
4.04776e-22
-4.17178e-21
-2.76031e-21
-2.32886e-21
-2.91351e-22
-3.05881e-22
-1.65118e-20
-1.45411e-20
-1.37168e-20
-1.40324e-20
-1.54519e-20
-1.4935e-20
-1.45611e-20
-1.41605e-20
-1.44414e-20
-1.29428e-20
-1.1686e-20
-7.7266e-21
-8.17938e-21
-1.04869e-20
-9.32386e-21
-8.88706e-21
-5.49868e-21
-2.23913e-21
-1.79253e-21
-4.8555e-21
-6.63598e-21
-7.17506e-21
-7.80264e-21
-7.94778e-21
-5.46047e-21
-1.62956e-21
-9.23046e-22
-3.06419e-21
-2.4964e-21
-1.24967e-21
-4.14979e-21
-1.41092e-21
1.42793e-21
-4.27853e-21
-4.26552e-21
-2.16919e-21
-1.5601e-21
-2.8317e-21
-1.04716e-21
-1.26412e-21
-1.90547e-20
-1.82881e-20
-1.47453e-20
-1.61188e-20
-1.2855e-20
-1.30713e-20
-1.52018e-20
-1.23942e-20
-1.12203e-20
-1.49723e-20
-1.1137e-20
-8.67977e-21
-1.03032e-20
-1.34748e-20
-1.02321e-20
-8.2712e-21
-4.91367e-21
-7.39859e-22
-2.55476e-21
-4.51226e-21
-7.63527e-21
-8.84024e-21
-1.01928e-20
-9.35935e-21
-2.96588e-21
-7.35437e-22
1.41561e-21
-2.59196e-21
-4.62098e-21
7.11369e-22
-1.72348e-21
-3.85817e-21
-1.27972e-21
-2.11947e-21
-3.7302e-21
-2.48169e-21
-1.80444e-21
-2.77569e-21
3.87266e-22
-2.06721e-21
-1.2469e-20
-1.95418e-20
-1.84437e-20
-1.45747e-20
-1.16458e-20
-1.42508e-20
-1.90049e-20
-1.83965e-20
-1.28119e-20
-1.01794e-20
-8.78154e-21
-1.22397e-20
-1.18214e-20
-1.20876e-20
-7.19554e-21
-8.31214e-21
-6.22803e-21
-4.35375e-21
-5.57521e-21
-1.75225e-21
-9.98158e-21
-6.18701e-21
-6.90719e-21
-1.08851e-20
-2.57235e-21
-2.15699e-21
-2.36061e-21
-2.86932e-21
-1.53207e-21
-6.55529e-22
-1.68799e-22
-1.48652e-21
-2.27744e-21
-1.77172e-21
-4.07421e-21
-3.15249e-21
-1.2448e-21
-2.63148e-21
-8.84726e-22
7.01914e-22
-1.39374e-20
-1.4707e-20
-1.81518e-20
-1.48982e-20
-1.55245e-20
-1.36167e-20
-1.73436e-20
-1.76947e-20
-1.19419e-20
-9.76057e-21
-1.36732e-20
-1.14181e-20
-9.55591e-21
-1.03878e-20
-1.08158e-20
-1.01149e-20
-6.10086e-21
-5.86401e-21
-3.3293e-21
-2.02982e-21
-1.04116e-20
-8.22414e-21
-6.00856e-21
-5.60841e-21
-2.39064e-21
-4.464e-21
-5.57952e-21
-2.13242e-21
-7.01475e-22
-5.18277e-22
-1.22538e-21
-1.30318e-21
-1.72974e-21
-2.9575e-21
-6.11646e-21
-4.50492e-21
-9.09698e-22
5.85863e-22
-2.47336e-22
4.98937e-23
-1.51309e-20
-1.37422e-20
-1.67044e-20
-1.24329e-20
-1.26334e-20
-1.48255e-20
-1.84245e-20
-1.85477e-20
-1.13553e-20
-1.34176e-20
-1.44337e-20
-1.23603e-20
-5.88546e-21
-9.71778e-21
-9.98439e-21
-9.21635e-21
-8.62435e-21
-5.77793e-21
-5.54369e-21
-4.44369e-21
-8.75508e-21
-6.2342e-21
-5.24935e-21
-3.37204e-21
-2.72331e-21
-3.23904e-21
-4.36058e-21
-4.62485e-21
-6.44916e-22
-2.58882e-21
9.21184e-22
-3.7784e-21
-2.5748e-21
-1.60806e-21
-2.35099e-21
-3.35746e-21
-2.55932e-21
-9.1605e-22
7.97662e-22
-7.60049e-22
-1.14817e-20
-1.49423e-20
-1.95493e-20
-1.23353e-20
-9.64546e-21
-1.43555e-20
-1.80112e-20
-1.64804e-20
-1.41976e-20
-1.47373e-20
-1.3332e-20
-1.18116e-20
-7.53465e-21
-7.52341e-21
-1.02075e-20
-1.23726e-20
-9.3085e-21
-5.69264e-22
-4.69455e-21
-6.75506e-21
-1.24114e-20
-6.78695e-21
-2.32825e-21
-2.55559e-21
2.87791e-22
-5.33403e-21
-4.1239e-21
-2.22485e-21
-2.55012e-21
-1.69866e-21
-1.43077e-21
-1.00379e-21
-1.33623e-21
-8.30364e-22
-4.02384e-22
-2.54635e-21
-2.10967e-21
-3.35566e-21
3.75876e-22
3.80388e-22
-9.87124e-21
-1.13185e-20
-1.48574e-20
-1.4382e-20
-1.32326e-20
-1.39979e-20
-1.53112e-20
-1.44811e-20
-1.44404e-20
-1.53648e-20
-1.16934e-20
-1.18316e-20
-9.26482e-21
-6.61698e-21
-1.11031e-20
-1.03054e-20
-9.87211e-21
-7.08704e-21
-1.03163e-20
-6.94256e-21
-8.60466e-21
-6.97287e-22
-2.90874e-21
-2.88876e-21
-5.82227e-22
-2.01482e-21
-3.19756e-21
-8.61478e-22
-1.31468e-21
-1.6094e-21
-5.20005e-21
-6.40279e-22
-6.94098e-22
-1.09088e-21
5.14022e-23
-7.56721e-22
-1.52043e-21
-1.38584e-21
-2.97069e-21
-2.11879e-21
-9.43826e-21
-1.08019e-20
-1.72394e-20
-1.56469e-20
-1.32885e-20
-1.20517e-20
-1.19322e-20
-1.75679e-20
-1.52524e-20
-1.49951e-20
-1.07216e-20
-1.05258e-20
-1.05528e-20
-9.28783e-21
-1.15396e-20
-1.01305e-20
-6.56045e-21
-4.71147e-21
-1.12283e-20
-6.74872e-21
-7.41181e-21
-5.24564e-21
-2.90489e-21
-3.02966e-21
1.22708e-22
9.10069e-22
-7.08372e-21
-3.59324e-21
-7.25611e-22
-8.30791e-22
-2.58031e-21
-2.24027e-22
-1.83216e-21
-1.47958e-21
-1.00092e-21
-8.3406e-23
-2.3487e-21
-9.50054e-22
-2.20668e-21
-1.60637e-21
-1.11695e-20
-1.36172e-20
-1.55294e-20
-1.3611e-20
-1.06749e-20
-1.27115e-20
-1.22343e-20
-1.33149e-20
-1.46097e-20
-1.46932e-20
-1.54909e-20
-1.29524e-20
-9.84287e-21
-1.12433e-20
-1.1154e-20
-5.40992e-21
-7.96435e-21
-4.14032e-21
-7.12454e-21
-7.69041e-21
-6.7204e-21
-3.90105e-21
-2.98893e-21
-5.04946e-21
-4.36634e-21
-1.52236e-22
-2.75881e-21
-2.54804e-21
-2.29555e-21
-1.14334e-21
-1.3189e-21
-4.69181e-22
-4.36473e-21
4.97674e-22
-1.80909e-21
-1.44895e-21
-2.79503e-21
-6.76182e-22
4.44305e-22
-2.07396e-21
-1.6506e-20
-1.50835e-20
-1.36974e-20
-1.32448e-20
-1.29036e-20
-1.28417e-20
-1.31313e-20
-9.96175e-21
-1.35703e-20
-1.47008e-20
-1.49373e-20
-1.47175e-20
-1.28467e-20
-1.17339e-20
-9.48269e-21
-7.10492e-21
-5.19531e-21
-3.60096e-21
-8.71192e-21
-9.46129e-21
-6.10445e-21
-1.19812e-21
-4.39383e-21
-3.97325e-21
-1.65542e-21
-1.88205e-21
-4.54523e-21
-4.28464e-21
-3.57737e-21
-1.45892e-21
-1.04474e-21
1.13349e-21
-3.71382e-22
-1.42133e-21
-3.74487e-21
-6.61129e-21
-1.91471e-21
-1.37784e-21
2.3425e-21
1.10711e-21
-1.71501e-20
-1.86527e-20
-1.31712e-20
-1.30773e-20
-1.36703e-20
-1.5427e-20
-1.22862e-20
-1.0107e-20
-1.5459e-20
-1.28912e-20
-1.43473e-20
-1.32002e-20
-1.10022e-20
-7.81745e-21
-7.99199e-21
-7.87875e-21
-6.28575e-21
-1.77989e-21
-3.16685e-21
-1.06321e-20
-6.87092e-21
-5.3596e-21
-6.46764e-21
-4.56634e-21
-3.02568e-21
-3.05902e-21
-2.93465e-21
-3.17692e-21
-2.37406e-21
-1.70609e-21
-2.70782e-21
-4.19448e-22
7.75234e-22
-1.10893e-22
-5.36883e-21
-5.33974e-21
-2.44308e-21
-4.81077e-22
-7.24498e-24
5.44003e-22
-1.3367e-20
-1.47802e-20
-1.69976e-20
-1.25274e-20
-1.30556e-20
-1.45567e-20
-1.39587e-20
-1.43124e-20
-1.14357e-20
-1.2764e-20
-1.45593e-20
-1.34245e-20
-7.15221e-21
-1.01251e-20
-1.06825e-20
-6.60161e-21
-2.03517e-21
-2.90405e-21
-5.60051e-21
-6.68376e-21
-7.17233e-21
-6.6098e-21
-8.11955e-21
-5.64635e-21
-5.44351e-21
-1.28451e-21
-2.73666e-21
-4.49622e-21
9.43439e-23
-2.37971e-21
-3.56791e-21
-4.71559e-22
1.10806e-22
-3.07699e-21
-5.64763e-21
-4.41596e-21
-3.04825e-21
-1.72228e-21
-2.21769e-21
-1.28932e-21
-9.52774e-21
-1.39089e-20
-1.55158e-20
-1.4727e-20
-1.15349e-20
-1.46432e-20
-1.35145e-20
-1.35128e-20
-1.03635e-20
-1.41748e-20
-1.67677e-20
-1.28265e-20
-6.05849e-21
-7.61817e-21
-8.4262e-21
-4.80165e-21
-4.38844e-21
-8.16627e-21
-4.79106e-21
-2.81083e-21
-6.7477e-21
-6.51641e-21
-4.50039e-21
-4.36446e-21
-6.86338e-21
-6.15098e-21
-3.24646e-21
-2.2519e-21
-2.5629e-21
-2.58235e-21
-1.526e-21
-2.42102e-21
-3.76113e-21
3.68591e-22
-6.4038e-21
-4.15065e-21
-2.37309e-21
-1.82529e-21
-1.80085e-21
-1.12692e-21
-1.38747e-20
-1.63247e-20
-1.49277e-20
-1.24397e-20
-9.88164e-21
-1.3162e-20
-1.35915e-20
-1.63654e-20
-9.27552e-21
-1.19206e-20
-1.81954e-20
-1.35371e-20
-7.82145e-21
-9.19261e-21
-3.18407e-21
-4.82629e-21
-6.77564e-21
-3.76794e-21
-1.52475e-21
-4.94812e-21
-4.20014e-21
-4.48077e-21
-1.0425e-20
-9.12747e-21
-6.63175e-21
-7.70855e-21
-1.19085e-21
-4.64401e-21
-4.86429e-21
-3.2418e-22
-1.33728e-21
-2.08045e-21
-2.76711e-21
-1.89592e-21
-3.49553e-21
-3.94452e-21
-2.88039e-21
-2.25606e-21
-3.91398e-22
5.64597e-22
-7.61988e-21
-1.2567e-20
-1.46266e-20
-1.73131e-20
-1.24308e-20
-1.48791e-20
-1.26407e-20
-1.10858e-20
-1.11815e-20
-1.29244e-20
-1.69493e-20
-1.3325e-20
-8.03228e-21
-8.91325e-21
-4.91508e-21
-9.32054e-21
-6.23573e-21
-4.28692e-21
-1.42319e-22
-2.48007e-21
-1.90152e-21
-7.77653e-21
-7.85098e-21
-7.7574e-21
-8.68533e-21
-5.42994e-21
-5.25254e-22
-8.83808e-22
-5.77163e-21
-1.85877e-21
8.61711e-22
-1.8945e-21
-2.72675e-21
-3.2909e-21
-8.37113e-21
-2.13135e-21
-2.94245e-21
-3.93606e-21
-3.15761e-21
-2.2286e-21
-8.65448e-21
-1.32664e-20
-1.42589e-20
-1.52874e-20
-1.24166e-20
-1.31784e-20
-1.22578e-20
-1.28123e-20
-1.16659e-20
-1.229e-20
-1.52975e-20
-8.37865e-21
-8.66559e-21
-9.05316e-21
-8.17395e-21
-6.12492e-21
-6.62323e-21
-4.22359e-21
-3.25891e-21
-2.6382e-21
-3.51184e-21
-1.0339e-21
-5.8291e-21
-9.15044e-21
-8.81679e-21
-4.4313e-21
-1.76675e-21
-1.97473e-21
-3.86045e-21
-2.54859e-21
-1.46921e-21
-2.01004e-21
-4.28155e-21
-5.78281e-21
-5.50834e-21
-3.35694e-21
-3.5772e-21
-3.39201e-21
-3.04095e-21
-1.35526e-21
-1.19801e-20
-1.75922e-20
-1.43666e-20
-1.02263e-20
-1.7009e-20
-1.3962e-20
-1.19507e-20
-1.03131e-20
-1.13884e-20
-1.27257e-20
-1.30268e-20
-5.77976e-21
-8.70336e-21
-1.13185e-20
-7.60119e-21
-8.39757e-21
-8.36126e-21
-3.14688e-22
-1.8512e-21
-1.41903e-21
-5.94512e-21
-5.34383e-21
-5.50853e-21
-6.09164e-21
-7.0579e-21
-4.15682e-21
-2.04216e-21
-3.70914e-21
-1.48395e-21
-4.63652e-21
-1.62015e-21
-8.4691e-22
-3.55303e-21
-2.92381e-21
-5.71488e-21
-4.73497e-21
-4.12348e-21
-4.2335e-21
-1.50022e-21
-4.5997e-22
-1.05341e-20
-1.48632e-20
-1.66684e-20
-1.24276e-20
-1.1232e-20
-1.6572e-20
-1.26438e-20
-6.53013e-21
-9.78569e-21
-1.59114e-20
-1.10097e-20
-9.35716e-21
-7.12288e-21
-1.22517e-20
-9.96313e-21
-8.84323e-21
-5.42627e-21
-4.17164e-21
-8.59341e-22
1.60854e-21
-3.52641e-21
-7.62403e-21
-8.15823e-21
-6.78565e-21
-9.17776e-21
-6.21347e-21
-4.03792e-22
3.05376e-21
-2.31341e-21
-2.73997e-21
-1.97784e-21
-2.61409e-21
-4.81327e-21
-2.10028e-21
-4.14149e-21
-6.55271e-21
-3.53434e-21
9.9503e-22
-6.40714e-22
-1.07985e-21
-1.19202e-20
-1.238e-20
-1.29097e-20
-1.38559e-20
-1.35128e-20
-1.37591e-20
-1.23014e-20
-1.08385e-20
-8.76672e-21
-1.13256e-20
-9.66426e-21
-8.83451e-21
-8.97754e-21
-1.09254e-20
-9.33687e-21
-9.67461e-21
-5.4394e-21
-4.08079e-21
-1.6424e-21
-5.61539e-22
-2.08651e-21
-9.31641e-21
-9.52623e-21
-8.16077e-21
-6.29584e-21
-4.36539e-21
-6.62796e-22
-1.58568e-21
-3.03692e-21
-2.46622e-21
-1.69808e-21
-1.3847e-21
-2.32783e-22
-1.72509e-21
-2.89408e-21
-7.18402e-21
-3.14884e-21
-7.83598e-22
-7.97396e-22
-8.11686e-22
-1.53426e-20
-1.43113e-20
-1.12903e-20
-1.23282e-20
-1.541e-20
-1.46797e-20
-1.11504e-20
-9.55981e-21
-1.03566e-20
-8.97228e-21
-6.83513e-21
-1.01592e-20
-1.25502e-20
-1.33744e-20
-6.37753e-21
-7.63868e-21
-5.8263e-21
-2.63434e-21
8.06721e-22
-3.96498e-21
-1.91636e-21
-5.81626e-21
-1.34443e-20
-8.17413e-21
-7.17296e-21
-6.52343e-21
-7.32505e-24
1.25651e-21
-1.80624e-21
-3.71886e-21
-2.43282e-21
-3.1109e-21
2.4969e-21
-9.23105e-23
-4.67165e-21
-5.26784e-21
-2.22176e-21
9.64147e-22
-1.22743e-21
-1.72765e-21
-9.92452e-21
-1.06537e-20
-1.21758e-20
-1.01479e-20
-1.7614e-20
-1.54081e-20
-1.27386e-20
-1.08e-20
-9.0907e-21
-9.2816e-21
-9.46559e-21
-8.04688e-21
-1.15128e-20
-9.16776e-21
-5.34263e-21
-8.00102e-21
-7.98986e-21
-2.84204e-21
6.23744e-22
-3.04106e-21
-3.57853e-21
-5.25152e-21
-1.02933e-20
-8.15272e-21
-8.51048e-21
-6.71203e-21
1.526e-21
1.18917e-21
-1.7102e-21
-3.42145e-21
-1.85694e-21
-2.32828e-21
6.09553e-22
6.2141e-22
-3.16851e-21
-4.25392e-21
-2.309e-21
-5.75946e-22
-8.63059e-22
-5.54879e-22
-1.11603e-20
-1.15187e-20
-1.21257e-20
-1.34984e-20
-1.44785e-20
-1.06706e-20
-1.20993e-20
-8.87092e-21
-1.08514e-20
-7.03912e-21
-7.41647e-21
-1.27437e-20
-1.00038e-20
-7.47196e-21
-6.76927e-21
-8.23333e-21
-7.91376e-21
-3.64279e-21
-1.87192e-21
-2.89916e-21
-2.42193e-21
-4.81679e-21
-7.31603e-21
-7.55962e-21
-5.44097e-21
-4.68011e-21
-2.55752e-21
-1.8666e-21
-3.55396e-22
-2.36868e-21
-1.71423e-21
-5.93636e-22
-1.90332e-21
-1.48845e-21
-6.438e-22
-4.25286e-22
-1.70331e-21
1.38416e-21
-3.14645e-21
-2.97662e-21
-1.2013e-20
-1.00265e-20
-9.57642e-21
-9.55681e-21
-1.28833e-20
-1.44887e-20
-1.24048e-20
-1.29544e-20
-1.12999e-20
-7.76269e-21
-3.19354e-21
-1.09162e-20
-5.13426e-21
-5.86237e-21
-6.41141e-21
-8.52941e-21
-9.75493e-21
-3.22242e-21
1.1749e-21
-1.50838e-21
-5.77066e-21
-8.12138e-21
-5.03483e-21
-5.20097e-21
-4.90772e-21
-2.86014e-21
-5.84198e-21
-6.79968e-21
-1.31152e-21
-1.18947e-21
-2.34539e-21
-2.84762e-21
-4.03416e-21
-2.39954e-21
-1.7442e-22
2.96057e-21
-1.02685e-21
6.40782e-22
-3.31366e-22
-5.77714e-22
-7.98714e-21
-9.95823e-21
-1.06058e-20
-8.57276e-21
-7.80255e-21
-1.68363e-20
-1.14859e-20
-1.20628e-20
-1.15974e-20
-1.05366e-20
-8.5732e-21
-5.73602e-21
-7.26123e-21
-6.24854e-21
-6.66998e-21
-5.11067e-21
-8.25503e-21
-5.62667e-21
-2.6562e-21
-2.56038e-21
-3.55285e-21
-4.50165e-21
-5.20236e-21
-8.68684e-21
-5.12895e-21
-2.00158e-21
-1.84367e-21
-1.27065e-21
-3.48904e-21
-1.93372e-21
-4.6931e-21
-3.23596e-21
-6.51406e-22
-3.75786e-21
-3.83236e-21
1.06141e-21
8.10355e-22
1.27582e-21
5.53891e-22
-8.43846e-22
-6.62729e-21
-9.15564e-21
-1.08763e-20
-9.19018e-21
-7.35071e-21
-1.34328e-20
-1.27474e-20
-9.94859e-21
-9.80674e-21
-9.04966e-21
-8.47939e-21
-6.33479e-21
-7.69955e-21
-6.14847e-21
-7.10319e-21
-6.95919e-21
-5.13338e-21
-1.60805e-21
-8.96053e-23
-4.55822e-21
-4.04928e-21
-6.78491e-21
-5.20295e-21
-6.85803e-21
-5.89057e-21
-5.1309e-21
-3.21282e-21
-1.36929e-21
-1.14006e-21
-1.82492e-21
-5.95347e-21
-3.41824e-21
-3.96798e-21
-3.48334e-21
-1.43301e-21
8.7521e-22
1.31295e-21
-9.00607e-22
-1.06886e-21
6.21339e-23
-4.85316e-21
-8.18777e-21
-1.15984e-20
-6.91628e-21
-6.89583e-21
-1.0918e-20
-1.01915e-20
-8.56079e-21
-9.15535e-21
-9.13456e-21
-5.62204e-21
-8.69189e-21
-9.11942e-21
-8.63707e-21
-3.3114e-21
-2.77193e-21
-1.52685e-21
-4.01258e-21
-3.85523e-21
-4.12231e-21
-4.24915e-21
-5.35508e-21
-5.51087e-21
-5.77051e-21
-2.93064e-21
-1.99498e-21
-5.73651e-21
-1.6026e-21
-3.44957e-23
-2.92746e-21
-6.81066e-21
-4.77382e-21
-5.76971e-21
-2.282e-21
-2.3443e-21
-1.19623e-21
2.0139e-21
2.14802e-21
-1.38647e-22
-1.06287e-21
-6.08454e-21
-7.99074e-21
-1.0601e-20
-6.13838e-21
-7.83425e-21
-9.7433e-21
-9.43528e-21
-5.48598e-21
-9.56881e-21
-9.34077e-21
-5.92718e-21
-6.11701e-21
-6.73707e-21
-6.93212e-21
-6.48935e-21
-2.85891e-21
-2.95072e-21
-9.55501e-22
-3.30005e-21
-2.9886e-21
-1.4434e-21
-4.82948e-21
-5.44984e-21
-7.99117e-21
-7.54913e-21
-6.7121e-22
-1.72302e-21
-4.35798e-22
-1.87409e-21
-3.86894e-21
-2.60735e-21
-4.1944e-21
-3.5752e-21
-1.60493e-21
-1.12905e-21
-4.14721e-21
-1.10626e-21
-6.49636e-22
2.21319e-21
-2.10591e-21
-6.70839e-21
-5.74741e-21
-6.37055e-21
-2.55495e-21
-2.79105e-21
-3.54389e-21
-8.10728e-21
-4.81152e-21
-6.92052e-21
-6.27675e-21
-2.33747e-21
-2.3224e-21
-5.63363e-21
-4.28072e-21
-3.72471e-21
-1.96974e-21
-5.42783e-22
7.1906e-22
-9.82244e-22
1.59838e-22
-1.81794e-21
-6.31829e-21
-4.93639e-21
-3.7747e-21
-3.94137e-21
-6.15012e-22
-8.66331e-22
-8.20564e-22
-6.69748e-22
6.59877e-22
-1.07087e-21
-2.05539e-21
-2.60895e-21
-2.63605e-21
-7.08911e-23
-6.45741e-21
-3.68492e-21
-2.48335e-21
8.45723e-22
3.27401e-22
-3.33083e-21
-7.94018e-21
-1.20613e-20
-8.70059e-21
-8.40384e-21
-1.06396e-20
-6.46451e-21
-3.60321e-21
-1.19154e-20
-1.08082e-20
-6.02654e-21
-6.29159e-21
-8.2847e-21
-3.90196e-21
-5.46719e-21
-7.9842e-21
-4.71085e-21
4.22096e-22
-1.35546e-21
-3.17655e-21
-3.96148e-21
-4.1037e-21
-5.16297e-21
-3.7814e-21
-3.61842e-21
-3.22788e-21
-3.41245e-21
-4.46279e-21
-5.55746e-21
-3.99966e-21
-2.81137e-21
2.38049e-22
-1.88259e-21
-2.35762e-21
-3.66191e-21
-4.91377e-21
-7.98824e-22
-1.65726e-21
-1.89343e-21
2.25338e-23
-4.62403e-21
-9.80561e-21
-1.63241e-20
-1.40638e-20
-1.169e-20
-1.49904e-20
-1.33142e-20
-7.44029e-21
-1.01512e-20
-1.64286e-20
-1.25274e-20
-1.0785e-20
-1.06325e-20
-7.97296e-21
-8.41914e-21
-8.3872e-21
-7.21274e-21
-3.69877e-21
-4.76178e-21
-4.80363e-21
-2.73355e-21
-3.65678e-21
-3.85167e-21
-7.8854e-21
-6.04042e-21
-3.97946e-21
-2.33794e-21
-3.91609e-21
-7.81987e-21
-2.5593e-21
8.61209e-22
2.09661e-21
-4.58012e-21
-3.02172e-21
-6.81701e-21
-3.59021e-21
3.91943e-22
1.30911e-21
1.93323e-24
-2.45353e-22
-9.3015e-21
-1.17121e-20
-1.40014e-20
-1.50202e-20
-1.42642e-20
-1.4121e-20
-1.46668e-20
-1.17131e-20
-1.48967e-20
-1.60241e-20
-1.13874e-20
-1.07099e-20
-8.49128e-21
-7.23721e-21
-9.86944e-21
-8.30439e-21
-9.66197e-21
-6.47864e-21
-6.83996e-22
-6.02897e-21
-5.61173e-21
-3.94506e-21
-2.05433e-21
-5.89764e-21
-7.54047e-21
-4.63864e-21
-4.86058e-21
-4.94356e-21
-3.45296e-21
-2.74928e-21
-3.76711e-21
-2.17206e-21
-1.71421e-21
-1.46395e-21
-4.81338e-21
-3.25848e-21
1.26791e-21
-1.59388e-22
-7.25232e-22
-1.56553e-22
-1.5022e-20
-1.45672e-20
-1.47446e-20
-1.81922e-20
-1.55188e-20
-1.46172e-20
-1.53487e-20
-1.31531e-20
-1.41446e-20
-1.34023e-20
-1.2225e-20
-1.42964e-20
-1.23558e-20
-6.90468e-21
-9.22946e-21
-8.37357e-21
-7.72172e-21
-6.36075e-21
-3.68989e-21
-3.57217e-21
-6.95716e-21
-7.36674e-21
-5.62405e-21
-7.08184e-21
-6.37461e-21
-6.024e-21
-4.18881e-21
-2.27618e-21
-3.21878e-21
-4.18826e-21
-3.47574e-21
1.64563e-22
-1.54565e-21
-3.78753e-21
-2.59642e-21
-7.80276e-22
4.94754e-22
-3.43793e-22
-1.28155e-21
-8.0439e-22
-1.59459e-20
-1.5879e-20
-1.51351e-20
-1.59937e-20
-1.84026e-20
-1.85628e-20
-1.39042e-20
-1.11493e-20
-1.05739e-20
-1.47794e-20
-1.34947e-20
-1.4393e-20
-1.02869e-20
-1.06068e-20
-1.36741e-20
-1.15077e-20
-8.06326e-21
-5.9824e-21
-5.28689e-21
-3.32116e-21
-5.72954e-21
-7.29786e-21
-7.80925e-21
-7.35115e-21
-7.38632e-21
-4.89382e-21
-4.89651e-21
-4.42863e-21
-2.17262e-21
-1.27609e-21
-1.51956e-21
-2.3782e-21
2.67226e-22
-1.80437e-22
-1.86759e-21
-8.11012e-22
-1.03315e-22
-8.73348e-22
-1.03167e-21
-1.20848e-21
-1.48102e-20
-1.6996e-20
-1.41615e-20
-1.51649e-20
-1.78841e-20
-1.89773e-20
-1.22206e-20
-1.48044e-20
-1.53529e-20
-1.42299e-20
-1.31223e-20
-1.489e-20
-1.28923e-20
-1.03557e-20
-1.34764e-20
-1.19189e-20
-9.7526e-21
-5.81063e-21
-4.37486e-21
-3.55654e-21
-5.49794e-21
-8.74252e-21
-8.55768e-21
-7.32417e-21
-7.65858e-21
-6.06411e-21
-5.00951e-21
-2.56579e-21
-3.08643e-21
-2.78344e-21
-2.11277e-21
-4.80485e-22
2.35337e-21
-8.45322e-22
-1.51546e-21
-2.07489e-22
-3.57788e-22
-6.50661e-22
4.49446e-22
-1.17264e-21
-1.71991e-20
-1.94868e-20
-1.61741e-20
-1.63822e-20
-1.73535e-20
-1.64456e-20
-1.54243e-20
-1.56473e-20
-1.67421e-20
-1.43771e-20
-1.46166e-20
-1.55507e-20
-1.43889e-20
-8.94328e-21
-1.34758e-20
-1.04193e-20
-7.54741e-21
-4.88146e-21
-5.0815e-21
-4.51455e-21
-6.10812e-21
-9.19193e-21
-8.34586e-21
-8.36553e-21
-6.3552e-21
-6.11589e-21
-6.84212e-21
-3.13368e-21
2.29026e-22
-1.29715e-21
-2.26204e-21
-2.57424e-21
2.60843e-21
1.15858e-21
-2.67186e-21
-2.32115e-21
-6.17682e-23
-6.28168e-22
-2.70683e-21
-3.39591e-21
-1.66554e-20
-1.84468e-20
-1.64256e-20
-1.71451e-20
-1.88017e-20
-1.51972e-20
-1.69811e-20
-1.87505e-20
-1.80705e-20
-1.53191e-20
-1.47478e-20
-1.47651e-20
-1.18275e-20
-9.44423e-21
-1.33174e-20
-1.08993e-20
-7.8808e-21
-5.6718e-21
-3.36427e-21
-5.22739e-21
-6.41424e-21
-1.00572e-20
-9.34783e-21
-5.93368e-21
-1.00473e-20
-5.56641e-21
-3.1358e-21
-2.27004e-21
-1.29694e-21
-4.07064e-21
-5.17652e-21
-1.102e-21
-3.93821e-22
-7.49259e-22
-9.31326e-22
-6.10926e-22
3.83097e-22
-3.04197e-22
-2.77952e-21
-6.52841e-22
-1.88851e-20
-2.17238e-20
-1.92172e-20
-1.78435e-20
-1.87509e-20
-1.63953e-20
-1.77171e-20
-1.73089e-20
-1.75614e-20
-1.6304e-20
-1.52553e-20
-1.6804e-20
-8.65665e-21
-1.22349e-20
-1.31108e-20
-1.07578e-20
-9.65876e-21
-4.69393e-21
-5.66974e-21
-5.66954e-21
-3.0857e-21
-9.89716e-21
-9.81207e-21
-1.01712e-20
-8.81766e-21
-3.53765e-21
-3.68719e-21
-2.83023e-21
1.32329e-21
-4.32394e-21
-3.59206e-21
-3.82614e-21
-2.24689e-21
2.63626e-22
-6.41954e-22
1.90516e-22
-8.29362e-22
-1.21335e-21
-6.50532e-22
-9.87048e-22
-2.10574e-20
-2.05469e-20
-1.78522e-20
-2.04145e-20
-2.04201e-20
-1.91679e-20
-2.03543e-20
-1.67445e-20
-1.36643e-20
-1.55729e-20
-1.63238e-20
-1.6099e-20
-1.29671e-20
-1.37149e-20
-1.21927e-20
-9.87914e-21
-7.63087e-21
-5.85401e-21
-2.24408e-21
-2.84168e-21
-6.44167e-21
-1.08967e-20
-1.14674e-20
-1.08722e-20
-8.08124e-21
-4.39277e-21
-1.9687e-21
-2.21729e-21
-2.20802e-21
-4.03768e-21
-1.72297e-21
-2.06701e-21
-2.5034e-21
8.80531e-22
-9.63058e-22
1.4501e-23
-4.69775e-23
-1.55613e-21
-6.83683e-22
-3.48919e-22
-2.15687e-20
-2.40919e-20
-2.09051e-20
-2.01795e-20
-1.99164e-20
-1.85161e-20
-1.92256e-20
-1.77794e-20
-1.65671e-20
-1.67668e-20
-1.51714e-20
-1.42112e-20
-1.36355e-20
-1.2148e-20
-1.28347e-20
-1.27387e-20
-8.41595e-21
-4.97095e-21
-2.40286e-21
-5.14318e-21
-8.69309e-21
-9.23934e-21
-1.21394e-20
-1.36786e-20
-5.87883e-21
-3.04531e-21
-2.22395e-21
-2.85062e-21
-2.21893e-21
-2.05532e-21
-2.69281e-21
-1.28835e-21
-5.16874e-22
-7.85044e-22
-2.41269e-21
-2.90785e-23
-1.87776e-21
-3.04918e-21
-2.02507e-21
-1.2784e-21
-2.19145e-20
-2.43578e-20
-2.04718e-20
-1.92122e-20
-1.8822e-20
-2.06276e-20
-1.93485e-20
-1.78961e-20
-1.58852e-20
-1.82215e-20
-1.56534e-20
-1.49952e-20
-1.54555e-20
-1.04547e-20
-1.30684e-20
-1.29148e-20
-1.10751e-20
-5.23697e-21
-2.82706e-21
-5.34168e-21
-7.41204e-21
-8.94969e-21
-1.08133e-20
-1.37403e-20
-5.94893e-21
-5.59728e-21
-3.94745e-21
-2.54648e-21
-6.21437e-22
-2.41454e-21
-1.93076e-21
-7.84878e-22
-1.25429e-21
-1.55967e-21
-2.63057e-21
-1.37523e-21
-5.07296e-22
-2.76898e-21
-2.52512e-21
5.8844e-22
-2.44079e-20
-2.39936e-20
-2.05135e-20
-2.20351e-20
-2.01911e-20
-2.19014e-20
-1.91312e-20
-1.78989e-20
-1.85377e-20
-1.62448e-20
-1.42366e-20
-1.54666e-20
-1.53996e-20
-1.25571e-20
-1.30112e-20
-1.05854e-20
-7.11873e-21
-6.04346e-21
-7.25679e-21
-7.92774e-21
-7.13682e-21
-6.41562e-21
-9.92428e-21
-1.09173e-20
-7.39017e-21
-4.50207e-21
-2.95102e-21
-3.31473e-21
-3.24368e-21
-1.19859e-21
-2.7475e-21
-1.73909e-21
-1.04669e-21
-1.84176e-21
-7.20697e-21
-7.184e-22
1.21295e-21
-4.34497e-21
-3.34557e-21
5.71243e-22
-2.71103e-20
-2.6177e-20
-2.26252e-20
-2.2945e-20
-2.08316e-20
-1.99879e-20
-2.12145e-20
-1.56363e-20
-1.76028e-20
-1.84999e-20
-1.56587e-20
-1.2648e-20
-1.5612e-20
-1.38112e-20
-1.53796e-20
-1.09106e-20
-1.03595e-20
-7.04276e-21
-7.05177e-21
-4.09187e-21
-8.31772e-21
-8.85903e-21
-9.32116e-21
-1.11207e-20
-5.9487e-21
-3.48703e-21
-2.75115e-21
-3.00374e-21
-3.76526e-21
-2.43468e-21
-3.36557e-21
-1.9943e-21
-1.89947e-21
-3.50789e-21
-5.70632e-21
-1.09836e-21
7.51199e-22
-6.14249e-23
-9.15927e-22
1.36193e-22
-2.68245e-20
-2.56212e-20
-2.2423e-20
-2.12479e-20
-2.1857e-20
-1.98379e-20
-2.14967e-20
-1.76246e-20
-1.70868e-20
-1.6702e-20
-1.46331e-20
-1.59116e-20
-1.66688e-20
-1.37528e-20
-1.3511e-20
-1.18481e-20
-6.82786e-21
-6.73489e-21
-9.85232e-21
-6.99829e-21
-7.85048e-21
-9.46086e-21
-1.01459e-20
-9.35542e-21
-4.94498e-21
-4.57527e-21
-3.32971e-21
-2.25312e-21
-3.3081e-21
-1.87159e-21
-4.27648e-21
-2.43373e-21
-9.69658e-22
-2.06071e-21
-6.33769e-21
-1.90694e-21
1.90794e-21
-5.93635e-22
-1.20889e-21
-8.33248e-22
-2.50546e-20
-2.57677e-20
-2.39546e-20
-2.23852e-20
-2.20876e-20
-2.19153e-20
-2.12703e-20
-1.89461e-20
-1.75146e-20
-1.39924e-20
-1.61615e-20
-1.83041e-20
-1.809e-20
-1.3433e-20
-1.27489e-20
-1.07627e-20
-7.75914e-21
-8.45968e-21
-8.29415e-21
-4.84262e-21
-8.0981e-21
-1.01194e-20
-9.59887e-21
-6.52124e-21
-4.9756e-21
-6.15558e-21
-4.01076e-21
-2.02049e-21
-3.27656e-21
-2.54026e-21
-2.09797e-21
-1.94989e-21
2.02727e-22
-2.54507e-21
-5.34519e-21
-1.8187e-21
4.89927e-22
-9.43033e-22
-3.79779e-22
-1.60105e-21
-2.33967e-20
-2.23663e-20
-2.36994e-20
-2.07596e-20
-2.38935e-20
-2.22844e-20
-2.1603e-20
-2.09971e-20
-2.05949e-20
-1.3426e-20
-1.4766e-20
-1.68551e-20
-1.64913e-20
-1.55901e-20
-1.27233e-20
-8.48984e-21
-5.55946e-21
-7.49903e-21
-1.10501e-20
-8.58809e-21
-1.00834e-20
-7.40255e-21
-5.47751e-21
-5.55088e-21
-3.02988e-21
-6.50228e-21
-4.02615e-21
-3.3246e-21
-3.86087e-21
-1.80691e-21