/*--------------------------------*- C++ -*----------------------------------*\
| =========                 |                                                 |
| \\      /  F ield         | OpenFOAM: The Open Source CFD Toolbox           |
|  \\    /   O peration     | Version:  v2012                                 |
|   \\  /    A nd           | Website:  www.openfoam.com                      |
|    \\/     M anipulation  |                                                 |
\*---------------------------------------------------------------------------*/
FoamFile
{
    version     2.0;
    format      ascii;
    class       surfaceScalarField;
    location    "30";
    object      phi;
}
// * * * * * * * * * * * * * * * * * * * * * * * * * * * * * * * * * * * * * //

dimensions      [0 3 -1 0 0 0 0];
oriented        oriented;


internalField   nonuniform List<scalar> 
187200
(
1.875e-06
1.90189e-22
1.31652e-22
1.875e-06
3.23208e-22
2.77006e-22
1.875e-06
3.94629e-22
4.48182e-22
1.875e-06
3.06799e-22
3.32174e-22
1.875e-06
3.2991e-22
2.40131e-22
1.875e-06
4.48935e-22
3.71323e-22
1.875e-06
3.83893e-22
2.70182e-22
1.875e-06
2.79921e-22
2.40903e-22
1.875e-06
2.09788e-22
4.01907e-22
1.875e-06
3.46003e-22
4.03211e-22
1.875e-06
3.6587e-22
2.54442e-22
1.875e-06
3.08763e-22
1.7847e-22
1.875e-06
2.04364e-22
3.00138e-22
1.875e-06
1.46363e-22
1.20752e-22
1.875e-06
1.66267e-22
2.13155e-22
1.875e-06
1.25963e-22
2.41612e-22
1.875e-06
1.7097e-22
2.20924e-22
1.875e-06
6.57063e-23
7.75339e-23
1.875e-06
9.21309e-23
6.40118e-23
1.875e-06
7.27805e-23
1.25672e-22
1.875e-06
1.43781e-23
1.58018e-22
1.875e-06
1.11032e-22
1.38456e-22
1.875e-06
1.56488e-22
1.66388e-22
1.875e-06
3.06049e-22
1.70169e-22
1.875e-06
1.77065e-22
5.05292e-23
1.875e-06
1.25241e-22
1.07516e-22
1.875e-06
1.77759e-22
1.94676e-22
1.875e-06
7.83581e-23
7.42338e-23
1.875e-06
9.16967e-23
1.58461e-22
1.875e-06
1.94021e-23
1.519e-22
1.875e-06
-6.97071e-23
1.27188e-22
1.875e-06
-1.83238e-23
4.1703e-23
1.875e-06
7.60571e-23
4.89618e-23
1.875e-06
5.87124e-23
5.88332e-23
1.875e-06
2.10254e-23
9.24384e-23
1.875e-06
-6.67069e-23
2.27668e-23
1.875e-06
-2.33102e-23
1.22518e-23
1.875e-06
-9.45247e-23
7.24393e-23
1.875e-06
-7.20757e-23
1.38057e-22
-3.23391e-23
6.50385e-23
1.875e-06
1.00832e-22
1.58152e-22
1.875e-06
1.10397e-22
3.66552e-22
1.875e-06
2.66329e-22
6.62983e-22
1.875e-06
3.19671e-22
6.95671e-22
1.875e-06
2.45354e-22
5.65941e-22
1.875e-06
2.98309e-22
6.1651e-22
1.875e-06
3.51636e-22
6.44544e-22
1.875e-06
3.8434e-22
6.12886e-22
1.875e-06
4.24864e-22
6.94846e-22
1.875e-06
2.85446e-22
7.51238e-22
1.875e-06
1.61231e-22
5.67616e-22
1.875e-06
1.74562e-22
5.05629e-22
1.875e-06
2.36416e-22
5.82256e-22
1.875e-06
1.42995e-22
4.81051e-22
1.875e-06
6.51662e-23
4.62375e-22
1.875e-06
1.76033e-23
4.77708e-22
1.875e-06
2.62359e-22
4.64912e-22
1.875e-06
2.93327e-22
4.48424e-22
1.875e-06
4.61836e-23
3.12103e-22
1.875e-06
2.19742e-23
2.92183e-22
1.875e-06
1.96854e-22
3.3259e-22
1.875e-06
2.27751e-22
2.26444e-22
1.875e-06
1.43301e-22
9.44782e-23
1.875e-06
7.06915e-23
1.9289e-22
1.875e-06
4.59857e-23
1.87304e-22
1.875e-06
1.69224e-22
1.76423e-22
1.875e-06
1.28313e-22
1.40131e-22
1.875e-06
5.10656e-23
1.10433e-22
1.875e-06
-3.61704e-23
3.00834e-22
1.875e-06
1.83604e-23
1.91901e-22
1.875e-06
1.023e-22
1.38973e-22
1.875e-06
6.94178e-23
4.0514e-23
1.875e-06
-7.3152e-25
7.06627e-23
1.875e-06
-5.96784e-23
5.002e-23
1.875e-06
-4.3261e-23
1.5599e-22
1.875e-06
2.72734e-23
1.1829e-22
1.875e-06
-1.32809e-22
-1.16607e-23
1.875e-06
-7.80578e-23
4.0859e-23
1.875e-06
-7.11238e-23
4.02134e-23
-1.19238e-22
3.92563e-23
1.875e-06
2.04136e-22
3.26543e-22
1.875e-06
1.72106e-22
5.69988e-22
1.875e-06
1.21873e-22
6.59514e-22
1.875e-06
2.82843e-22
7.84334e-22
1.875e-06
2.86898e-22
7.74432e-22
1.875e-06
3.23375e-22
7.24864e-22
1.875e-06
2.88514e-22
7.79998e-22
1.875e-06
2.50838e-22
7.34221e-22
1.875e-06
2.63262e-22
8.25399e-22
1.875e-06
2.511e-22
8.34588e-22
1.875e-06
2.23616e-22
7.48755e-22
1.875e-06
2.32731e-22
6.79535e-22
1.875e-06
1.99055e-22
5.49936e-22
1.875e-06
1.15818e-22
5.63394e-22
1.875e-06
1.78253e-22
6.4771e-22
1.875e-06
2.5461e-22
6.55909e-22
1.875e-06
9.15462e-23
5.04948e-22
1.875e-06
1.65172e-22
4.75349e-22
1.875e-06
1.22687e-22
3.49702e-22
1.875e-06
1.08365e-22
4.23358e-22
1.875e-06
1.51193e-22
3.63315e-22
1.875e-06
1.58853e-22
1.76531e-22
1.875e-06
1.76912e-22
9.98891e-23
1.875e-06
1.30758e-22
2.02855e-22
1.875e-06
1.76171e-22
3.32906e-22
1.875e-06
5.20728e-23
2.15977e-22
1.875e-06
5.47857e-23
2.31278e-22
1.875e-06
-1.00178e-23
1.80107e-22
1.875e-06
1.30278e-23
2.68969e-22
1.875e-06
5.56499e-26
2.30719e-22
1.875e-06
-1.20778e-23
2.21103e-22
1.875e-06
6.22648e-23
1.6449e-22
1.875e-06
-5.28564e-23
3.87821e-23
1.875e-06
-6.29755e-23
3.30202e-23
1.875e-06
-6.31697e-23
8.6538e-23
1.875e-06
-1.2555e-22
-1.02252e-23
1.875e-06
4.14756e-23
2.79665e-23
1.875e-06
5.01443e-23
1.83086e-22
1.875e-06
4.77555e-23
1.47608e-22
2.17888e-23
1.2792e-22
1.875e-06
2.66392e-22
3.84111e-22
1.875e-06
1.77856e-22
7.02398e-22
1.875e-06
1.10832e-22
8.04727e-22
1.875e-06
1.0334e-22
8.40282e-22
1.875e-06
1.83809e-22
8.43788e-22
1.875e-06
1.99105e-22
7.2103e-22
1.875e-06
1.65548e-22
8.0261e-22
1.875e-06
1.59497e-22
8.62543e-22
1.875e-06
2.08951e-22
8.52383e-22
1.875e-06
2.66295e-22
8.4356e-22
1.875e-06
2.33468e-22
8.63928e-22
1.875e-06
1.5084e-22
7.89657e-22
1.875e-06
1.38589e-22
7.18835e-22
1.875e-06
1.56963e-22
6.28983e-22
1.875e-06
3.064e-22
6.39418e-22
1.875e-06
4.06295e-22
5.66625e-22
1.875e-06
1.8038e-22
5.15611e-22
1.875e-06
7.99613e-23
4.96651e-22
1.875e-06
1.03625e-22
4.62442e-22
1.875e-06
1.66544e-22
3.8256e-22
1.875e-06
3.65462e-23
3.38449e-22
1.875e-06
9.01144e-23
2.425e-22
1.875e-06
1.94224e-22
1.69957e-22
1.875e-06
1.34848e-22
2.46976e-22
1.875e-06
8.22843e-23
2.55719e-22
1.875e-06
8.85453e-23
3.04003e-22
1.875e-06
2.52229e-23
2.60427e-22
1.875e-06
9.81102e-24
2.28931e-22
1.875e-06
5.04134e-23
1.83269e-22
1.875e-06
-3.43261e-23
2.35069e-22
1.875e-06
-1.61486e-23
2.24409e-22
1.875e-06
-7.13646e-23
6.72322e-23
1.875e-06
-6.73792e-23
1.28309e-22
1.875e-06
-1.03621e-22
1.49513e-22
1.875e-06
-1.83042e-23
6.45428e-23
1.875e-06
1.94796e-23
7.75642e-24
1.875e-06
1.78059e-24
-1.62231e-23
1.875e-06
7.79971e-23
8.76246e-23
1.875e-06
-5.56243e-23
5.2818e-23
6.90103e-23
7.04185e-23
1.875e-06
-4.788e-23
2.34284e-22
1.875e-06
1.40045e-22
7.39656e-22
1.875e-06
9.27781e-23
8.81324e-22
1.875e-06
1.06149e-22
8.59686e-22
1.875e-06
1.42951e-22
9.36876e-22
1.875e-06
7.30085e-23
9.09773e-22
1.875e-06
9.49785e-23
8.92723e-22
1.875e-06
3.58431e-22
9.45e-22
1.875e-06
3.38526e-22
8.46737e-22
1.875e-06
2.11923e-22
8.68566e-22
1.875e-06
1.66144e-22
8.8346e-22
1.875e-06
1.73921e-22
8.36296e-22
1.875e-06
2.04983e-22
7.43733e-22
1.875e-06
1.82326e-22
8.12739e-22
1.875e-06
1.59533e-22
7.18981e-22
1.875e-06
1.70488e-22
5.05713e-22
1.875e-06
1.12091e-22
4.93625e-22
1.875e-06
-7.53107e-24
4.76738e-22
1.875e-06
7.71568e-23
5.06286e-22
1.875e-06
1.06137e-22
3.2727e-22
1.875e-06
-5.11143e-24
3.39598e-22
1.875e-06
6.26972e-23
2.46293e-22
1.875e-06
1.89321e-22
1.67902e-22
1.875e-06
1.65706e-22
2.56497e-22
1.875e-06
9.8022e-23
3.0551e-22
1.875e-06
8.28741e-23
2.81799e-22
1.875e-06
1.07207e-22
2.94973e-22
1.875e-06
-3.66712e-23
2.44471e-22
1.875e-06
-8.73175e-23
1.19022e-22
1.875e-06
3.17234e-23
1.59376e-22
1.875e-06
7.13842e-23
1.89028e-22
1.875e-06
8.93335e-23
2.25671e-22
1.875e-06
-1.47219e-23
1.3196e-22
1.875e-06
-3.41965e-23
1.09215e-22
1.875e-06
-4.12264e-23
-5.02173e-24
1.875e-06
-7.50843e-23
-6.10179e-23
1.875e-06
6.35287e-23
-4.53465e-24
1.875e-06
7.24121e-23
4.39726e-23
1.875e-06
6.90438e-23
9.4506e-23
-4.24158e-23
1.23837e-23
1.875e-06
2.22611e-23
3.58951e-22
1.875e-06
1.40748e-22
7.88075e-22
1.875e-06
9.12086e-23
8.06175e-22
1.875e-06
2.43079e-23
8.47676e-22
1.875e-06
6.74431e-23
9.55812e-22
1.875e-06
1.20023e-22
1.03403e-21
1.875e-06
1.61925e-22
9.99751e-22
1.875e-06
2.32708e-22
9.92143e-22
1.875e-06
2.99516e-22
9.22286e-22
1.875e-06
2.21468e-22
8.75415e-22
1.875e-06
2.16986e-22
9.18774e-22
1.875e-06
1.9254e-22
9.15684e-22
1.875e-06
1.14773e-22
7.73981e-22
1.875e-06
2.2661e-22
8.13521e-22
1.875e-06
1.6476e-22
7.43919e-22
1.875e-06
7.91715e-23
6.18775e-22
1.875e-06
8.52416e-23
5.72723e-22
1.875e-06
-1.52463e-23
4.86702e-22
1.875e-06
2.3183e-23
4.5001e-22
1.875e-06
4.72074e-23
3.12823e-22
1.875e-06
1.46488e-22
3.92302e-22
1.875e-06
1.40199e-22
2.97509e-22
1.875e-06
1.55307e-22
1.75744e-22
1.875e-06
2.15027e-22
2.5639e-22
1.875e-06
2.90519e-23
3.26245e-22
1.875e-06
5.89336e-23
3.01104e-22
1.875e-06
3.11185e-23
2.59231e-22
1.875e-06
1.25171e-23
2.06602e-22
1.875e-06
-7.17718e-23
1.62205e-22
1.875e-06
-7.62024e-23
1.53591e-22
1.875e-06
6.29015e-23
1.40596e-22
1.875e-06
4.5514e-23
1.13134e-22
1.875e-06
1.00767e-23
4.62857e-23
1.875e-06
2.37658e-23
1.1861e-22
1.875e-06
3.8246e-23
5.46664e-23
1.875e-06
1.1382e-22
-2.60395e-23
1.875e-06
1.46951e-23
-3.69215e-23
1.875e-06
-2.56319e-23
-4.28777e-23
1.875e-06
2.79029e-23
1.10106e-23
8.56518e-23
8.83483e-23
1.875e-06
5.69262e-23
3.99844e-22
1.875e-06
1.89034e-23
7.68213e-22
1.875e-06
1.48323e-22
9.47809e-22
1.875e-06
9.20957e-23
9.81538e-22
1.875e-06
1.22769e-22
1.02828e-21
1.875e-06
8.51353e-23
1.03293e-21
1.875e-06
1.80137e-22
1.09357e-21
1.875e-06
3.58413e-22
1.06221e-21
1.875e-06
2.77312e-22
1.00708e-21
1.875e-06
1.9579e-22
9.32585e-22
1.875e-06
1.50984e-22
9.32874e-22
1.875e-06
9.89818e-23
9.2336e-22
1.875e-06
1.24409e-22
9.23081e-22
1.875e-06
1.99395e-22
7.35553e-22
1.875e-06
1.33866e-22
7.7366e-22
1.875e-06
9.15377e-23
6.11744e-22
1.875e-06
4.62656e-23
5.00588e-22
1.875e-06
1.05143e-22
4.45445e-22
1.875e-06
1.36282e-22
4.91389e-22
1.875e-06
5.64017e-23
3.63811e-22
1.875e-06
1.24631e-22
3.60012e-22
1.875e-06
2.62317e-23
3.08113e-22
1.875e-06
-3.71276e-23
1.69026e-22
1.875e-06
4.12399e-23
2.47079e-22
1.875e-06
1.37346e-22
3.24547e-22
1.875e-06
5.37285e-23
3.12534e-22
1.875e-06
7.85639e-24
3.43779e-22
1.875e-06
-2.30776e-23
1.84596e-22
1.875e-06
-9.65432e-24
9.39632e-23
1.875e-06
5.91957e-23
1.29913e-22
1.875e-06
-3.16443e-24
4.97678e-23
1.875e-06
4.10354e-24
1.10146e-22
1.875e-06
-5.28945e-24
-1.30672e-23
1.875e-06
7.35597e-23
7.24615e-23
1.875e-06
1.46062e-22
7.22474e-23
1.875e-06
1.09466e-22
-3.29934e-23
1.875e-06
3.55794e-23
-7.93982e-23
1.875e-06
-1.05702e-23
-3.98586e-23
1.875e-06
-2.78269e-23
6.86997e-23
-2.48999e-23
1.34014e-22
1.875e-06
1.61329e-22
2.92697e-22
1.875e-06
1.47625e-22
7.64364e-22
1.875e-06
7.007e-23
9.27339e-22
1.875e-06
1.69711e-22
1.09349e-21
1.875e-06
1.70804e-22
1.14488e-21
1.875e-06
2.5929e-22
1.09941e-21
1.875e-06
2.69444e-22
1.16293e-21
1.875e-06
6.51028e-23
1.07833e-21
1.875e-06
1.47883e-22
1.0354e-21
1.875e-06
1.95274e-22
9.26516e-22
1.875e-06
1.09687e-22
9.53242e-22
1.875e-06
9.17092e-23
9.26176e-22
1.875e-06
3.31904e-23
8.40157e-22
1.875e-06
1.43605e-22
6.83953e-22
1.875e-06
2.54129e-22
7.45505e-22
1.875e-06
1.48623e-22
6.06219e-22
1.875e-06
8.50605e-23
5.40893e-22
1.875e-06
1.77682e-23
4.36753e-22
1.875e-06
1.29292e-22
3.0272e-22
1.875e-06
1.44651e-22
2.85694e-22
1.875e-06
1.48376e-23
3.76327e-22
1.875e-06
2.65034e-23
4.50152e-22
1.875e-06
4.98689e-23
3.19575e-22
1.875e-06
8.57377e-23
2.18999e-22
1.875e-06
1.06338e-23
4.03764e-22
1.875e-06
2.30289e-23
3.19891e-22
1.875e-06
5.11858e-23
2.48611e-22
1.875e-06
6.76474e-23
1.64284e-22
1.875e-06
-1.53523e-23
9.14552e-23
1.875e-06
8.96269e-24
9.91282e-23
1.875e-06
-1.55331e-23
1.66114e-22
1.875e-06
-6.96098e-23
7.58447e-23
1.875e-06
-2.6985e-23
1.29448e-22
1.875e-06
3.27317e-23
3.53384e-23
1.875e-06
6.33018e-23
-7.54683e-23
1.875e-06
-3.81352e-23
-2.25353e-22
1.875e-06
7.10243e-23
-2.48666e-22
1.875e-06
-2.81104e-23
5.75762e-24
1.875e-06
-4.28344e-23
1.10192e-22
-3.16275e-25
2.4491e-23
1.875e-06
-1.61638e-22
2.36921e-22
1.875e-06
2.33496e-23
8.41715e-22
1.875e-06
1.62078e-22
1.01341e-21
1.875e-06
1.2233e-22
1.11925e-21
1.875e-06
1.83077e-22
1.16698e-21
1.875e-06
1.98948e-22
1.09235e-21
1.875e-06
1.78092e-22
1.16411e-21
1.875e-06
8.92412e-23
1.10743e-21
1.875e-06
2.13265e-23
1.01551e-21
1.875e-06
1.22001e-22
9.79047e-22
1.875e-06
1.75262e-22
9.86735e-22
1.875e-06
1.0127e-22
1.0212e-21
1.875e-06
1.7849e-22
8.35681e-22
1.875e-06
1.84682e-22
7.34748e-22
1.875e-06
1.09036e-22
6.84701e-22
1.875e-06
6.46571e-23
5.58212e-22
1.875e-06
1.17265e-22
5.56963e-22
1.875e-06
1.67781e-22
5.31031e-22
1.875e-06
-1.25069e-22
3.20724e-22
1.875e-06
-6.18816e-23
2.4546e-22
1.875e-06
1.18297e-22
3.35977e-22
1.875e-06
4.50376e-23
4.2868e-22
1.875e-06
1.14834e-22
3.88652e-22
1.875e-06
5.85114e-23
3.79839e-22
1.875e-06
1.44899e-22
4.34466e-22
1.875e-06
-6.41361e-24
2.57848e-22
1.875e-06
-1.12903e-22
1.50141e-22
1.875e-06
-9.52775e-23
1.19803e-22
1.875e-06
6.15684e-23
5.30568e-23
1.875e-06
-3.74626e-23
1.66914e-22
1.875e-06
-7.50214e-23
1.3466e-22
1.875e-06
-5.45167e-23
1.6898e-22
1.875e-06
3.95433e-23
2.40483e-22
1.875e-06
2.65254e-24
4.43136e-23
1.875e-06
-7.10877e-23
-2.05539e-22
1.875e-06
-2.45825e-23
-3.21594e-22
1.875e-06
-3.4885e-23
-3.23355e-22
1.875e-06
1.16346e-22
5.44016e-23
1.875e-06
7.29638e-23
1.1496e-22
2.50893e-23
2.49339e-23
1.875e-06
-8.10563e-24
5.52421e-22
1.875e-06
5.04174e-23
8.21343e-22
1.875e-06
1.2244e-22
9.64938e-22
1.875e-06
2.52228e-22
1.2565e-21
1.875e-06
8.65992e-23
1.24079e-21
1.875e-06
1.12818e-22
1.19382e-21
1.875e-06
2.48597e-22
1.23627e-21
1.875e-06
8.08632e-23
1.12408e-21
1.875e-06
8.78949e-23
9.13236e-22
1.875e-06
1.60695e-22
8.99237e-22
1.875e-06
1.44385e-22
1.00618e-21
1.875e-06
7.73186e-23
9.80031e-22
1.875e-06
7.93876e-23
8.88288e-22
1.875e-06
1.09488e-22
7.92958e-22
1.875e-06
1.24567e-22
6.8868e-22
1.875e-06
1.84213e-22
6.10918e-22
1.875e-06
1.23742e-22
5.46977e-22
1.875e-06
3.87822e-23
4.47938e-22
1.875e-06
-2.75673e-23
3.70522e-22
1.875e-06
-3.9785e-23
3.3478e-22
1.875e-06
1.35394e-22
3.71439e-22
1.875e-06
2.68703e-22
5.50039e-22
1.875e-06
7.81682e-23
4.11847e-22
1.875e-06
1.88688e-23
4.10707e-22
1.875e-06
4.59724e-23
3.5094e-22
1.875e-06
6.12446e-23
2.85099e-22
1.875e-06
-1.59933e-22
1.58435e-22
1.875e-06
-6.83345e-23
1.48463e-22
1.875e-06
-2.10838e-23
9.31285e-23
1.875e-06
-2.2169e-24
1.83569e-22
1.875e-06
1.37596e-23
1.39052e-22
1.875e-06
-7.02798e-23
1.65678e-22
1.875e-06
4.31756e-23
1.47925e-22
1.875e-06
-1.46568e-23
-1.41396e-23
1.875e-06
-6.99029e-23
-2.11563e-22
1.875e-06
-8.43748e-23
-3.88648e-22
1.875e-06
-2.65721e-23
-3.59218e-22
1.875e-06
9.12001e-23
-6.83581e-23
1.875e-06
1.37919e-22
3.85089e-24
9.01624e-23
-8.0887e-23
1.875e-06
6.67911e-23
6.80684e-22
1.875e-06
1.26988e-22
9.8552e-22
1.875e-06
1.47124e-22
1.0966e-21
1.875e-06
7.93474e-23
1.15417e-21
1.875e-06
1.39744e-22
1.27893e-21
1.875e-06
1.15832e-22
1.19212e-21
1.875e-06
4.24295e-23
1.12178e-21
1.875e-06
2.28933e-22
1.16405e-21
1.875e-06
6.72792e-23
9.98241e-22
1.875e-06
2.71752e-23
8.7024e-22
1.875e-06
1.84317e-22
9.30144e-22
1.875e-06
1.75948e-22
9.95365e-22
1.875e-06
9.99946e-23
9.60934e-22
1.875e-06
9.33949e-23
7.68017e-22
1.875e-06
7.75513e-23
7.30501e-22
1.875e-06
1.99844e-22
6.78004e-22
1.875e-06
1.21241e-22
5.89347e-22
1.875e-06
3.76392e-23
4.64815e-22
1.875e-06
1.58299e-22
4.79591e-22
1.875e-06
9.7194e-23
4.55251e-22
1.875e-06
4.39074e-23
3.6103e-22
1.875e-06
8.10204e-23
3.1481e-22
1.875e-06
5.16231e-23
4.4355e-22
1.875e-06
2.19449e-23
5.01676e-22
1.875e-06
1.82978e-23
2.82347e-22
1.875e-06
-1.194e-22
1.71721e-22
1.875e-06
9.4315e-24
2.41976e-22
1.875e-06
2.56192e-23
1.87263e-22
1.875e-06
2.82168e-23
1.23641e-22
1.875e-06
-7.41753e-23
1.26978e-22
1.875e-06
-1.1059e-22
1.49757e-22
1.875e-06
2.78498e-23
1.99439e-22
1.875e-06
-5.7013e-23
1.35506e-23
1.875e-06
-7.81612e-23
-6.27238e-24
1.875e-06
-8.0279e-23
-1.14183e-22
1.875e-06
-6.36376e-23
-3.49013e-22
1.875e-06
-2.30816e-23
-3.09732e-22
1.875e-06
8.7953e-23
-1.12309e-22
1.875e-06
1.28875e-22
-5.57839e-23
1.69625e-22
-9.58075e-23
1.875e-06
1.56248e-22
6.32323e-22
1.875e-06
1.1987e-22
1.00143e-21
1.875e-06
9.43412e-23
1.10411e-21
1.875e-06
1.28818e-22
1.18778e-21
1.875e-06
1.54226e-22
1.25573e-21
1.875e-06
1.13725e-22
1.27295e-21
1.875e-06
1.18374e-22
1.14662e-21
1.875e-06
9.27857e-23
1.08693e-21
1.875e-06
1.96891e-22
1.03582e-21
1.875e-06
6.42563e-23
9.53311e-22
1.875e-06
-1.27747e-23
8.53415e-22
1.875e-06
3.09638e-23
9.5641e-22
1.875e-06
1.72574e-22
1.0225e-21
1.875e-06
1.56093e-22
7.05582e-22
1.875e-06
8.25101e-23
7.45729e-22
1.875e-06
-3.46915e-23
5.82139e-22
1.875e-06
-5.31191e-24
6.03676e-22
1.875e-06
1.40412e-22
6.17446e-22
1.875e-06
1.41115e-22
4.99003e-22
1.875e-06
1.70387e-22
4.63222e-22
1.875e-06
1.17239e-22
3.98933e-22
1.875e-06
-2.65033e-23
2.90307e-22
1.875e-06
-3.1739e-23
3.78198e-22
1.875e-06
-3.86672e-23
4.27649e-22
1.875e-06
-1.23066e-22
2.66499e-22
1.875e-06
-6.39312e-23
2.82152e-22
1.875e-06
-2.6807e-23
1.90932e-22
1.875e-06
3.12327e-23
1.46825e-22
1.875e-06
-2.31694e-23
9.8659e-23
1.875e-06
-5.59191e-23
1.58159e-22
1.875e-06
5.34066e-23
1.87921e-22
1.875e-06
1.0063e-23
1.9271e-22
1.875e-06
-5.56621e-23
1.20067e-22
1.875e-06
1.25378e-22
6.43722e-23
1.875e-06
1.01646e-22
1.02354e-23
1.875e-06
-9.12313e-23
-2.36443e-22
1.875e-06
-1.23843e-22
-3.89004e-22
1.875e-06
1.41577e-23
-2.4416e-22
1.875e-06
8.36647e-23
-1.03746e-22
8.84435e-23
-2.25533e-22
1.875e-06
1.67832e-22
5.9632e-22
1.875e-06
2.17431e-22
9.94544e-22
1.875e-06
1.61707e-22
1.10997e-21
1.875e-06
1.47547e-22
1.26562e-21
1.875e-06
-1.96453e-23
1.23304e-21
1.875e-06
-1.32029e-24
1.26086e-21
1.875e-06
8.05841e-23
1.1739e-21
1.875e-06
1.66957e-23
1.0847e-21
1.875e-06
5.0901e-23
1.0198e-21
1.875e-06
1.12429e-22
9.05092e-22
1.875e-06
4.08733e-23
8.61103e-22
1.875e-06
1.36383e-22
9.66802e-22
1.875e-06
1.44308e-22
9.78322e-22
1.875e-06
1.25577e-22
7.89255e-22
1.875e-06
1.16396e-22
7.5808e-22
1.875e-06
1.12695e-23
5.82289e-22
1.875e-06
5.04539e-23
5.56674e-22
1.875e-06
4.43995e-23
5.95237e-22
1.875e-06
1.20238e-22
5.93564e-22
1.875e-06
1.39531e-22
5.11434e-22
1.875e-06
1.12713e-22
4.0308e-22
1.875e-06
1.07883e-22
3.16352e-22
1.875e-06
1.16373e-22
3.43082e-22
1.875e-06
-2.09994e-23
3.89185e-22
1.875e-06
-1.39741e-22
3.61033e-22
1.875e-06
-1.06817e-22
2.63878e-22
1.875e-06
-9.11583e-23
1.74089e-22
1.875e-06
-4.42788e-24
1.4576e-22
1.875e-06
3.84133e-23
1.86285e-22
1.875e-06
-8.67078e-23
1.64363e-22
1.875e-06
-1.19003e-22
1.41858e-22
1.875e-06
-3.29964e-24
1.9528e-22
1.875e-06
4.31042e-23
1.76907e-22
1.875e-06
-2.38087e-23
-4.22604e-23
1.875e-06
-3.26266e-24
-3.54515e-23
1.875e-06
-2.79008e-23
-2.67888e-22
1.875e-06
-5.82272e-23
-3.87295e-22
1.875e-06
-4.85454e-23
-1.86225e-22
1.875e-06
-9.39909e-23
-3.49868e-23
-2.01273e-23
-2.34992e-22
1.875e-06
-1.59609e-22
6.15646e-22
1.875e-06
1.59828e-23
9.66437e-22
1.875e-06
1.45288e-22
1.15815e-21
1.875e-06
1.70225e-23
1.23061e-21
1.875e-06
-1.40248e-23
1.29295e-21
1.875e-06
1.48808e-23
1.23422e-21
1.875e-06
1.52339e-22
1.23326e-21
1.875e-06
2.91428e-22
1.10093e-21
1.875e-06
1.02804e-22
1.05084e-21
1.875e-06
-6.96701e-23
9.27747e-22
1.875e-06
-2.29708e-23
9.139e-22
1.875e-06
1.19562e-22
8.32973e-22
1.875e-06
1.76647e-22
9.7373e-22
1.875e-06
8.11516e-23
8.01651e-22
1.875e-06
-5.21097e-25
7.8129e-22
1.875e-06
2.66182e-23
7.35082e-22
1.875e-06
1.00631e-22
6.48011e-22
1.875e-06
1.93058e-22
6.42161e-22
1.875e-06
1.48374e-22
6.23015e-22
1.875e-06
6.7424e-23
4.21951e-22
1.875e-06
1.54231e-22
3.74975e-22
1.875e-06
7.32462e-24
3.44244e-22
1.875e-06
-1.1177e-22
3.00095e-22
1.875e-06
-9.57277e-24
3.89592e-22
1.875e-06
-8.64748e-23
3.31643e-22
1.875e-06
3.72561e-23
2.54057e-22
1.875e-06
1.5128e-22
2.30543e-22
1.875e-06
-1.74285e-24
1.4261e-22
1.875e-06
-1.67084e-22
1.25973e-22
1.875e-06
-3.75688e-23
2.28582e-22
1.875e-06
-8.85589e-23
2.68727e-22
1.875e-06
-8.63118e-23
1.66213e-22
1.875e-06
-1.06641e-23
1.03588e-22
1.875e-06
-3.00163e-23
6.1886e-23
1.875e-06
-4.47681e-23
-8.8609e-23
1.875e-06
1.3849e-23
-3.01513e-22
1.875e-06
-4.46363e-23
-3.71495e-22
1.875e-06
-5.68188e-23
-3.37074e-22
1.875e-06
-4.48954e-23
-1.53952e-22
-1.75248e-22
-2.93519e-22
1.875e-06
-2.87721e-23
7.26333e-22
1.875e-06
-1.88539e-22
9.6919e-22
1.875e-06
-5.44073e-23
1.08766e-21
1.875e-06
-1.96799e-23
1.23047e-21
1.875e-06
7.86027e-23
1.37491e-21
1.875e-06
6.78476e-24
1.23402e-21
1.875e-06
1.42197e-23
1.12698e-21
1.875e-06
8.83801e-23
9.74178e-22
1.875e-06
2.546e-23
9.99891e-22
1.875e-06
2.64659e-23
1.03034e-21
1.875e-06
1.77467e-22
9.80113e-22
1.875e-06
7.50231e-23
9.74141e-22
1.875e-06
-6.91279e-24
9.28206e-22
1.875e-06
2.18833e-23
8.40839e-22
1.875e-06
1.05166e-22
8.26193e-22
1.875e-06
8.38514e-23
6.83493e-22
1.875e-06
7.66961e-23
5.53327e-22
1.875e-06
1.54448e-22
5.05629e-22
1.875e-06
7.87554e-23
6.24767e-22
1.875e-06
6.40774e-23
5.92358e-22
1.875e-06
9.80441e-23
3.40243e-22
1.875e-06
8.88809e-23
4.34221e-22
1.875e-06
-5.93361e-23
4.31034e-22
1.875e-06
-2.28108e-22
3.10059e-22
1.875e-06
-1.36544e-22
2.9839e-22
1.875e-06
3.69951e-23
2.23527e-22
1.875e-06
1.19254e-22
1.27978e-22
1.875e-06
-1.45839e-23
1.02888e-22
1.875e-06
1.41175e-23
1.83443e-22
1.875e-06
-3.24099e-23
1.72858e-22
1.875e-06
2.43236e-23
2.60733e-22
1.875e-06
-2.46301e-23
1.84085e-22
1.875e-06
-6.71041e-23
4.75455e-23
1.875e-06
-2.47538e-23
2.35599e-23
1.875e-06
-8.73597e-24
-2.50453e-23
1.875e-06
1.83339e-23
-2.93135e-22
1.875e-06
-4.67213e-23
-3.54335e-22
1.875e-06
-1.86166e-22
-2.76099e-22
1.875e-06
-1.01088e-22
-1.94491e-22
-6.24512e-23
-2.29664e-22
1.875e-06
-4.45105e-23
7.3128e-22
1.875e-06
-1.16112e-22
1.07035e-21
1.875e-06
-1.0521e-22
1.1548e-21
1.875e-06
-1.29833e-22
1.29083e-21
1.875e-06
-9.43902e-23
1.29229e-21
1.875e-06
2.31039e-23
1.29561e-21
1.875e-06
1.29537e-23
1.15026e-21
1.875e-06
1.75176e-23
1.0083e-21
1.875e-06
5.00687e-23
1.10245e-21
1.875e-06
2.19242e-22
9.82721e-22
1.875e-06
1.15338e-22
9.43666e-22
1.875e-06
5.68565e-23
1.05065e-21
1.875e-06
-6.40508e-23
1.04813e-21
1.875e-06
-4.55333e-24
8.57005e-22
1.875e-06
-4.67223e-25
7.32494e-22
1.875e-06
3.98111e-23
6.08695e-22
1.875e-06
1.26735e-22
5.56505e-22
1.875e-06
4.48563e-23
5.60731e-22
1.875e-06
1.42615e-22
5.71247e-22
1.875e-06
1.3205e-22
4.73883e-22
1.875e-06
2.58203e-23
3.6557e-22
1.875e-06
-3.5736e-23
4.11187e-22
1.875e-06
-1.02518e-22
4.26746e-22
1.875e-06
-1.75759e-22
3.16851e-22
1.875e-06
-6.0759e-23
3.00791e-22
1.875e-06
-5.84811e-23
2.34865e-22
1.875e-06
-9.75419e-24
5.02563e-23
1.875e-06
1.25767e-22
9.11716e-23
1.875e-06
1.0194e-23
1.66358e-22
1.875e-06
3.04145e-23
2.1038e-22
1.875e-06
-6.59348e-23
1.3905e-22
1.875e-06
4.00205e-23
1.15615e-22
1.875e-06
-1.31012e-23
2.7392e-23
1.875e-06
-1.03836e-22
1.70201e-23
1.875e-06
-1.65116e-22
-1.5597e-22
1.875e-06
-1.54913e-22
-3.36468e-22
1.875e-06
-4.35274e-23
-2.70915e-22
1.875e-06
1.4074e-23
-1.19358e-22
1.875e-06
-5.01039e-23
-1.70206e-22
-4.54397e-23
-1.86425e-22
1.875e-06
-1.44183e-22
6.15584e-22
1.875e-06
-6.35598e-23
1.00158e-21
1.875e-06
9.85926e-24
1.18169e-21
1.875e-06
-6.13754e-23
1.33001e-21
1.875e-06
-1.1678e-22
1.40811e-21
1.875e-06
-5.85311e-23
1.32511e-21
1.875e-06
-7.66644e-23
1.14915e-21
1.875e-06
-8.36667e-23
1.11685e-21
1.875e-06
8.15274e-23
1.22023e-21
1.875e-06
1.02295e-22
8.74523e-22
1.875e-06
7.31279e-23
8.66761e-22
1.875e-06
9.59793e-23
9.91406e-22
1.875e-06
4.71957e-23
1.12121e-21
1.875e-06
-3.7836e-23
1.00473e-21
1.875e-06
3.4652e-23
7.82765e-22
1.875e-06
1.1605e-22
5.31986e-22
1.875e-06
6.77407e-23
4.0333e-22
1.875e-06
-5.6175e-23
4.89513e-22
1.875e-06
5.35905e-23
5.62716e-22
1.875e-06
1.52073e-22
5.73019e-22
1.875e-06
1.51084e-22
4.71841e-22
1.875e-06
-3.0818e-23
4.29979e-22
1.875e-06
-1.3047e-22
3.54736e-22
1.875e-06
-1.01769e-22
3.13627e-22
1.875e-06
-1.46597e-22
2.26505e-22
1.875e-06
-3.43642e-23
2.85678e-22
1.875e-06
-5.24619e-23
9.26607e-23
1.875e-06
-9.59681e-23
2.12926e-23
1.875e-06
2.44936e-23
1.79295e-22
1.875e-06
3.63089e-23
1.42886e-22
1.875e-06
8.71386e-23
1.24078e-22
1.875e-06
-7.12954e-23
1.30911e-23
1.875e-06
-9.43784e-23
2.27155e-23
1.875e-06
-1.66648e-22
6.10418e-23
1.875e-06
-2.20241e-22
-5.27884e-23
1.875e-06
-1.34429e-22
-2.60947e-22
1.875e-06
-3.04644e-23
-2.77087e-22
1.875e-06
7.71932e-23
-1.80752e-22
1.875e-06
1.84805e-24
-2.7447e-22
-3.68676e-23
-2.70449e-22
1.875e-06
-7.04594e-23
6.65889e-22
1.875e-06
-1.71278e-22
1.05607e-21
1.875e-06
-2.05292e-22
1.12971e-21
1.875e-06
2.24538e-23
1.31072e-21
1.875e-06
8.13148e-23
1.40117e-21
1.875e-06
-5.77772e-23
1.30878e-21
1.875e-06
-1.41569e-22
1.12693e-21
1.875e-06
-1.10123e-22
1.10739e-21
1.875e-06
1.07218e-23
1.17359e-21
1.875e-06
3.55361e-23
1.04446e-21
1.875e-06
1.20641e-23
9.84134e-22
1.875e-06
6.36934e-23
9.84391e-22
1.875e-06
9.76562e-23
1.08711e-21
1.875e-06
3.1606e-23
1.0935e-21
1.875e-06
7.45761e-23
8.55839e-22
1.875e-06
-1.80498e-23
5.91918e-22
1.875e-06
4.31238e-23
5.1567e-22
1.875e-06
2.00125e-22
5.37801e-22
1.875e-06
2.11229e-22
4.57072e-22
1.875e-06
1.01829e-22
4.92072e-22
1.875e-06
-1.15986e-22
3.72269e-22
1.875e-06
-2.08722e-22
4.33799e-22
1.875e-06
-3.70474e-23
4.67951e-22
1.875e-06
-1.61312e-23
3.60392e-22
1.875e-06
-2.74634e-23
3.81323e-22
1.875e-06
-1.28382e-22
2.10273e-22
1.875e-06
-5.71567e-23
9.41017e-23
1.875e-06
-5.03324e-23
1.25388e-22
1.875e-06
-5.86689e-23
9.43287e-23
1.875e-06
1.48493e-23
8.15127e-23
1.875e-06
9.25327e-23
6.67263e-23
1.875e-06
-4.22703e-23
3.90742e-23
1.875e-06
-7.32433e-23
7.31152e-24
1.875e-06
-3.69396e-23
5.76321e-23
1.875e-06
-3.75251e-23
1.77471e-23
1.875e-06
-1.75529e-22
-1.34675e-22
1.875e-06
-7.70147e-23
-1.60686e-22
1.875e-06
-7.76308e-23
-2.49652e-22
1.875e-06
1.33352e-22
-2.60508e-22
1.64146e-22
-2.22037e-22
1.875e-06
-6.89199e-24
7.67232e-22
1.875e-06
-1.94867e-23
1.07681e-21
1.875e-06
1.8752e-23
1.16128e-21
1.875e-06
1.76523e-25
1.31011e-21
1.875e-06
-3.3152e-23
1.3199e-21
1.875e-06
-9.19871e-23
1.29592e-21
1.875e-06
-1.77057e-22
1.23429e-21
1.875e-06
-4.31444e-23
1.24254e-21
1.875e-06
-1.00799e-23
1.19926e-21
1.875e-06
1.57269e-23
1.05245e-21
1.875e-06
1.66722e-23
1.04978e-21
1.875e-06
4.01535e-23
1.00727e-21
1.875e-06
1.27404e-22
1.07057e-21
1.875e-06
1.4173e-22
1.07603e-21
1.875e-06
3.79e-23
8.30482e-22
1.875e-06
-4.89756e-24
7.04104e-22
1.875e-06
-1.26735e-22
5.0597e-22
1.875e-06
-8.69954e-23
3.78271e-22
1.875e-06
4.68455e-23
3.56417e-22
1.875e-06
1.70663e-23
4.06889e-22
1.875e-06
-6.60143e-23
3.39618e-22
1.875e-06
3.79386e-23
5.25177e-22
1.875e-06
-2.72821e-23
4.83776e-22
1.875e-06
-5.60213e-24
4.03088e-22
1.875e-06
3.10755e-24
2.85148e-22
1.875e-06
-5.80226e-23
2.43936e-22
1.875e-06
7.28278e-23
1.99805e-22
1.875e-06
6.77971e-23
1.85696e-22
1.875e-06
-2.40146e-23
1.30702e-22
1.875e-06
-1.44827e-23
2.7103e-23
1.875e-06
-1.07087e-22
-8.62631e-23
1.875e-06
-5.61367e-23
-7.11785e-24
1.875e-06
3.93722e-23
3.18284e-23
1.875e-06
2.75686e-23
5.30753e-23
1.875e-06
3.83846e-23
4.44621e-24
1.875e-06
2.34615e-23
-2.98514e-23
1.875e-06
-1.35519e-23
-1.53332e-23
1.875e-06
-9.86518e-23
-1.28629e-22
1.875e-06
-1.10947e-22
-3.26218e-22
-2.35211e-23
-2.26917e-22
1.875e-06
8.54267e-23
7.89336e-22
1.875e-06
1.34618e-22
1.1426e-21
1.875e-06
-1.05238e-23
1.06336e-21
1.875e-06
-9.73688e-23
1.17398e-21
1.875e-06
-1.33619e-22
1.28874e-21
1.875e-06
3.40259e-23
1.36238e-21
1.875e-06
-1.12276e-22
1.29513e-21
1.875e-06
-2.31723e-22
1.13349e-21
1.875e-06
-1.20273e-22
1.15254e-21
1.875e-06
-2.23906e-24
1.22724e-21
1.875e-06
-1.80924e-22
1.04679e-21
1.875e-06
4.79208e-22
1.06164e-21
1.875e-06
7.67007e-23
9.46271e-22
1.875e-06
1.48876e-22
9.68622e-22
1.875e-06
-2.93675e-23
9.99946e-22
1.875e-06
-1.41137e-22
7.41201e-22
1.875e-06
-4.14084e-23
4.91726e-22
1.875e-06
-9.67157e-23
2.74811e-22
1.875e-06
-1.65665e-22
4.05825e-22
1.875e-06
-3.03836e-23
4.43099e-22
1.875e-06
-6.54085e-23
3.81317e-22
1.875e-06
-7.50714e-23
4.24738e-22
1.875e-06
-1.81676e-23
5.43099e-22
1.875e-06
6.17301e-23
3.3931e-22
1.875e-06
1.50007e-22
3.62482e-22
1.875e-06
6.23744e-23
2.84778e-22
1.875e-06
-9.41605e-23
1.27811e-22
1.875e-06
-7.04949e-24
9.89905e-23
1.875e-06
-9.00703e-23
7.45504e-23
1.875e-06
2.0517e-22
3.99335e-23
1.875e-06
-4.32212e-23
6.32204e-23
1.875e-06
-3.5372e-23
-2.46509e-23
1.875e-06
1.14412e-22
-4.87441e-23
1.875e-06
-1.28384e-22
-3.67838e-23
1.875e-06
8.04061e-23
4.77547e-23
1.875e-06
1.0095e-22
8.08452e-23
1.875e-06
-5.39805e-24
-2.87867e-23
1.875e-06
-4.68065e-23
-1.5004e-22
1.875e-06
-1.68917e-22
-3.5838e-22
-4.62816e-23
-2.09102e-22
1.875e-06
1.84652e-22
6.66122e-22
1.875e-06
1.17423e-22
9.62355e-22
1.875e-06
-2.06321e-23
1.0189e-21
1.875e-06
-3.55286e-23
1.19874e-21
1.875e-06
6.52769e-23
1.33368e-21
1.875e-06
-5.13377e-23
1.24057e-21
1.875e-06
4.05824e-23
1.35754e-21
1.875e-06
-1.19733e-22
1.30704e-21
1.875e-06
-1.37589e-22
1.18607e-21
1.875e-06
-5.90744e-23
1.25176e-21
1.875e-06
2.17702e-23
1.07498e-21
1.875e-06
6.4183e-23
1.07252e-21
1.875e-06
1.24741e-22
1.0785e-21
1.875e-06
-4.35954e-23
8.68774e-22
1.875e-06
-6.29901e-23
9.27113e-22
1.875e-06
1.63905e-23
7.55587e-22
1.875e-06
-1.13927e-22
4.50794e-22
1.875e-06
-1.17747e-22
3.83147e-22
1.875e-06
-4.14318e-23
4.87554e-22
1.875e-06
-4.33327e-23
4.70702e-22
1.875e-06
-1.08757e-22
4.18856e-22
1.875e-06
-1.25472e-22
4.61334e-22
1.875e-06
2.19723e-23
4.90794e-22
1.875e-06
1.52159e-24
2.66226e-22
1.875e-06
-6.17711e-25
2.53638e-22
1.875e-06
9.60031e-23
3.62519e-22
1.875e-06
5.56406e-23
9.34939e-23
1.875e-06
5.94405e-23
1.13235e-22
1.875e-06
1.01409e-22
8.76876e-23
1.875e-06
3.35802e-23
4.45518e-23
1.875e-06
1.16833e-23
-3.05059e-23
1.875e-06
-3.99974e-23
-7.22239e-23
1.875e-06
-1.13083e-22
-7.31863e-23
1.875e-06
8.5032e-23
6.9653e-23
1.875e-06
9.78585e-23
5.02997e-23
1.875e-06
2.29657e-22
9.17844e-24
1.875e-06
6.32869e-23
-1.14447e-22
1.875e-06
-2.38124e-23
-2.4186e-22
1.875e-06
-1.40547e-22
-2.48998e-22
-2.21688e-22
-1.62283e-22
1.875e-06
6.67379e-23
4.79252e-22
1.875e-06
1.34165e-22
8.91038e-22
1.875e-06
5.53288e-24
1.04234e-21
1.875e-06
8.24551e-24
1.11781e-21
1.875e-06
2.36838e-23
1.22549e-21
1.875e-06
7.30648e-23
1.27208e-21
1.875e-06
1.26127e-23
1.31044e-21
1.875e-06
-7.94463e-24
1.27945e-21
1.875e-06
-3.59175e-23
1.26047e-21
1.875e-06
-1.5235e-22
1.37508e-21
1.875e-06
-9.88057e-24
1.18932e-21
1.875e-06
-5.44543e-23
1.01234e-21
1.875e-06
-1.6054e-22
9.8671e-22
1.875e-06
-1.88555e-22
8.84022e-22
1.875e-06
-1.16565e-22
8.74031e-22
1.875e-06
-7.09239e-23
6.88704e-22