/*--------------------------------*- C++ -*----------------------------------*\
| =========                 |                                                 |
| \\      /  F ield         | OpenFOAM: The Open Source CFD Toolbox           |
|  \\    /   O peration     | Version:  v2012                                 |
|   \\  /    A nd           | Website:  www.openfoam.com                      |
|    \\/     M anipulation  |                                                 |
\*---------------------------------------------------------------------------*/
FoamFile
{
    version     2.0;
    format      ascii;
    class       volScalarField;
    location    "420/rightSolid";
    object      T;
}
// * * * * * * * * * * * * * * * * * * * * * * * * * * * * * * * * * * * * * //

dimensions      [0 0 0 1 0 0 0];


internalField   nonuniform List<scalar> 
130
(
751.75054
759.79066
768.18444
776.49292
784.3906
791.65999
798.15627
803.79779
808.53919
812.34424
815.19921
817.10221
818.05392
745.88026
755.24749
764.81271
774.06073
782.66987
790.46209
797.32933
803.22527
808.13963
812.06729
815.00488
816.95958
817.93549
734.07393
746.49962
758.58247
769.7274
779.7015
788.45189
795.97103
802.30721
807.51472
811.64171
814.71
816.74395
817.75766
716.38096
734.60261
750.77948
764.6339
776.37319
786.26302
794.53326
801.36452
806.89989
811.24337
814.45261
816.57433
817.63173
695.47533
723.2704
744.26915
760.72529
773.9413
784.70929
793.52965
800.71782
806.4868
810.97472
814.27584
816.45587
817.53974
695.22164
723.01419
743.99165
760.45851
773.70091
784.49924
793.35398
800.57294
806.37382
810.88779
814.20727
816.39603
817.48598
715.53364
733.80837
749.98519
763.89283
775.71267
785.68089
794.0398
800.97017
806.58827
810.99121
814.24673
816.4007
817.47502
732.72533
745.21572
757.34716
768.58382
778.67512
787.53987
795.18453
801.65201
806.98886
811.23119
814.38514
816.47724
817.52183
744.26522
753.67159
763.28227
772.62352
781.37559
789.31593
796.33498
802.38074
807.44788
811.53396
814.5851
816.61319
817.6254
749.98881
758.06674
766.50859
774.91207
782.97255
790.40493
797.0627
802.86055
807.75844
811.74286
814.7304
816.72002
817.71307
)
;

boundaryField
{
    maxX
    {
        type            zeroGradient;
    }
    minZ
    {
        type            zeroGradient;
    }
    maxZ
    {
        type            zeroGradient;
    }
    rightSolid_to_bottomWater
    {
        type            compressible::turbulentTemperatureCoupledBaffleMixed;
        refValue        nonuniform List<scalar> 
130
(
940.84192
940.78255
942.12578
942.65382
942.29277
942.46158
942.04309
941.95923
943.44621
943.812
943.64083
943.37412
943.19374
938.30832
938.66353
940.96589
941.32859
940.41857
941.36332
941.82368
941.55292
942.30705
943.75142
944.21393
944.63232
944.465
936.33315
936.13237
939.26222
939.76961
939.58232
942.8175
942.62975
942.25015
941.87194
943.44804
943.89373
944.18199
943.85376
926.93762
925.33443
938.59599
939.24273
939.85927
940.44158
941.01262
940.95972
941.26929
943.58894
944.4973
945.39398
946.2394
908.16933
917.73035
931.46228
936.59734
938.07918
938.43722
939.85888
941.43754
943.38692
944.37477
944.75803
946.5829
947.07946
911.30328
921.98409
927.11986
931.5825
934.07582
935.34312
938.64472
939.83397
943.03544
944.95933
945.85928
946.7758
947.59034
922.43694
928.86591
930.46035
932.66398
936.37843
936.25199
938.11476
942.61974
944.21864
944.9476
945.65621
946.65068
947.41715
926.36946
931.23751
930.64088
932.43179
934.09205
935.99392
937.11164
938.83695
941.48339
945.4748
946.33419
947.0337
947.50209
935.11272
934.03216
932.17443
931.48425
934.34338
935.97128
937.73724
937.93593
939.79174
946.84104
947.13186
947.25216
946.99849
933.85388
935.33183
933.38894
931.90206
939.22742
940.00557
940.33082
940.24441
939.49667
947.00404
947.44006
947.57323
947.17215
)
;
        refGradient     uniform 0;
        valueFraction   nonuniform List<scalar> 
130
(
0.0075140686
0.0075140686
0.0075140686
0.0075140686
0.0075140686
0.0075140686
0.0075140686
0.0075140686
0.0075140686
0.0075140686
0.0075140686
0.0075140686
0.0075140686
0.0075140686
0.0075140686
0.0075140686
0.0075140686
0.0075140686
0.0075140686
0.0075140686
0.0075140686
0.0075140686
0.0075140686
0.0075140686
0.0075140686
0.0075140686
0.0075140686
0.0075140686
0.0075140686
0.0075140686
0.0075140686
0.0075140686
0.0075140686
0.0075140686
0.0075140686
0.0075140686
0.0075140686
0.0075140686
0.0075140686
0.0075140686
0.0075140686
0.0075140686
0.0075140686
0.0075140686
0.0075140686
0.0075140686
0.0075140686
0.0075140686
0.0075140686
0.0075140686
0.0075140686
0.0075140686
0.0075140686
0.0075140686
0.0075140686
0.0075140686
0.0075140686
0.0075140686
0.0075140686
0.0075140686
0.0075140686
0.0075140686
0.0075140686
0.0075140686
0.0075140686
0.0075140686
0.0075140686
0.0075140686
0.0075140686
0.0075140686
0.0075140686
0.0075140686
0.0075140686
0.0075140686
0.0075140686
0.0075140686
0.0075140686
0.0075140686
0.0075140686
0.0075140686
0.0075140686
0.0075140686
0.0075140686
0.0075140686
0.0075140686
0.0075140686
0.0075140686
0.0075140686
0.0075140686
0.0075140686
0.0075140686
0.0075140686
0.0075140686
0.0075140686
0.0075140686
0.0075140686
0.0075140686
0.0075140686
0.0075140686
0.0075140686
0.0075140686
0.0075140686
0.0075140686
0.0075140686
0.0075140686
0.0075140686
0.0075140686
0.0075140686
0.0075140686
0.0075140686
0.0075140686
0.0075140686
0.0075140686
0.0075140686
0.0075140686
0.0075140686
0.0075140686
0.0075140686
0.0075140686
0.0075140686
0.0075140686
0.0075140686
0.0075140686
0.0075140686
0.0075140686
0.0075140686
0.0075140686
0.0075140686
0.0075140686
0.0075140686
)
;
        value           nonuniform List<scalar> 
130
(
753.17072
761.14999
769.49078
777.74076
785.57633
792.79231
799.23658
804.83505
809.55196
813.33113
816.16334
818.05002
818.99322
747.32553
756.62504
766.13568
775.3169
783.85445
791.59515
798.41419
804.26374
809.14683
813.05579
815.97476
817.9179
818.88521
735.59308
747.92389
759.93944
771.00437
780.90204
789.61092
797.0721
803.35778
808.52329
812.63109
815.67967
817.70049
818.70412
717.9625
736.03518
752.1901
765.94518
777.60079
787.42061
795.63297
802.41246
807.90854
812.2368
815.42875
817.54126
818.59706
697.0731
724.7312
745.67523
762.04613
775.17382
785.86352
794.62824
801.77421
807.51445
811.97605
815.25523
817.43259
818.51205
696.84486
724.50878
745.36714
761.74371
774.90521
785.63183
794.44476
801.61835
807.39965
811.89414
815.19543
817.37463
818.46251
717.0877
735.27336
751.34057
765.16024
776.91911
786.81142
795.12145
802.03354
807.62139
811.9967
815.23306
817.37832
818.45033
734.17955
746.61262
758.64842
769.81418
779.84216
788.65454
796.25008
802.68185
807.99841
812.23883
815.37552
817.45716
818.49742
745.69838
755.02592
764.55042
773.81632
782.5241
790.41697
797.3965
803.39827
808.44123
812.54958
815.57998
817.59372
818.59642
751.36953
759.39781
767.76162
776.09075
784.14565
791.52799
798.13814
803.89173
808.74719
812.75811
815.72647
817.70214
818.68472
)
;
        Tnbr            T;
        thicknessLayers List<scalar> 0();
        kappaLayers     List<scalar> 0();
        kappaMethod     solidThermo;
        kappa           none;
        alphaAni        none;
        alpha           none;
        field           T;
    }
    rightSolid_to_topAir
    {
        type            compressible::turbulentTemperatureCoupledBaffleMixed;
        refValue        nonuniform List<scalar> 
130
(
489.43637
482.94327
477.24696
472.6406
469.21838
466.97207
465.84829
465.77605
466.70116
468.64699
471.82065
476.79849
484.34416
434.9655
429.72782
426.50019
424.6503
423.78069
423.72647
424.44849
425.92289
428.14141
431.2062
435.55202
442.36124
452.38718
443.60095
435.48031
428.52832
422.80707
418.46028
415.65445
414.44765
414.72738
416.24369
418.78666
422.48227
428.59476
440.981
495.47694
496.45006
496.19907
494.47283
491.60292
488.19755
484.70255
481.30295
478.24945
476.76342
479.646
487.96835
498.3776
500.99473
505.07691
509.37286
513.53209
517.25042
520.30767
522.57784
524.04389
524.86822
525.58999
527.27922
531.32444
539.29804
498.60957
503.12751
507.90579
512.63639
517.00095
520.68431
523.43269
525.141
526.00047
526.64411
528.20638
532.286
540.81111
496.5888
497.8197
498.3773
497.81712
495.95556
492.82571
488.61791
483.82928
479.52354
477.44513
479.6681
486.66343
497.31385
446.34444
437.33142
429.72341
423.44097
418.37024
414.52184
412.02054
410.979
411.41071
413.27078
416.59654
422.26773
432.51915
437.68011
432.15641
428.73693
426.7797
425.78082
425.43328
425.60583
426.29473
427.58946
429.71215
433.10397
438.79694
448.5381
490.58287
484.19136
478.5515
473.97539
470.5402
468.19299
466.83851
466.39785
466.84948
468.27576
470.92549
475.37846
482.54089
)
;
        refGradient     uniform 0;
        valueFraction   nonuniform List<scalar> 
130
(
0.00032132529
0.00032132529
0.00032132529
0.00032132529
0.00032132529
0.00032132529
0.00032132529
0.00032132529
0.00032132529
0.00032132529
0.00032132529
0.00032132529
0.00032132529
0.00032132529
0.00032132529
0.00032132529
0.00032132529
0.00032132529
0.00032132529
0.00032132529
0.00032132529
0.00032132529
0.00032132529
0.00032132529
0.00032132529
0.00032132529
0.00032132529
0.00032132529
0.00032132529
0.00032132529
0.00032132529
0.00032132529
0.00032132529
0.00032132529
0.00032132529
0.00032132529
0.00032132529
0.00032132529
0.00032132529
0.00032132529
0.00032132529
0.00032132529
0.00032132529
0.00032132529
0.00032132529
0.00032132529
0.00032132529
0.00032132529
0.00032132529
0.00032132529
0.00032132529
0.00032132529
0.00032132529
0.00032132529
0.00032132529
0.00032132529
0.00032132529
0.00032132529
0.00032132529
0.00032132529
0.00032132529
0.00032132529
0.00032132529
0.00032132529
0.00032132529
0.00032132529
0.00032132529
0.00032132529
0.00032132529
0.00032132529
0.00032132529
0.00032132529
0.00032132529
0.00032132529
0.00032132529
0.00032132529
0.00032132529
0.00032132529
0.00032132529
0.00032132529
0.00032132529
0.00032132529
0.00032132529
0.00032132529
0.00032132529
0.00032132529
0.00032132529
0.00032132529
0.00032132529
0.00032132529
0.00032132529
0.00032132529
0.00032132529
0.00032132529
0.00032132529
0.00032132529
0.00032132529
0.00032132529
0.00032132529
0.00032132529
0.00032132529
0.00032132529
0.00032132529
0.00032132529
0.00032132529
0.00032132529
0.00032132529
0.00032132529
0.00032132529
0.00032132529
0.00032132529
0.00032132529
0.00032132529
0.00032132529
0.00032132529
0.00032132529
0.00032132529
0.00032132529
0.00032132529
0.00032132529
0.00032132529
0.00032132529
0.00032132529
0.00032132529
0.00032132529
0.00032132529
0.00032132529
0.00032132529
0.00032132529
0.00032132529
)
;
        value           nonuniform List<scalar> 
130
(
751.66558
759.70104
768.09028
776.39458
784.28857
791.55484
798.04862
803.68827
808.42841
812.23283
815.08788
816.99185
817.94567
745.7797
755.14224
764.70334
773.94775
782.55379
790.34342
797.20862
803.1031
808.01657
811.94392
814.88194
816.83818
817.817
733.97995
746.39903
758.47574
769.61518
779.5846
788.33121
795.8475
802.18169
807.38799
811.51445
814.58294
816.61818
817.63555
716.30937
734.52548
750.69703
764.54634
776.28083
786.16632
794.43275
801.26068
806.79327
811.13486
814.34399
816.4677
817.5281
695.41241
723.1999
744.19316
760.64518
773.85799
784.62343
793.44164
800.62793
806.39528
810.88196
814.18255
816.36318
817.44927
695.15803
722.94304
743.91524
760.37824
773.61765
784.4136
793.26629
800.48342
806.28267
810.79537
814.11428
816.30364
817.39599
715.46266
733.73185
749.90361
763.80658
775.62196
785.58591
793.94071
800.86726
806.48212
810.88295
814.13813
816.29366
817.37105
732.63247
745.11591
757.241
768.47211
778.55856
787.41918
795.0605
801.52549
806.86069
811.10223
814.25622
816.34947
817.39702
744.16582
753.56736
763.17384
772.51149
781.26042
789.19806
796.21487
802.25885
807.32473
811.41018
814.46142
816.49068
817.5057
749.90459
757.97782
766.41513
774.81442
782.87114
790.30034
796.9555
802.7513
807.64775
811.63137
814.6188
816.60921
817.60424
)
;
        Tnbr            T;
        thicknessLayers List<scalar> 0();
        kappaLayers     List<scalar> 0();
        kappaMethod     solidThermo;
        kappa           none;
        alphaAni        none;
        alpha           none;
        field           T;
    }
    rightSolid_to_heater
    {
        type            compressible::turbulentTemperatureCoupledBaffleMixed;
        refValue        nonuniform List<scalar> 10(744.56415 737.37979 722.38034 697.57828 656.43295 656.18617 696.67811 720.97924 735.72263 742.78116);
        refGradient     uniform 0;
        valueFraction   nonuniform List<scalar> 10(0.50000003 0.50000003 0.50000003 0.50000003 0.50000003 0.50000003 0.50000003 0.50000003 0.50000003 0.50000003);
        value           nonuniform List<scalar> 10(748.15701 741.6297 728.22681 706.97932 675.95393 675.70368 706.10556 726.85186 739.99348 746.38455);
        Tnbr            T;
        thicknessLayers List<scalar> 0();
        kappaLayers     List<scalar> 0();
        kappaMethod     solidThermo;
        kappa           none;
        alphaAni        none;
        alpha           none;
        field           T;
    }
}


// ************************************************************************* //
