/*--------------------------------*- C++ -*----------------------------------*\
| =========                 |                                                 |
| \\      /  F ield         | OpenFOAM: The Open Source CFD Toolbox           |
|  \\    /   O peration     | Version:  v2012                                 |
|   \\  /    A nd           | Website:  www.openfoam.com                      |
|    \\/     M anipulation  |                                                 |
\*---------------------------------------------------------------------------*/
FoamFile
{
    version     2.0;
    format      ascii;
    class       volScalarField;
    location    "150/heater";
    object      T;
}
// * * * * * * * * * * * * * * * * * * * * * * * * * * * * * * * * * * * * * //

dimensions      [0 0 0 1 0 0 0];


internalField   nonuniform List<scalar> 
80
(
629.80209
631.09246
633.61586
637.22192
623.42446
624.96484
627.99519
632.3405
609.81915
611.85495
615.97574
622.04823
587.30953
589.88928
595.5476
604.77732
339.68824
336.81517
336.8611
339.7775
404.02952
400.31698
400.5254
404.54075
456.532
453.16657
453.72115
457.90351
498.80057
496.26004
497.62176
502.22521
531.46016
530.44348
533.61271
540.03338
553.91135
556.08798
562.51297
575.85532
339.71755
336.83287
336.85814
339.72307
404.08007
400.34427
400.54177
404.56422
456.55637
453.18772
453.74355
457.9372
498.7804
496.26406
497.63175
502.23961
531.41282
530.43335
533.60559
539.99152
553.89653
556.08186
562.5084
575.83856
587.30573
589.90482
595.58026
604.81347
609.8333
611.88588
616.01398
622.07879
623.43111
624.98023
628.01386
632.32072
629.81766
631.09163
633.59561
637.1375
)
;

boundaryField
{
    minY
    {
        type            fixedValue;
        value           uniform 300;
    }
    minZ
    {
        type            zeroGradient;
    }
    maxZ
    {
        type            zeroGradient;
    }
    heater_to_topAir
    {
        type            compressible::turbulentTemperatureCoupledBaffleMixed;
        refValue        nonuniform List<scalar> 
40
(
442.61912
444.51061
445.09523
444.42456
423.60651
421.44054
418.23571
414.60611
430.60625
429.91156
427.47119
423.2025
439.56266
442.49308
444.9655
446.5503
438.98859
441.16626
443.42746
445.26701
438.98947
441.16853
443.49286
445.72571
439.60656
442.5761
445.14005
446.91678
430.65775
429.99579
427.61287
423.43282
423.64711
421.49952
418.31378
414.69773
442.61276
444.51705
445.11902
444.46647
)
;
        refGradient     uniform 0;
        valueFraction   nonuniform List<scalar> 
40
(
0.00032132529
0.00032132529
0.00032132529
0.00032132529
0.00032132529
0.00032132529
0.00032132529
0.00032132529
0.00032132529
0.00032132529
0.00032132529
0.00032132529
0.00032132529
0.00032132529
0.00032132529
0.00032132529
0.00032132529
0.00032132529
0.00032132529
0.00032132529
0.00032132529
0.00032132529
0.00032132529
0.00032132529
0.00032132529
0.00032132529
0.00032132529
0.00032132529
0.00032132529
0.00032132529
0.00032132529
0.00032132529
0.00032132529
0.00032132529
0.00032132529
0.00032132529
0.00032132529
0.00032132529
0.00032132529
0.00032132529
)
;
        value           nonuniform List<scalar> 
40
(
629.72654
631.01697
633.53946
637.14375
623.34529
624.88434
627.91237
632.25467
609.74752
611.78225
615.90055
621.96918
587.24945
589.82908
595.48587
604.71238
553.86383
556.04022
562.46336
575.80108
553.84898
556.03406
562.45877
575.78442
587.24548
589.84449
595.51848
604.74859
609.76142
611.81299
615.93864
621.99964
623.35175
624.89952
627.93086
632.23476
629.74189
631.01592
633.51903
637.05922
)
;
        Tnbr            T;
        thicknessLayers List<scalar> 0();
        kappaLayers     List<scalar> 0();
        kappaMethod     solidThermo;
        kappa           none;
        alphaAni        none;
        alpha           none;
        field           T;
    }
    heater_to_rightSolid
    {
        type            compressible::turbulentTemperatureCoupledBaffleMixed;
        refValue        nonuniform List<scalar> 10(641.60811 637.64503 629.57857 617.36626 602.8808 602.83723 617.38046 629.58759 637.5905 641.48163);
        refGradient     uniform 0;
        valueFraction   nonuniform List<scalar> 10(0.49999997 0.49999997 0.49999997 0.49999997 0.49999997 0.49999997 0.49999997 0.49999997 0.49999997 0.49999997);
        value           nonuniform List<scalar> 10(639.4069 634.98483 625.80582 611.06474 589.36192 589.33173 611.08989 625.82553 634.94759 639.30138);
        Tnbr            T;
        thicknessLayers List<scalar> 0();
        kappaLayers     List<scalar> 0();
        kappaMethod     solidThermo;
        kappa           none;
        alphaAni        none;
        alpha           none;
        field           T;
    }
    heater_to_leftSolid
    {
        type            compressible::turbulentTemperatureCoupledBaffleMixed;
        refValue        nonuniform List<scalar> 10(685.17141 685.06748 684.8619 684.53322 684.27875 684.27286 684.56903 684.90351 685.13912 685.21235);
        refGradient     uniform 0;
        valueFraction   nonuniform List<scalar> 10(2.0832898e-05 2.0832898e-05 2.0832898e-05 2.0832898e-05 2.0832898e-05 2.0832898e-05 2.0832898e-05 2.0832898e-05 2.0832898e-05 2.0832898e-05);
        value           nonuniform List<scalar> 10(629.78784 623.41078 609.80666 587.29894 553.90347 553.88861 587.29497 609.82056 623.41722 629.8032);
        Tnbr            T;
        thicknessLayers List<scalar> 1(0.001);
        kappaLayers     List<scalar> 1(0.0005);
        kappaMethod     solidThermo;
        kappa           none;
        alphaAni        none;
        alpha           none;
        field           T;
    }
    heater_to_bottomWater
    {
        type            compressible::turbulentTemperatureCoupledBaffleMixed;
        refValue        nonuniform List<scalar> 
92
(
977.30898
975.33221
974.31801
980.60979
978.27256
976.39022
975.45798
977.71507
976.2861
974.24722
977.13283
976.77159
965.07262
968.98835
970.21308
971.65082
971.987
972.72738
971.67657
971.42054
971.22904
971.62499
968.37579
969.41551
970.48949
970.68993
968.89262
964.73135
966.77857
966.77857
965.03905
965.03905
962.82343
962.82343
961.37219
961.37219
953.92608
945.40846
967.64638
969.46638
964.24255
966.62243
960.49646
963.61271
953.64918
954.20677
952.0426
979.26354
975.58554
972.08267
928.6775
975.3284
971.89686
978.2722
977.04216
973.92432
973.86373
974.57284
963.57824
978.94845
975.94382
973.82958
969.77474
975.15552
955.74793
973.38983
974.48297
972.56246
963.85531
974.61935
945.24563
966.76057
967.44272
966.71446
944.88174
966.94737
966.76057
967.44272
966.71446
966.94737
978.87681
979.11923
981.93956
982.077
979.29265
979.65331
982.76616
979.99929
981.95041
977.68474
979.28208
977.44063
)
;
        refGradient     uniform 0;
        valueFraction   nonuniform List<scalar> 
92
(
0.0075140686
0.0075140686
0.0075140686
0.0075140686
0.0075140686
0.0075140686
0.0075140686
0.0075140686
0.0075140686
0.0075140686
0.0075140686
0.0075140686
0.0075140686
0.0075140686
0.0075140686
0.0075140686
0.0075140686
0.0075140686
0.0075140686
0.0075140686
0.0075140686
0.0075140686
0.0075140686
0.0075140686
0.0075140686
0.0075140686
0.0075140686
0.0075140686
0.0075140686
0.0075140686
0.0075140686
0.0075140686
0.0075140686
0.0075140686
0.0075140686
0.0075140686
0.0075140679
0.0075140679
0.0075140679
0.0075140679
0.0075140679
0.0075140679
0.0075140679
0.0075140679
0.0075140679
0.0075140679
0.0075140679
0.0075140686
0.0075140686
0.0075140686
0.0075140679
0.0075140686
0.0075140679
0.0075140686
0.0075140686
0.0075140686
0.0075140679
0.0075140686
0.0075140679
0.0075140686
0.0075140686
0.0075140686
0.0075140679
0.0075140686
0.0075140679
0.0075140686
0.0075140686
0.0075140686
0.0075140679
0.0075140686
0.0075140679
0.0075140686
0.0075140686
0.0075140686
0.0075140679
0.0075140686
0.0075140686
0.0075140686
0.0075140686
0.0075140686
0.0075140686
0.0075140686
0.0075140686
0.0075140686
0.0075140686
0.0075140686
0.0075140686
0.0075140686
0.0075140686
0.0075140686
0.0075140686
0.0075140686
)
;
        value           nonuniform List<scalar> 
92
(
632.39799
633.66368
636.16021
639.78606
626.07596
627.59048
630.59074
634.91991
612.55886
614.56386
618.67498
624.6986
344.3866
341.56448
341.61927
344.5246
408.2945
404.61537
404.81433
408.79762
460.39483
457.05759
457.58356
461.74234
502.33825
499.81818
501.15604
505.69361
590.14837
534.72258
592.69544
533.70024
598.29409
536.82873
607.44281
543.19003
344.30284
344.32742
408.26189
408.78294
460.34234
461.72136
502.26316
505.68521
534.62392
543.13619
344.31777
344.52231
341.6316
341.63037
344.14765
344.49819
408.34396
408.39187
404.67483
404.8474
408.83918
408.84451
460.3615
460.477
457.11098
457.64666
461.7783
461.81873
502.20744
502.34001
499.85062
501.19344
505.70113
505.78201
534.51382
534.67549
533.70822
536.85083
543.02437
543.19018
590.14429
592.72877
598.35564
607.52052
612.59212
614.63095
618.74888
624.76863
626.09002
627.63005
630.66399
634.91728
632.44811
633.6803
636.17722
639.67831
)
;
        Tnbr            T;
        thicknessLayers List<scalar> 0();
        kappaLayers     List<scalar> 0();
        kappaMethod     solidThermo;
        kappa           none;
        alphaAni        none;
        alpha           none;
        field           T;
    }
}


// ************************************************************************* //
