/*--------------------------------*- C++ -*----------------------------------*\
| =========                 |                                                 |
| \\      /  F ield         | OpenFOAM: The Open Source CFD Toolbox           |
|  \\    /   O peration     | Version:  v2012                                 |
|   \\  /    A nd           | Website:  www.openfoam.com                      |
|    \\/     M anipulation  |                                                 |
\*---------------------------------------------------------------------------*/
FoamFile
{
    version     2.0;
    format      ascii;
    class       volScalarField;
    location    "180/bottomWater";
    object      p;
}
// * * * * * * * * * * * * * * * * * * * * * * * * * * * * * * * * * * * * * //

dimensions      [1 -1 -2 0 0 0 0];


internalField   nonuniform List<scalar> 
1460
(
353.40612
353.40793
353.40997
353.40971
353.41508
353.39636
353.40109
353.40063
353.40555
353.39805
353.40717
353.39092
353.39741
353.39605
353.39914
353.41761
353.40823
353.42451
353.4147
353.41255
353.42065
353.41382
353.4119
353.4189
353.42901
353.43209
353.42824
353.43276
353.43173
353.43094
274.48803
274.49825
274.5104
274.51767
274.50652
274.47488
274.46395
274.47428
274.47289
274.47459
274.49341
274.4759
274.47148
274.47688
274.48661
274.52035
274.5147
274.53395
274.48112
274.44898
274.44415
274.44975
274.46576
274.48364
274.50667
274.52197
274.5137
274.50159
274.46453
274.44396
196.2639
196.25246
196.26708
196.25033
196.24737
196.28316
196.27941
196.28507
196.27837
196.29343
196.24486
196.30449
196.29095
196.27964
196.26891
196.24975
196.25302
196.22192
196.22815
196.24901
196.28272
196.27444
196.26204
196.25896
196.25558
196.25557
196.25425
196.25475
196.2236
196.26288
117.64792
117.66111
117.67687
117.68478
117.69798
117.68046
117.67663
117.63829
117.62964
117.63654
117.63959
117.66066
117.69945
117.68862
117.69044
117.70496
117.68484
117.66395
117.67307
117.67737
117.68325
117.65636
117.63399
117.66168
117.68823
117.69587
117.69168
117.67489
117.64636
117.67538
39.253649
39.230013
39.223553
39.227384
39.226604
39.224314
39.223727
39.245033
39.277151
39.264266
39.251363
39.222803
39.22619
39.227432
39.227554
39.227994
39.217067
39.240192
39.237583
39.241739
39.246936
39.249758
39.248591
39.220645
39.225029
39.237691
39.223068
39.222972
39.240151
39.240616
353.40857
353.40276
353.42281
353.4008
353.41093
353.40909
353.41568
353.40262
353.4117
353.40673
353.40773
353.40041
353.40228
353.41583
353.41911
353.41512
353.41025
353.40804
353.40574
353.41218
353.41277
353.41032
353.4084
353.42771
353.41231
353.42338
353.42481
353.43401
353.4262
353.43128
274.46136
274.46446
274.50152
274.48117
274.47667
274.4951
274.4891
274.46296
274.45089
274.45107
274.44326
274.46889
274.46908
274.51923
274.53886
274.5063
274.47854
274.46382
274.44969
274.4378
274.44225
274.44199
274.46784
274.48444
274.46625
274.47941
274.49444
274.4852
274.43723
274.43956
196.26614
196.24673
196.22768
196.25961
196.25956
196.26007
196.23211
196.25865
196.27977
196.29774
196.25478
196.25369
196.23028
196.22008
196.22947
196.25266
196.25828
196.24725
196.25852
196.2776
196.2926
196.26167
196.26628
196.25429
196.26923
196.23578
196.23722
196.21946
196.23036
196.26977
117.67289
117.64311
117.64253
117.63514
117.6546
117.64753
117.65252
117.62874
117.66873
117.66585
117.67067
117.63133
117.65383
117.6571
117.65459
117.66859
117.65586
117.63962
117.63889
117.67614
117.68333
117.67245
117.62675
117.66024
117.6491
117.65099
117.65548
117.64626
117.63297
117.67659
39.228009
39.225998
39.244315
39.249707
39.233686
39.227528
39.230703
39.250002
39.250495
39.260258
39.246617
39.241234
39.233257
39.234195
39.234412
39.221127
39.233902
39.251711
39.254157
39.257171
39.262685
39.247184
39.249967
39.234427
39.229039
39.239127
39.228055
39.241241
39.250086
39.254116
353.40194
353.39864
353.39844
353.40087
353.40134
353.39805
353.40055
353.39977
353.40606
353.40239
353.39821
353.40203
353.40818
353.41733
353.41995
353.40294
353.41003
353.41162
353.41134
353.40944
353.40357
353.41043
353.40921
353.41829
353.41962
353.42048
353.41991
353.42268
353.42491
353.42727
274.45735
274.45101
274.47205
274.45207
274.45439
274.46674
274.46332
274.44882
274.4487
274.46288
274.46728
274.45578
274.45271
274.47536
274.5185
274.4865
274.4614
274.44494
274.44668
274.44848
274.4579
274.45846
274.44215
274.43825
274.43868
274.44267
274.44824
274.45376
274.42202
274.43525
196.30321
196.28278
196.26356
196.28309
196.27403
196.27583
196.27604
196.28867
196.30911
196.30022
196.30411
196.2932
196.26896
196.24218
196.22332
196.25631
196.2752
196.26241
196.28152
196.28396
196.27864
196.26624
196.2763
196.28707
196.28641
196.27844
196.27426
196.26917
196.26668
196.31979
117.6838
117.67885
117.64652
117.69373
117.68282
117.64082
117.64257
117.66989
117.68534
117.64346
117.6464
117.6749
117.66989
117.65249
117.65381
117.6606
117.66922
117.68063
117.68986
117.67273
117.64357
117.64622
117.66395
117.68512
117.67485
117.65518
117.64882
117.63878
117.67638
117.68753
39.259164
39.253965
39.263051
39.258273
39.251434
39.277304
39.266186
39.263157
39.273669
39.301129
39.28767
39.253411
39.248366
39.251284
39.248707
39.233748
39.230485
39.239839
39.253998
39.248898
39.271395
39.256868
39.238093
39.24688
39.24666
39.269846
39.280697
39.260432
39.265039
39.268878
353.40318
353.40183
353.40065
353.39989
353.39726
353.40832
353.40144
353.39912
353.41066
353.40467
353.41934
353.40185
353.40884
353.40678
353.40346
353.40449
353.40452
353.40652
353.39934
353.40372
353.41416
353.4195
353.41447
353.41973
353.42196
353.42969
353.42295
353.42179
353.42431
353.42403
274.45841
274.45065
274.46724
274.47456
274.47654
274.49767
274.46796
274.44873
274.44816
274.45981
274.47632
274.46214
274.45544
274.45745
274.47805
274.47237
274.46432
274.46034
274.46244
274.46869
274.50154
274.49986
274.47515
274.44854
274.43638
274.43161
274.42828
274.45043
274.44545
274.43315
196.29781
196.27559
196.26259
196.26537
196.25762
196.23594
196.25339
196.24432
196.2685
196.27911
196.2223
196.27342
196.28075
196.28093
196.26357
196.27569
196.28119
196.28867
196.28134
196.2574
196.24158
196.25174
196.2355
196.25951
196.27308
196.30194
196.2589
196.26603
196.26406
196.27468
117.68441
117.67651
117.65268
117.64135
117.63501
117.64546
117.64396
117.66521
117.67555
117.64729
117.66142
117.66099
117.67735
117.66742
117.65225
117.64391
117.65895
117.67252
117.67198
117.667
117.66114
117.67166
117.65767
117.6447
117.67833
117.69048
117.68468
117.65233
117.64219
117.68386
39.252826
39.247827
39.239484
39.247869
39.261244
39.250191
39.223427
39.238813
39.247018
39.267675
39.258799
39.253019
39.251028
39.251609
39.236014
39.27135
39.244256
39.232778
39.228186
39.231992
39.244247
39.227951
39.242381
39.251067
39.257528
39.27444
39.269959
39.255053
39.268798
39.257939
353.40204
353.39361
353.40632
353.40808
353.41404
353.41439
353.41483
353.40811
353.41194
353.41443
353.41801
353.41622
353.4111
353.42087
353.42242
353.42231
353.42246
353.42588
353.42476
353.42638
353.42139
353.42381
353.42142
353.42581
353.42735
353.42091
274.46358
274.4655
274.49287
274.50771
274.51812
274.52558
274.50511
274.46932
274.45307
274.45739
274.49336
274.49442
274.4708
274.45974
274.47543
274.5049
274.51894
274.52055
274.51307
274.4861
274.46074
274.44628
274.46192
274.48561
274.48633
274.46361
196.26597
196.24238
196.23832
196.24256
196.24552
196.24805
196.24155
196.21827
196.25725
196.27779
196.2506
196.24142
196.26566
196.25867
196.23357
196.24827
196.26639
196.2596
196.26056
196.23404
196.25691
196.25575
196.2503
196.24686
196.25242
196.26584
117.68366
117.6643
117.67478
117.68173
117.68342
117.68106
117.68798
117.65239
117.67699
117.67196
117.67096
117.6698
117.66884
117.6689
117.65863
117.67185
117.66754
117.68795
117.67111
117.65378
117.631
117.6712
117.6091
117.66285
117.65364
117.63974
39.240941
39.24043
39.220972
39.218796
39.226474
39.221319
39.222307
39.238054
39.238107
39.236296
39.225619
39.235631
39.236627
39.226082
39.226768
39.22941
39.224675
39.226412
39.227471
39.235406
39.244675
39.247981
39.251506
39.222108
39.226008
39.227142
353.40984
353.40434
353.41775
353.41177
353.41754
353.42178
353.42018
353.42106
353.4155
353.41651
353.42413
353.42067
353.41365
353.4171
353.41504
353.41931
353.42874
353.42444
353.42896
353.42704
353.4239
353.42309
353.43379
353.44269
353.44517
353.4506
274.45675
274.45844
274.51274
274.52444
274.52934
274.53315
274.52087
274.49983
274.46591
274.45404
274.4995
274.49131
274.46653
274.45188
274.455
274.47242
274.50819
274.51141
274.48275
274.45366
274.44083
274.46775
274.49374
274.50597
274.50506
274.51671
196.26695
196.23768
196.23171
196.25846
196.2518
196.2503
196.2556
196.22092
196.25196
196.26052
196.25759
196.25869
196.28533
196.27076
196.24675
196.23029
196.2246
196.24671
196.23975
196.27164
196.24943
196.24328
196.24351
196.2507
196.25425
196.24018
117.68249
117.65786
117.66668
117.67137
117.68927
117.70601
117.67372
117.6558
117.64753
117.67878
117.67111
117.68071
117.68346
117.66869
117.63274
117.63783
117.64494
117.65203
117.67805
117.6684
117.68336
117.66004
117.68344
117.69678
117.68458
117.67449
39.249931
39.250302
39.243404
39.229012
39.228842
39.235494
39.217732
39.239472
39.24158
39.230507
39.216191
39.213642
39.225899
39.240872
39.247694
39.252509
39.249384
39.229206
39.225969
39.236479
39.236356
39.248287
39.235111
39.232838
39.235196
39.245739
353.41
353.40516
353.40507
353.4149
353.41367
353.41541
353.41871
353.4148
353.41714
353.41564
353.41536
353.42481
353.41601
353.42202
353.42281
353.42781
353.42261
353.42292
353.42499
353.42547
353.42212
353.42854
353.41278
353.41959
353.42039
353.40921
353.42111
353.41038
353.40918
353.40751
274.45752
274.447
274.45988
274.50008
274.499
274.49607
274.48368
274.45751
274.4391
274.44612
274.48354
274.49372
274.44787
274.46035
274.48837
274.49684
274.47276
274.44063
274.43195
274.42584
274.44603
274.46771
274.4485
274.43761
274.43629
274.44386
274.46673
274.45969
274.45838
274.46334
196.29975
196.26014
196.24779
196.22185
196.24927
196.2468
196.24309
196.23743
196.26332
196.2725
196.25015
196.22435
196.276
196.29632
196.25528
196.25153
196.24885
196.26856
196.29659
196.27167
196.27338
196.25081
196.26973
196.28215
196.2818
196.26923
196.24828
196.28815
196.26681
196.27255
117.68313
117.66678
117.64262
117.64226
117.6651
117.65989
117.64185
117.62574
117.67329
117.68262
117.66122
117.67435
117.67631
117.6943
117.68821
117.67091
117.64495
117.67271
117.68435
117.67334
117.63235
117.64439
117.65129
117.68041
117.68787
117.66156
117.64893
117.62419
117.60131
117.61227
39.25865
39.25132
39.249337
39.241521
39.229771
39.222
39.230434
39.250165
39.251673
39.251032
39.248171
39.245842
39.233706
39.248923
39.225366
39.23255
39.25599
39.246277
39.265917
39.254035
39.264194
39.249445
39.224739
39.225389
39.228485
39.228749
39.226773
39.225523
39.238391
39.258617
353.41223
353.41186
353.40984
353.40775
353.41031
353.40512
353.41148
353.41237
353.41971
353.41593
353.40904
353.4361
353.41807
353.42588
353.413
353.41793
353.41277
353.41816
353.42181
353.42079
353.41885
353.41761
353.41435
353.42186
353.41812
353.4206
353.4186
353.42344
353.42664
353.42329
274.45089
274.43948
274.44361
274.46004
274.47206
274.46102
274.46025
274.4386
274.43751
274.44231
274.45903
274.49473
274.44036
274.43385
274.44136
274.44335
274.4447
274.42854
274.43292
274.43464
274.43094
274.43496
274.45447
274.46351
274.44713
274.43389
274.45144
274.43351
274.42966
274.43443
196.32273
196.29424
196.27713
196.27278
196.26727
196.27258
196.26652
196.26527
196.31269
196.28038
196.26038
196.23365
196.28675
196.28377
196.27185
196.26368
196.27222
196.29089
196.31761
196.31677
196.27357
196.25587
196.28193
196.2471
196.28402
196.27736
196.27657
196.27502
196.27679
196.28864
117.69456
117.68838
117.67359
117.64785
117.64685
117.66349
117.63878
117.66213
117.68589
117.69246
117.65538
117.66733
117.67541
117.69481
117.66999
117.6541
117.65322
117.67302
117.69138
117.68881
117.68083
117.66946
117.66235
117.66006
117.65237
117.69139
117.63749
117.68839
117.69895
117.69287
39.270882
39.266552
39.256328
39.262171
39.265178
39.241284
39.262033
39.256093
39.276516
39.265311
39.272111
39.265218
39.244528
39.266733
39.235783
39.264787
39.269826
39.266227
39.276223
39.269482
39.257817
39.247603
39.229911
39.248354
39.24687
39.25127
39.265066
39.25781
39.264579
39.257797
353.40915
353.40558
353.40641
353.40675
353.40968
353.41848
353.42166
353.41715
353.41959
353.42286
353.4147
353.41527
353.41975
353.41803
353.41496
353.43385
353.42879
353.42225
353.42637
353.42323
353.41943
353.42234
353.42729
353.43698
353.42131
353.42084
353.4202
353.419
353.41608
353.41896
274.44833
274.46029
274.46967
274.46462
274.46639
274.50342
274.49599
274.44269
274.43507
274.43783
274.43185
274.45246
274.46614
274.46781
274.45764
274.50877
274.48864
274.42966
274.43423
274.43443
274.44467
274.45941
274.49116
274.49704
274.43826
274.43091
274.43439
274.44732
274.44407
274.44029
196.28176
196.26133
196.27355
196.26649
196.2715
196.22668
196.22972
196.24825
196.27789
196.31562
196.25508
196.25825
196.25412
196.25339
196.26679
196.22101
196.22881
196.2424
196.28786
196.27454
196.24757
196.25391
196.24644
196.22335
196.24858
196.27293
196.28315
196.29523
196.2878
196.30031
117.66081
117.62358
117.62389
117.6512
117.66023
117.63987
117.64418
117.63088
117.68222
117.69207
117.67271
117.63917
117.63708
117.64126
117.65304
117.65776
117.64834
117.65345
117.67788
117.67037
117.63408
117.65287
117.66063
117.65168
117.64591
117.68405
117.6736
117.64348
117.6338
117.67247
39.249786
39.256618
39.250931
39.231446
39.223892
39.241543
39.251057
39.257614
39.268423
39.278283
39.262507
39.25955
39.260325
39.249745
39.218257
39.242242
39.246364
39.244949
39.262389
39.250079
39.253321
39.242726
39.228671
39.250284
39.253658
39.253344
39.250236
39.285132
39.275733
39.24966
353.41319
353.41805
353.41871
353.42001
353.42507
353.41072
353.42672
353.41136
353.41785
353.41488
353.40684
353.42182
353.42502
353.42782
353.43321
353.42641
353.42618
353.42653
353.42383
353.41904
353.43309
353.4212
353.43548
353.43401
353.43033
353.42907
353.42233
353.44156
353.43646
353.42295
274.4821
274.50193
274.51371
274.52185
274.52122
274.5089
274.5136
274.4505
274.44412
274.45337
274.45747
274.49428
274.51219
274.51018
274.51559
274.505
274.49359
274.47362
274.43652
274.46643
274.49313
274.49132
274.49878
274.46295
274.43568
274.44093
274.44874
274.4951
274.48958
274.46
196.25886
196.24407
196.2534
196.24868
196.24348
196.25874
196.22244
196.23819
196.26028
196.27195
196.23874
196.23894
196.24774
196.24912
196.24939
196.26215
196.24985
196.24907
196.24396
196.26362
196.22221
196.26077
196.24839
196.23993
196.27284
196.27967
196.26266
196.25194
196.25847
196.29583
117.65045
117.66067
117.672
117.69455
117.70261
117.67045
117.65398
117.64388
117.68647
117.68597
117.6503
117.67634
117.6822
117.69853
117.71009
117.67775
117.66953
117.64349
117.68211
117.65029
117.65484
117.6725
117.69859
117.66126
117.68882
117.70743
117.66207
117.67552
117.66783
117.68264
39.246075
39.234457
39.22257
39.23136
39.228638
39.215003
39.241928
39.25122
39.256298
39.257065
39.254065
39.232985
39.226881
39.233615
39.231193
39.225638
39.232055
39.251343
39.24801
39.255864
39.246304
39.222977
39.228206
39.233819
39.240652
39.250421
39.238408
39.25054
39.240505
39.236633
)
;

boundaryField
{
    minX
    {
        type            calculated;
        value           nonuniform List<scalar> 
50
(
353.40612
274.48803
196.2639
117.64792
39.253649
353.40857
274.46136
196.26614
117.67289
39.228009
353.40194
274.45735
196.30321
117.6838
39.259164
353.40318
274.45841
196.29781
117.68441
39.252826
353.40204
274.46358
196.26597
117.68366
39.240941
353.40984
274.45675
196.26695
117.68249
39.249931
353.41
274.45752
196.29975
117.68313
39.25865
353.41223
274.45089
196.32273
117.69456
39.270882
353.40915
274.44833
196.28176
117.66081
39.249786
353.41319
274.4821
196.25886
117.65045
39.246075
)
;
    }
    maxX
    {
        type            calculated;
        value           nonuniform List<scalar> 
50
(
353.43094
274.44396
196.26288
117.67538
39.240616
353.43128
274.43956
196.26977
117.67659
39.254116
353.42727
274.43525
196.31979
117.68753
39.268878
353.42403
274.43315
196.27468
117.68386
39.257939
353.42091
274.46361
196.26584
117.63974
39.227142
353.4506
274.51671
196.24018
117.67449
39.245739
353.40751
274.46334
196.27255
117.61227
39.258617
353.42329
274.43443
196.28864
117.69287
39.257797
353.41896
274.44029
196.30031
117.67247
39.24966
353.42295
274.46
196.29583
117.68264
39.236633
)
;
    }
    minY
    {
        type            calculated;
        value           nonuniform List<scalar> 
292
(
392.4
392.4
392.4
392.4
392.4
392.4
392.4
392.4
392.4
392.4
392.4
392.4
392.4
392.4
392.4
392.4
392.4
392.4
392.4
392.4
392.4
392.4
392.4
392.4
392.4
392.4
392.4
392.4
392.4
392.4
392.4
392.4
392.4
392.4
392.4
392.4
392.4
392.4
392.4
392.4
392.4
392.4
392.4
392.4
392.4
392.4
392.4
392.4
392.4
392.4
392.4
392.4
392.4
392.4
392.4
392.4
392.4
392.4
392.4
392.4
392.4
392.4
392.4
392.4
392.4
392.4
392.4
392.4
392.4
392.4
392.4
392.4
392.4
392.4
392.4
392.4
392.4
392.4
392.4
392.4
392.4
392.4
392.4
392.4
392.4
392.4
392.4
392.4
392.4
392.4
392.4
392.4
392.4
392.4
392.4
392.4
392.4
392.4
392.4
392.4
392.4
392.4
392.4
392.4
392.4
392.4
392.4
392.4
392.4
392.4
392.4
392.4
392.4
392.4
392.4
392.4
392.4
392.4
392.4
392.4
392.4
392.4
392.4
392.4
392.4
392.4
392.4
392.4
392.4
392.4
392.4
392.4
392.4
392.4
392.4
392.4
392.4
392.4
392.4
392.4
392.4
392.4
392.4
392.4
392.4
392.4
392.4
392.4
392.4
392.4
392.4
392.4
392.4
392.4
392.4
392.4
392.4
392.4
392.4
392.4
392.4
392.4
392.4
392.4
392.4
392.4
392.4
392.4
392.4
392.4
392.4
392.4
392.4
392.4
392.4
392.4
392.4
392.4
392.4
392.4
392.4
392.4
392.4
392.4
392.4
392.4
392.4
392.4
392.4
392.4
392.4
392.4
392.4
392.4
392.4
392.4
392.4
392.4
392.4
392.4
392.4
392.4
392.4
392.4
392.4
392.4
392.4
392.4
392.4
392.4
392.4
392.4
392.4
392.4
392.4
392.4
392.4
392.4
392.4
392.4
392.4
392.4
392.4
392.4
392.4
392.4
392.4
392.4
392.4
392.4
392.4
392.4
392.4
392.4
392.4
392.4
392.4
392.4
392.4
392.4
392.4
392.4
392.4
392.4
392.4
392.4
392.4
392.4
392.4
392.4
392.4
392.4
392.4
392.4
392.4
392.4
392.4
392.4
392.4
392.4
392.4
392.4
392.4
392.4
392.4
392.4
392.4
392.4
392.4
392.4
392.4
392.4
392.4
392.4
392.4
392.4
392.4
392.4
392.4
392.4
392.4
392.4
392.4
392.4
392.4
392.4
392.4
392.4
392.4
392.4
392.4
392.4
)
;
    }
    minZ
    {
        type            calculated;
        value           nonuniform List<scalar> 
150
(
353.40612
274.48803
196.2639
117.64792
39.253649
353.40793
274.49825
196.25246
117.66111
39.230013
353.40997
274.5104
196.26708
117.67687
39.223553
353.40971
274.51767
196.25033
117.68478
39.227384
353.41508
274.50652
196.24737
117.69798
39.226604
353.39636
274.47488
196.28316
117.68046
39.224314
353.40109
274.46395
196.27941
117.67663
39.223727
353.40063
274.47428
196.28507
117.63829
39.245033
353.40555
274.47289
196.27837
117.62964
39.277151
353.39805
274.47459
196.29343
117.63654
39.264266
353.40717
274.49341
196.24486
117.63959
39.251363
353.39092
274.4759
196.30449
117.66066
39.222803
353.39741
274.47148
196.29095
117.69945
39.22619
353.39605
274.47688
196.27964
117.68862
39.227432
353.39914
274.48661
196.26891
117.69044
39.227554
353.41761
274.52035
196.24975
117.70496
39.227994
353.40823
274.5147
196.25302
117.68484
39.217067
353.42451
274.53395
196.22192
117.66395
39.240192
353.4147
274.48112
196.22815
117.67307
39.237583
353.41255
274.44898
196.24901
117.67737
39.241739
353.42065
274.44415
196.28272
117.68325
39.246936
353.41382
274.44975
196.27444
117.65636
39.249758
353.4119
274.46576
196.26204
117.63399
39.248591
353.4189
274.48364
196.25896
117.66168
39.220645
353.42901
274.50667
196.25558
117.68823
39.225029
353.43209
274.52197
196.25557
117.69587
39.237691
353.42824
274.5137
196.25425
117.69168
39.223068
353.43276
274.50159
196.25475
117.67489
39.222972
353.43173
274.46453
196.2236
117.64636
39.240151
353.43094
274.44396
196.26288
117.67538
39.240616
)
;
    }
    maxZ
    {
        type            calculated;
        value           nonuniform List<scalar> 
150
(
353.41319
274.4821
196.25886
117.65045
39.246075
353.41805
274.50193
196.24407
117.66067
39.234457
353.41871
274.51371
196.2534
117.672
39.22257
353.42001
274.52185
196.24868
117.69455
39.23136
353.42507
274.52122
196.24348
117.70261
39.228638
353.41072
274.5089
196.25874
117.67045
39.215003
353.42672
274.5136
196.22244
117.65398
39.241928
353.41136
274.4505
196.23819
117.64388
39.25122
353.41785
274.44412
196.26028
117.68647
39.256298
353.41488
274.45337
196.27195
117.68597
39.257065
353.40684
274.45747
196.23874
117.6503
39.254065
353.42182
274.49428
196.23894
117.67634
39.232985
353.42502
274.51219
196.24774
117.6822
39.226881
353.42782
274.51018
196.24912
117.69853
39.233615
353.43321
274.51559
196.24939
117.71009
39.231193
353.42641
274.505
196.26215
117.67775
39.225638
353.42618
274.49359
196.24985
117.66953
39.232055
353.42653
274.47362
196.24907
117.64349
39.251343
353.42383
274.43652
196.24396
117.68211
39.24801
353.41904
274.46643
196.26362
117.65029
39.255864
353.43309
274.49313
196.22221
117.65484
39.246304
353.4212
274.49132
196.26077
117.6725
39.222977
353.43548
274.49878
196.24839
117.69859
39.228206
353.43401
274.46295
196.23993
117.66126
39.233819
353.43033
274.43568
196.27284
117.68882
39.240652
353.42907
274.44093
196.27967
117.70743
39.250421
353.42233
274.44874
196.26266
117.66207
39.238408
353.44156
274.4951
196.25194
117.67552
39.25054
353.43646
274.48958
196.25847
117.66783
39.240505
353.42295
274.46
196.29583
117.68264
39.236633
)
;
    }
    bottomWater_to_rightSolid
    {
        type            calculated;
        value           nonuniform List<scalar> 
130
(
0.00019176428
-0.0024168295
0.0017388698
0.0069356869
0.0097583072
0.0085906829
-0.019354587
-0.014970835
-0.0023090519
-0.016931794
-0.017028469
0.00015120237
0.0006164531
0.01171123
0.014157431
0.017170735
0.022685022
0.0071841521
0.0099674939
-0.0055727295
-0.010960638
-0.00087265541
-0.011945114
0.0012412177
0.010085503
0.014115619
-0.0001606292
0.013998012
0.0088980999
0.031395365
0.016868423
-0.0019068716
0.0068801824
0.006660364
0.029845714
0.040696957
0.020432164
0.025038564
0.028878227
-0.0072218023
-0.011813502
-0.008007836
0.0042468988
-0.012048868
0.0023813297
0.011067241
0.017527709
0.03443967
0.029959135
0.015052751
0.02879825
0.017938687
-0.013918434
-0.013231825
-0.010590389
-0.015324748
-0.013587546
-0.012529418
-0.0045944296
0.0046748722
0.0079809549
0.011505634
-0.017891835
-0.013992357
-0.012857894
0.00087234158
0.0076940733
0.012509432
0.0093837771
-0.01079354
-0.01403078
-0.0035210689
-0.0036438577
0.0082865057
-0.004889316
-0.0071624203
-0.0048035019
0.0057394749
0.0062774052
0.025917434
0.014035059
0.024194013
0.009445098
-0.015261028
-0.014610756
-0.011515039
-0.0112511
-0.01322684
-0.014477009
-0.0016094804
0.018616865
0.026226784
0.036222569
0.029482036
0.017817137
0.0076032878
-0.010088894
0.0083544732
0.0068704764
0.011269536
0.025065792
0.0178097
0.024579358
0.017797017
0.0049494327
0.022389453
0.010079096
0.013320548
0.0027263235
-0.011329439
0.010283823
0.013658248
0.013344074
0.010235871
0.045131967
0.035732789
0.009660149
0.011343366
0.0080104423
0.015863855
0.0063041291
-0.017023052
-0.01179388
-0.0061808204
0.00065221603
0.010421263
-0.0015919489
0.010540003
0.00050549424
-0.0033674128
)
;
    }
    bottomWater_to_leftSolid
    {
        type            calculated;
        value           nonuniform List<scalar> 
130
(
0.013649463
-0.009986557
-0.016447314
-0.012616059
-0.013396433
-0.015685603
-0.016272931
0.0050326232
0.037150761
0.024265828
0.011362975
-0.017196613
-0.013809829
-0.011990644
-0.014002155
0.004314627
0.0097065975
-0.0063138905
-0.012471572
-0.0092968539
0.010001891
0.010494969
0.020258187
0.0066174329
0.0012340013
-0.0067434466
0.019164306
0.013965208
0.023050567
0.018273051
0.011433791
0.037303889
0.026186055
0.023157091
0.033669026
0.061128924
0.047670362
0.013410897
0.0083661775
0.012826434
0.0078273631
-0.00051582086
0.0078685381
0.021243517
0.010191471
-0.016573234
-0.0011869429
0.0070180798
0.027675103
0.018799481
0.013019036
0.01102757
0.00094136624
0.000430451
-0.019027611
-0.021203508
-0.013525738
-0.018681435
-0.017692754
-0.0019463099
-0.0018930286
-0.0037038524
-0.014380755
-0.0043688378
-0.0033734932
0.0099311019
0.010301933
0.0034038998
-0.010988093
-0.011158241
-0.0045056876
-0.022268398
-0.00052846406
0.0015800627
-0.0094933681
-0.02380927
-0.026358328
-0.014101438
0.018649921
0.01131968
0.0093373502
0.0015211298
-0.010229044
-0.018000211
-0.0095657999
0.010164673
0.011672865
0.011032443
0.0081712848
0.0058417545
-0.0062942411
0.030881759
0.0265524
0.016328268
0.022170822
0.025177892
0.0012835359
0.022032642
0.016093166
0.036515917
0.025310509
0.03211093
0.025218303
0.004528329
0.0097861146
0.016618
0.010931077
-0.0085544242
-0.016108409
0.0015430044
0.011056904
0.017613583
0.028423333
0.038283195
0.022507311
0.019549805
0.020325237
0.0060753203
-0.0055434468
-0.017430383
-0.0086399438
-0.011361594
-0.024997478
0.0019277517
0.011219624
0.016297649
0.017065435
0.014065242
-0.0070152831
-0.013119145
)
;
    }
    bottomWater_to_heater
    {
        type            calculated;
        value           nonuniform List<scalar> 
92
(
-0.012568086
-0.012446039
-0.012005525
-0.02293347
-0.0058054818
-0.0055883637
-0.01887344
-0.0060982579
0.011283778
0.0087069935
-0.0062521477
-0.0095147188
353.40678
353.40346
353.40449
353.40452
274.45745
274.47805
274.47237
274.46432
196.28093
196.26357
196.27569
196.28119
117.66742
117.65225
117.64391
117.65895
0.011609093
39.251609
-0.0039863985
39.236014
0.031350343
39.27135
0.0042564209
39.244256
353.4111
353.42087
274.4708
274.45974
196.26566
196.25867
117.66884
117.6689
39.236627
39.226082
353.41365
353.42202
353.42281
353.42781
353.4171
353.42261
274.46653
274.46035
274.48837
274.49684
274.45188
274.47276
196.28533
196.29632
196.25528
196.25153
196.27076
196.24885
117.68346
117.6943
117.68821
117.67091
117.66869
117.64495
39.225899
39.248923
39.225366
39.23255
39.240872
39.25599
0.0089229752
-0.014634355
-0.0074504086
0.015989522
0.026733197
-0.0042166822
0.024787484
0.0298265
0.0097453354
-0.02174308
0.002242322
0.0063643768
-0.0063854522
-0.0088066631
-0.014362448
-0.0079449462
)
;
    }
}


// ************************************************************************* //
