/*--------------------------------*- C++ -*----------------------------------*\
| =========                 |                                                 |
| \\      /  F ield         | OpenFOAM: The Open Source CFD Toolbox           |
|  \\    /   O peration     | Version:  v2012                                 |
|   \\  /    A nd           | Website:  www.openfoam.com                      |
|    \\/     M anipulation  |                                                 |
\*---------------------------------------------------------------------------*/
FoamFile
{
    version     2.0;
    format      ascii;
    class       surfaceScalarField;
    location    "180/bottomWater";
    object      phi;
}
// * * * * * * * * * * * * * * * * * * * * * * * * * * * * * * * * * * * * * //

dimensions      [1 0 -1 0 0 0 0];
oriented        oriented;


internalField   nonuniform List<scalar> 
3858
(
-0.0001691034
7.3204884e-05
9.8373864e-05
-0.00017484032
-0.00010472893
0.00011265756
-0.00010608
-0.00010997255
4.2749501e-05
8.2266487e-06
-0.0002484619
0.00013582191
0.00020412328
-0.00029950106
0.00010398725
0.00020043521
8.4240917e-08
8.6730885e-06
0.00013448612
0.00010642807
-3.6584312e-05
3.2652176e-05
0.00013464563
-2.8931349e-05
-7.0121601e-05
0.00012030773
-1.5027543e-05
-0.00016155345
8.8270479e-05
7.7110997e-06
-8.1732023e-05
-0.00012514132
4.7573183e-05
-0.00012636853
4.2496322e-05
8.4895863e-06
-0.00021296754
0.00011882642
-2.7366789e-05
-0.00027332493
9.7551704e-05
-3.1862757e-05
-0.00022172919
-2.863571e-05
-1.8500259e-05
-5.4710303e-05
-0.00026326735
9.5991419e-05
3.2067172e-05
-0.00016576879
8.0886508e-05
0.00019834731
-0.00030421642
0.00013592044
0.00021115027
-0.00014186714
0.00012960834
2.1316383e-06
0.00011523708
9.4635559e-05
-0.00019552591
0.00012306591
7.3305312e-05
-0.00032100115
0.00013053559
-4.315642e-06
-0.00041028217
9.2172394e-05
-1.4821442e-06
-0.0003474043
-8.7148275e-05
2.3906129e-05
-0.0001676224
-0.00029321514
0.0001105019
1.693126e-05
-0.00030208927
0.00011347615
0.00015141829
-0.00020667634
6.8974004e-05
0.00024996252
-0.00018007497
7.7360265e-05
0.00020253227
-6.0929383e-05
0.00010441204
0.0001091245
8.9464887e-05
-0.00026476647
0.00010043504
0.00023753631
-0.00022396585
-0.00032043197
0.00017490243
-0.00011895237
-0.00026884046
5.3854429e-05
-3.0825084e-05
-0.0005365793
0.00019999012
0.00016344538
-0.00064518668
0.00015141516
0.00027718863
-0.00010288477
-1.0774238e-05
0.00010048309
0.00035377857
-7.0644971e-05
5.8729633e-05
0.00010760738
6.8791699e-05
-7.1650739e-05
7.6539871e-05
0.00017414823
-0.00021244815
7.2199656e-05
0.00015686823
-8.1488958e-05
-0.00042840566
0.00017230515
-0.00015104462
-2.5139131e-05
0.00013719112
-0.00029289015
0.00021707345
4.35985e-05
-0.00029338327
0.00012525703
-2.7212206e-05
-0.00017179541
-0.00015025511
3.154796e-08
2.5612637e-05
-0.00055284077
9.2165382e-05
0.00011600907
-0.00040227082
0.00014610561
0.00025503643
-0.00062228418
0.0001790404
0.00034684876
-0.0003960622
0.00016238273
0.00013552916
0.00018901014
0.00013754654
-0.00033296342
0.00059616581
-4.6073204e-06
-0.00052557455
0.00032700122
-3.8544854e-06
-0.00045824303
-2.2564902e-06
2.7097366e-05
-0.00030655266
-0.00025981845
2.0979819e-05
-0.00014540974
-0.00060507543
0.00015071738
2.4005175e-05
-0.00057403215
0.00010252797
0.00022754772
-0.00044527862
3.505972e-05
0.0004078446
-0.00041167765
5.13058e-05
0.00044149826
-0.00023551833
0.00014093528
0.00041574246
0.00013488029
1.1206287e-05
-1.3782121e-05
0.00010301088
-6.9512812e-05
-0.00019790906
-4.1803807e-05
-4.2830434e-05
-0.00030737349
1.1850649e-05
-0.00013845001
-0.00037499769
-6.5962039e-05
-0.00030704566
-0.00047537149
-1.2195513e-06
-5.3478234e-05
-0.00039699853
4.0546327e-05
0.00014452064
0.00011430812
4.1471563e-05
0.0001243821
6.6181773e-07
0.0001270841
0.0001358869
-3.6508503e-05
0.00010154356
0.0001019535
2.9570889e-05
7.6562159e-05
-0.00025590085
-8.1416032e-05
1.0864716e-05
-0.00012901713
-0.00026923604
0.00011721319
0.00010280312
-0.00018009756
0.00016535076
0.00020495678
-0.00016936609
0.00019246946
0.00021190488
-0.00034064882
0.00018344561
0.00013440391
-0.00047345862
-1.8811741e-06
0.00014207493
-0.00033997277
-6.9969075e-05
-0.00019352043
-8.1249899e-05
-0.00020543891
-0.00039681217
-9.0620907e-05
-0.00010214955
-0.00033139881
9.6679447e-05
2.6917334e-05
-0.00022488727
0.0004733177
1.6336578e-05
-0.00015855527
0.00018146367
7.920555e-05
-8.2949951e-05
-9.8850542e-05
2.0988749e-05
-1.6489853e-05
-0.00029080464
-3.5473899e-05
-2.0850769e-05
-0.00046024765
-0.00014046685
-2.7793028e-05
-0.00047926109
-8.7828791e-05
6.6114432e-05
-0.00045069518
-8.8490903e-05
-1.7626099e-05
-0.00029312622
-3.4810905e-05
-6.5063388e-05
-0.00011737419
-7.0706862e-05
0.00030154788
4.9131182e-05
-8.8271012e-05
0.00019725168
-0.00012276278
-6.9107354e-05
-0.00015365904
-6.3413672e-05
-5.3068985e-05
-0.00030444174
-1.8970108e-05
-5.4485159e-05
-0.00033144407
-4.2137452e-05
-6.1899396e-05
-0.00043787535
-3.0081905e-05
-2.7624419e-07
-0.00043026554
-2.8356156e-05
0.00032092874
-0.0002198812
1.2984316e-05
0.00029083896
9.2824059e-05
-6.207247e-05
6.0146263e-05
0.00030374196
-0.00010955778
-3.9986434e-05
0.00013276009
-3.0565079e-06
-7.9732406e-05
5.8657723e-05
-0.00010032779
-2.0065124e-05
-0.00030501596
-2.3887362e-05
0.00014295574
-0.00033650458
-6.6138558e-06
0.00013892418
-0.00024204269
7.6708162e-05
2.495605e-05
-0.00033616477
0.00010948409
-1.366317e-05
-0.00043018613
-4.6532563e-06
-3.2988748e-05
-0.0003173476
-3.2995843e-06
-0.00020268154
5.8172361e-05
3.0270542e-05
-0.00026546084
-5.6453669e-05
2.8612065e-05
-0.0001682149
-2.2748811e-05
2.2182323e-05
0.00010536374
0.00013445455
6.5284514e-05
4.1218888e-05
0.00021691637
2.8692162e-05
-0.00019607027
0.00017447186
-3.6033226e-05
-0.00014790816
-0.00022126192
-0.00011770482
-0.00010315561
-0.0004364642
-6.8535979e-05
-8.7974245e-05
-0.00046019136
-3.4251096e-05
-2.2613582e-05
-0.00045519612
-6.0859725e-05
-7.2272929e-05
-0.00028442529
4.0958403e-05
-0.00019976913
2.2509738e-05
-1.2387747e-05
8.5170155e-05
1.6608594e-05
0.00025358857
-5.6336889e-05
0.0002467035
-0.00014677396
0.00014710277
-0.00020484102
4.9103121e-05
-0.00023344442
-0.00015446892
-0.00023430332
-0.00036008832
-0.00022464615
-0.00042583331
-0.00015413622
-0.0002404734
-9.2535863e-05
9.2246875e-05
-2.8978322e-05
0.00028727441
-6.2267455e-05
0.00044908804
-0.0001031559
0.00033578357
-0.00019171149
0.00022307552
-0.00022379653
0.0001947034
-0.00021367056
5.9910957e-05
-0.00020137232
-0.00023281908
-0.00013745608
-0.00043044983
-0.00011971685
-0.00028526075
-8.7016714e-05
-0.00024462014
-9.709428e-05
-0.00020816214
-5.9206808e-05
-2.2532118e-05
-5.1175469e-05
0.00017599663
1.8387638e-05
0.00034971355
7.5494515e-07
0.0002377974
-0.00010934576
9.0631799e-07
-0.00019957311
-0.00014637501
-0.00031291003
-0.00031550783
-0.00028606331
-0.00038204433
-0.00021788881
-0.0002045967
-0.0001549379
-0.00011942655
-0.00015276852
0.00013212517
0.00012100041
-0.00019606153
2.7644004e-05
0.00013188802
9.6241039e-06
-0.00030788379
0.00014339177
-1.7962517e-05
4.3410505e-05
0.00012382385
-9.1155132e-05
5.5373683e-05
0.00012304288
1.3744959e-05
-8.6039874e-05
-8.6439294e-06
0.00014447708
-0.0001668507
-4.9632112e-07
5.3745057e-05
0.00013302899
-6.7787562e-05
-3.3543056e-05
0.00013994558
-6.6727397e-05
-0.00012050788
0.00013407603
-3.7122383e-05
-0.00018781831
0.0001448912
-2.7805894e-05
-0.00028388126
0.00011954991
-1.0814007e-05
-0.0003031709
-1.9217122e-05
1.4870982e-05
-0.00014260055
-0.00026391043
7.1846112e-05
4.7118729e-05
-0.00023982269
3.0791049e-05
0.00017074323
-0.00015820415
0.0001309187
0.00016787728
-2.9183471e-05
0.00011451413
0.00013193315
3.6064858e-05
0.00013799649
-4.9408747e-06
0.00013858717
0.00013062205
-0.00011432196
0.00015214024
5.2815145e-05
-0.0001545166
0.00013454972
-2.0190628e-05
-0.00022143569
0.00016604934
-0.00010180437
-0.00024630871
0.00011496598
-8.9410523e-05
-0.00010884586
-0.00012096143
4.3788314e-06
-0.0001230986
7.499584e-05
5.0709938e-05
-3.3117789e-05
-0.00010134481
0.00012292954
0.00010592834
-0.00019172608
0.00011939672
0.00023181215
-0.00019142292
0.00013848152
0.00015188752
8.5896144e-05
9.597465e-05
0.00014579878
9.1593942e-05
-0.00030841408
0.00047358597
0.00020448959
-0.00027417768
-2.4161198e-05
0.00019247124
5.4690839e-05
-0.00069362536
0.00011072748
1.3983461e-06
4.7107878e-05
0.00024958524
-0.00014711527
0.00022077264
0.00013452982
-3.6371252e-05
-0.00026054214
5.2984e-05
0.00017626109
-0.00048486357
3.4735555e-05
0.00029042621
3.6572909e-05
5.1082649e-05
6.3651646e-05
0.00050533498
3.5533386e-05
-0.00020857065
0.00057497527
-1.1808725e-05
-0.00038184288
0.00050075514
-1.0286562e-05
-0.0003286498
5.821653e-05
0.00014533141
-0.00027367393
-0.00018614475
0.00015555026
-0.00012182038
-0.00057476308
0.00013178689
8.2857157e-05
-0.00048177604
3.7307365e-05
0.00029686316
-0.00038137395
0.00010132919
0.00037893295
-0.00012814625
0.00016299859
0.00042125197
-5.6435515e-05
0.00022922176
0.000373639
0.00014794312
0.00020063975
7.6663228e-05
0.00055357258
3.3089964e-05
-0.00021940561
0.00060142241
-0.00017541117
-0.00037800609
0.00046254354
-0.0001417482
-0.00017865762
-1.0094418e-05
-4.7190698e-05
1.6776895e-05
-0.00032452327
2.910716e-05
-4.142528e-05
1.5134462e-05
0.00026878094
2.8344809e-05
-0.00031610437
0.00024751744
0.00016442506
-0.0004847623
0.00019201569
0.00040714689
-0.00052647417
0.00014363521
0.00039435603
9.991722e-05
0.00013970506
0.00058894799
8.6087112e-05
0.00017504767
0.00031916311
8.2386072e-05
0.00022264169
-8.137033e-05
-3.2188688e-05
-0.00022024052
-9.6236252e-05
-0.00014265625
-0.00022837667
-1.6584319e-05
5.8663051e-06
-4.9827888e-05
1.649199e-05
2.4512309e-05
-8.2539346e-05
-0.00021559594
2.8311579e-05
-0.000310317
-0.00015296114
-6.265323e-05
-0.00015585564
-2.185334e-05
3.1048983e-05
2.3987291e-05
0.00040476657
2.2269031e-05
-3.8462451e-07
0.00058238451
9.3524837e-05
-2.7811257e-07
0.00042087704
9.0636299e-05
0.00017590031
-4.494169e-05
4.419298e-05
0.00025772108
-0.00013866996
3.6055207e-05
3.5082579e-05
-9.8657179e-05
-6.0997937e-05
-0.0001767005
-9.310315e-05
6.5558078e-06
-7.3409578e-05
-0.00043335939
-5.3186645e-05
4.6841132e-05
-0.00023489646
-8.3469572e-05
-2.8864819e-05
-8.732282e-05
-9.8845657e-05
-2.0202788e-05
5.8521995e-05
-2.1390458e-05
-1.0529522e-05
0.0005320871
3.8729554e-05
-9.4374346e-05
0.00058095412
0.0001206497
3.4486348e-05
0.00034724449
6.5643914e-05
0.00017897213
-9.2415302e-05
-4.1176133e-05
0.00011557814
-0.00022279946
-7.3803716e-05
0.00024195152
-0.00025474757
3.0418167e-06
0.00016566431
-0.00020041158
-0.00012723437
2.746538e-05
-0.00025860084
-0.00017645344
-0.00018178227
-0.00013578371
-0.00021625373
-9.5646254e-05
9.8023235e-06
-6.6727988e-05
0.00053971288
2.720026e-06
0.00028156473
-7.4613905e-05
-1.0550497e-05
0.00032282031
-7.8386275e-05
-0.0001076533
8.2753988e-05
0.00014223528
-1.7375317e-05
-0.00019259134
0.00021427914
2.3444216e-06
-0.00014720447
-8.1157938e-05
2.2181143e-05
-0.00018079528
-0.00022126241
1.0901103e-05
-0.00019745887
-0.00010183876
-2.1474481e-05
-0.00028057066
0.00013473641
-0.00013555045
-7.8368114e-05
0.00015496891
-6.1962673e-05
8.0448289e-05
0.00031616659
0.000104345
0.0002692087
0.00010831228
2.347655e-05
0.00019519916
4.4107975e-05
-3.892748e-05
0.00018405083
-6.6271807e-05
-6.7863682e-05
0.00010824936
4.5953535e-05
7.8989202e-06
9.3988096e-06
1.7685857e-05
9.7545637e-05
3.5456728e-05
-0.00044973283
-1.4337725e-05
-3.7086705e-05
-0.00013899295
-2.6659657e-05
-0.00022477098
0.00023823927
-0.00010760726
-0.00029388475
0.0001970145
-4.0766676e-05
-0.00010065982
0.0003090016
5.2042902e-05
9.8558836e-05
0.00033940726
0.00010761272
0.0002979481
0.00014419812
3.2349274e-05
0.00010974701
0.0001368864
-7.7133819e-05
7.1330809e-05
-0.00020273431
-9.9353743e-05
2.3673694e-05
-0.00021287401
-6.2752415e-05
-7.9347578e-05
-6.6816371e-05
-6.4825028e-05
-9.8350452e-05
-0.00022043408
-8.0023609e-05
-0.00022975178
5.5569248e-06
3.1019088e-05
-0.00029893745
0.0001397685
-7.3168267e-05
0.00027698014
-1.9596126e-05
-2.2660932e-05
-0.00010828986
-4.7521088e-05
-0.00020030008
7.872322e-06
-0.00011799915
9.4651689e-05
-0.00010594465
-2.6578081e-05
-0.00019423149
-0.00027032171
-0.00020216494
-0.00039126033
-0.00013503637
-0.00026676598
-8.2293815e-05
-9.2556919e-05
-4.8218482e-05
0.00016656339
-5.2211744e-06
0.0002672187
-9.5498933e-05
0.00026958334
-0.00014996816
0.00018401569
-0.00020450068
0.0002134615
-0.00019716284
0.00018498488
-0.00015520984
-0.00021137158
-0.00019083244
-0.00040869099
-6.139038e-05
-0.00030157088
4.4102439e-05
-0.00023795198
3.630133e-05
-7.6212792e-05
8.8055601e-05
0.00015340555
5.8613456e-05
0.00025041236
6.5578962e-05
0.00031314281
7.4910916e-05
0.00014460161
-0.00014353886
-4.4508557e-05
-0.00022333695
-0.00011274521
-0.00031148974
-0.00029919453
-0.00032004808
-0.00034083495
-0.00017069148
-0.00023242769
-0.00012357668
-7.4874101e-05
-4.0253947e-05
0.00013890471
2.5893162e-05
-0.00010159251
0.000148881
4.8864235e-05
-5.3965565e-05
6.8399044e-05
3.1868595e-05
-3.0294721e-05
0.00013888974
-3.4882937e-05
9.5009978e-06
0.00014198076
-5.502206e-05
6.9890025e-05
7.4597418e-05
-0.00013911371
6.6216478e-05
0.00012108161
-0.00011397559
-8.0859301e-06
0.00017126318
-0.00016052422
-4.7252496e-05
0.00013672614
-0.0001617513
-9.3720154e-05
0.00011728957
-0.00010446951
-0.00017860783
0.00011386799
-5.2163606e-05
-0.00024989651
0.00014113943
-7.6859919e-05
-0.00027844115
9.2968567e-05
-4.7323857e-05
-0.00019589666
-7.4465805e-05
6.3618951e-05
4.1441868e-05
-0.00030709639
9.9710013e-05
0.00013672512
-6.197087e-05
0.0001010056
0.00010793725
8.7891526e-05
5.6989976e-05
9.1516676e-05
0.00014973786
5.8339287e-06
5.3352486e-05
0.00015778191
1.2187163e-05
-3.3827967e-07
0.00015256545
-4.4517858e-05
-1.0105346e-05
9.7355725e-05
-0.00010476903
7.3756733e-06
3.5436721e-05
-0.00015343356
-4.5726829e-05
0.00014385336
-0.00017840537
-6.2076783e-05
0.00013662354
-0.00011660398
-5.6827607e-05
0.00013470651
-9.0273336e-05
-1.6154975e-05
0.0001009292
-2.0003615e-05
4.9372975e-05
2.2609383e-05
3.000011e-05
7.2650047e-05
8.6696308e-05
2.6661345e-05
1.7258931e-05
0.00017829944
-2.9343785e-05
0.00013157443
-2.5854128e-05
-0.00019653495
0.00048568519
5.4244069e-05
-0.00022540158
0.00033871508
3.1503798e-05
1.8858239e-05
-5.003429e-05
-1.5099003e-05
-1.5946223e-05
0.00052810688
-0.00010482743
-0.0001197311
0.00055725967
-0.00017696421
0.00011182666
-5.2372995e-05
-5.1603347e-05
0.00030009891
5.2084041e-05
-8.4539133e-05
9.9570517e-05
0.00053286361
-0.0001099894
-0.00021304202
0.00059645556
-0.0001115835
-0.00017366335
9.4354479e-05
-2.8252312e-05
-0.00010248108
5.2142133e-05
-1.9742979e-05
-0.00031107487
0.00051363157
-1.8566938e-05
-0.0004153303
0.00035261053
1.6373568e-07
-0.00029372555
-0.00018370117
0.00011941751
3.7694925e-05
-0.00067588324
7.4673751e-05
0.00029396482
-0.000264829
4.7917419e-05
0.00041253553
0.00012498334
7.3360809e-06
0.00031813998
0.00047199805
1.3571152e-06
0.00015098526
0.00054426859
-1.8692224e-05
4.5142973e-06
0.00039876783
-6.6641457e-05
8.2839206e-05
-1.3051331e-05
-0.00014332902
0.00026094618
-0.00012118202
-0.00016323643
0.00023562532
0.00029406491
-0.00017208137
5.8784541e-05
0.00046503556
-0.00012246407
-8.225675e-05
0.00051032148
3.4207259e-05
-3.5735801e-05
0.00016874792
0.00013317777
0.00015278617
-7.7359244e-05
0.00010346234
0.00036610497
-2.3127227e-05
4.0139936e-05
0.0002242952
0.00054925098
-8.9436723e-05
0.00057848062
-0.00013652389
3.2698027e-05
0.00046538743
6.9985808e-05
4.568754e-05
0.00025338319
4.0153689e-05
1.8825117e-05
-0.00010681183
-5.9016286e-05
-2.7473373e-05
0.00044399312
0.00013627855
-3.5921324e-05
0.00046415612
0.0001260638
-4.8766891e-05
-0.00012423063
0.00011301477
-5.7263219e-05
-4.365636e-05
4.1583489e-05
-4.4443031e-05
0.00051817342
3.2918978e-05
-1.4083365e-05
0.00060290051
-1.4535587e-05
5.337779e-05
1.1439259e-05
0.0001089789
5.5017224e-06
-2.5134792e-05
0.00021578929
-1.054404e-05
0.0004994838
7.438651e-05
0.00016529505
0.0002846256
-7.1798957e-05
9.858647e-05
-2.5768696e-05
-0.00015222183
-0.00028185308
-9.0395419e-05
-0.00019849246
-0.00023477847
-0.00026047614
-0.00010461411
9.0160001e-05
-0.00021625689
-6.7167816e-05
0.00016982477
0.00033205969
-3.8572063e-05
0.00011044502
0.00047760862
0.00010464926
0.00010752489
0.00032309447
0.00011732304
5.0496527e-06
-4.0119314e-05
0.00025019292
-3.7785631e-05
-0.00011929634
0.00010659353
7.2615235e-05
6.7826159e-05
7.4661766e-05
6.6025912e-05
0.00031514124
8.2679945e-05
0.00011437421
0.00040214757
6.2867436e-05
0.00014445287
7.5237793e-05
-6.3802889e-05
5.0739433e-05
-6.4663181e-05
-9.5436074e-05
8.7198509e-06
-0.0001377637
-5.9597686e-05
-4.8476091e-05
0.00045599115
8.3727771e-05
0.00059199788
-5.9273336e-05
0.00015843229
0.00025037009
4.6034554e-05
0.00015378499
0.00014574006
4.6371491e-06
-0.00016105943
0.00019065838
-1.1124423e-09
1.0606824e-05
0.00019062276
8.4048516e-05
0.00023655135
0.00018522633
7.5166401e-05
-0.00011809346
0.00028650583
-4.5190567e-05
-0.0003179856
0.00013149359
3.2676948e-06
-7.6447954e-05
0.00012372117
1.7364135e-05
0.00018422218
0.00029135074
-1.1083038e-05
-7.056862e-05
0.00035547187
1.5103183e-05
-0.00032022573
0.00030620105
-5.8202182e-05
-4.9738522e-06
0.00014802334
-2.718897e-06
0.00024677226
8.051147e-05
-0.00011549566
0.0001789329
0.00015714323
-0.00010717364
1.7055262e-05
0.00019210568
-2.3077814e-05
-0.00012644494
-0.00017141465
4.0101e-05
-0.00010438033
-0.00030571331
4.0732159e-05
8.5012665e-05
4.1168491e-05
-6.1090601e-06
0.00026371226
0.00021251557
4.5626783e-05
0.00035717887
0.00019413722
8.7533541e-05
1.5422904e-05
0.00034995735
5.9292034e-05
-0.00023734806
0.00017283512
-7.0112053e-06
-7.7095564e-05
-0.00018895123
1.9391094e-05
0.00014811547
-8.543854e-05
7.6015024e-05
0.00029904654
0.00018295312
5.510982e-06
0.00011417625
0.00031224969
-0.00011696664
-0.00020403699
0.00023317282
-5.9646369e-05
-0.00036223268
8.1904076e-05
-3.045301e-05
-0.00020117785
0.00018394389
3.7824154e-05
0.00037062276
6.0113658e-07
0.00011864527
2.3434968e-05
5.4797654e-05
9.2875957e-06
-5.175473e-07
0.00012797443
-2.1343647e-05
0.0001055042
-4.1337311e-05
1.0988497e-05
-4.5639179e-05
8.864275e-05
-0.00017823167
0.00012904971
-0.00023079165
9.3987334e-05
-6.3381491e-05
7.5722091e-05
0.00012605905
0.00016081015
0.00020146871
0.00013529246
0.00019111203
8.4118669e-06
0.00016150157
-9.4378755e-05
0.00022021996
-9.8737988e-05
0.00029491776
-3.7801956e-05
9.7333602e-05
-0.00016466293
-0.0002169086
-5.286148e-05
-0.00019772869
6.6091021e-05
-3.4644479e-05
8.5732693e-05
4.7586593e-05
0.00019996175
0.00019621423
0.00025994318
0.00025419912
0.0001804292
3.3197874e-05
0.00010696095
-0.00015169802
-4.4081494e-05
-0.0001000175
-9.2064335e-05
-4.4011141e-06
-9.4856442e-05
-5.2927094e-05
-3.8349287e-05
-0.00021801204
7.6297532e-05
-0.00021140351
5.3758675e-05
8.4345136e-05
-3.657684e-05
0.00015103169
-8.5365847e-05
-9.3557956e-05
0.00017260241
-6.3122531e-05
-6.8117102e-05
0.00012630147
-0.00011591408
-4.598622e-05
9.0600455e-05
-0.00014350453
1.0183091e-05
7.4521244e-05
-0.00018092969
0.00017051053
-0.00012852261
-0.00016878744
0.00020077143
5.0815547e-05
-0.00019102873
8.0097274e-05
0.00016782517
-0.00020297291
-6.7119142e-05
0.00015668406
-0.00016967683
-9.2173477e-05
6.0932194e-05
-0.00013740864
0.00012453729
-0.00026995331
2.6880457e-07
0.00012639237
8.0260161e-05
-0.00015520949
7.0956351e-05
0.00013766086
-0.00012765264
9.0671545e-06
0.00012772387
-1.0458618e-05
0.00012229403
-3.8437305e-05
0.00013181011
-0.00011898451
0.00014042427
-0.00015970646
0.00014678512
-9.7710799e-05
-0.0002297611
0.0001580743
-7.1352152e-05
-0.00016980403
-4.0827996e-05
-6.038456e-05
9.9198557e-06
-0.00022586379
-5.8062308e-05
0.00016096189
-0.00022828724
-7.6953142e-05
0.00017937815
-6.4913583e-05
-0.00013127837
0.00013511078
8.3974648e-05
-0.00015709318
3.4848894e-05
0.0001452246
-0.00013672839
-4.0864035e-06
0.00011894922
-0.00010378976
-4.8139189e-05
0.00017121181
-9.9098572e-05
-3.5542811e-05
0.00012219283
-0.00010977448
1.3223925e-05
5.7048885e-05
-0.00013753571
0.00014583374
-0.00016066914
-0.0001594069
0.00043953638
-7.4853721e-05
-0.00028101314
0.0004323153
-0.00010660285
-0.00018036778
0.00013533344
-0.00012477633
-9.9536095e-05
9.7329803e-05
-0.00019238846
9.3789777e-06
-8.8728794e-06
-0.00020248516
0.00031639347
-0.00040150082
-8.5639638e-05
0.00046076688
-2.7315776e-05
-0.00015078123
0.00030103249
0.00039299341
-0.00017542326
-0.00010021308
0.00059651332
-0.00015016719
-0.00018003482
7.1467111e-05
4.1034506e-05
0.0001432079
-0.00068172643
6.8787423e-05
0.00019549889
0.00015187878
-0.00014247654
-7.5529861e-05
0.00054969628
-0.00014084294
-0.00029886422
0.00047047575
-0.00010107582
-8.2061773e-07
2.8750716e-05
4.9900997e-05
-3.9776327e-05
0.00021628739
-0.00017605574
0.00029374356
-9.3219209e-06
-0.0001395699
9.6995369e-05
5.9008653e-06
-4.5756592e-05
-0.00022772047
2.6437705e-05
9.4293937e-05
-0.00053676989
2.7526552e-05
0.00027895143
-0.00054406857
-3.2112588e-05
0.00040325593
-0.00025541518
-0.00010588426
0.00042574266
0.00012150593
-0.00018248207
0.00024940089
0.00051940907
-0.00016363544
-6.4761104e-05
0.00070180086
-0.00013551187
-0.0002457589
0.00063070091
-0.00017502897
-1.3486174e-05
3.217904e-05
-0.00010211901
0.00019231168
-6.9358122e-05
-0.00016882758
0.00053277548
-0.00033115395
4.6129539e-05
0.00040944503
5.3947627e-05
5.7425001e-05
0.00035999797
0.00010117556
7.4937531e-05
-3.9031526e-05
9.7836153e-05
0.00014645149
1.8422812e-05
0.00014367159
0.00013619673
-3.2172433e-05
0.00015961811
-9.2527952e-05
-0.00015284589
9.3084513e-05
4.1236883e-05
-0.00024885121
0.00012935408
0.0001178435
0.00027281299
7.6492774e-05
0.00018609408
0.00056134023
-4.7613073e-05
0.00025443058
4.0251838e-05
7.1857672e-05
-0.00020991448
-0.00010738588
0.0001057938
-0.00015210968
0.00013215737
3.6303127e-05
-6.5184797e-05
0.00049655562
-0.00010558318
-0.00011954862
0.00037261775
-0.00021294124
-0.00010592045
-0.00022382072
-4.3833627e-05
-0.00014980007
7.5098932e-05
5.7466118e-05
2.071948e-06
4.583336e-05
0.00027996994
-0.00024972541
0.00022886621
0.00024223885
-0.00023536118
0.00016269485
5.633812e-05
-0.00020052792
9.985169e-05
-7.3227778e-05
-0.00035894409
5.1034959e-05
-0.00015884676
-0.00015671185
6.1577431e-05
-5.980355e-06
3.3756153e-05
1.7563332e-05
0.00011002211
0.00046004754
6.2265104e-06
7.0204173e-05
0.00070725119
-2.9435286e-05
3.952078e-05
0.00055078021
1.5168009e-05
1.1073949e-05
-0.00012109802
0.0001221262
-9.9420016e-06
-0.00010637855
0.00014176414
0.00044328659
2.0273534e-05
0.00017175297
0.0002380785
4.5648116e-05
0.00037306515
7.5935747e-05
8.7387199e-05
0.00043291442
-0.00011518088
1.629897e-05
0.00037603014
0.000126097
3.3258614e-05
5.4571751e-05
0.00034944532
1.5007025e-05
-0.00018721483
9.5841041e-05
-5.2090928e-05
-0.00019757373
-0.00025574156
2.0516934e-05
-2.7820833e-06
-2.0464837e-07
9.5590115e-05
0.00026442072
0.00026829278
1.4761595e-05
6.0119456e-05
0.00026793291
-8.2766237e-06
-0.0002143286
6.7116061e-05
4.1743935e-05
-0.00016366132
0.00013688158
-5.8110381e-05
3.4409065e-05
0.0002898335
-0.00010684392
0.00019357257
0.00010628061
0.00013921481
-7.4640494e-05
-0.00019083538
0.00032631756
-0.000202579
0.00012757472
1.9884343e-05
-0.00023237174
5.8712876e-06
7.5619323e-05
-0.00039108291
0.0001312493
5.5343225e-05
-0.00020290288
7.5351343e-05
-5.0895363e-07
-6.9397551e-05
-1.5986153e-05
-4.277288e-05
-0.00033652408
1.2832727e-05
-0.0001341381
-8.704802e-05
4.1092506e-05
-0.00021461815
0.00016101919
2.9232056e-05
-1.3909274e-05
0.00028480907
-1.9959409e-05
0.00013016393
0.00045235832
-6.146965e-06
0.00034457964
0.00020723029
6.9487838e-05
0.0001763748
-2.0491722e-05
3.7145507e-05
-0.00018957973
0.00022885329
6.8546829e-05
0.00017266021
8.1647772e-05
0.00019537644
6.613703e-05
0.00020079728
7.9802501e-05
6.691286e-05
0.00014667798
9.9842761e-05
0.00019867129
0.00023990778
0.00022036879
0.00016888417
0.0002555074
-0.00016618592
0.00020837822
-0.0002241367
0.00015173346
-2.0435237e-05
0.00014031341
0.00013251298
0.00027579483
1.2715015e-05
0.00032220649
-4.0582812e-05
0.00019859128
7.7741083e-05
7.7130858e-05
8.5283704e-05
-2.7158741e-05
0.00013449589
0.00020920913
0.00013720103
-9.4272625e-05
-4.5133327e-05
-0.00012301586
-3.2813559e-05
-1.5260901e-05
4.0183582e-05
0.00011754849
-0.00019365089
7.7739605e-05
-0.00029829085
0.0001245529
-0.00026531509
8.3961956e-05
-0.00012234481
4.9774454e-05
0.00014059696
9.4560105e-05
0.00012133328
0.00018814468
-0.00010922678
0.00028636586
-8.2613202e-05
0.00025599837
0.00017439214
-0.00015089781
0.00016354508
-9.4339287e-05
-0.00025921121
0.00012257183
-7.1377324e-05
-0.00015735013
-0.00016878215
-4.6218156e-05
-6.7620242e-05
-0.00019157561
-3.9479603e-05
6.7246482e-05
-0.00025153816
-6.360131e-05
0.00020311671
-0.00025156251
-5.2418817e-05
0.00031072282
-0.00024347735
-5.4346147e-05
0.00024905796
-4.4321756e-05
-9.4532553e-05
6.5350373e-05
0.00011908744
-0.00010377933
-5.326938e-05
6.2850175e-05
-8.1307169e-05
5.6998249e-05
-0.00013684465
2.6117715e-05
0.00013660737
-0.00013405528
-0.00010071845
0.00010567215
-9.5430871e-05
-0.00020447982
0.00010629616
-8.4381212e-07
-0.00020701746
-0.00010445933
3.4112252e-05
-0.0001170967
-0.0001911715
3.9356293e-05
1.1621169e-05
-0.0002045373
1.6001046e-05
0.00015360668
-0.00024114508
1.9655411e-05
0.00024374036
-0.00021497767
-8.4428051e-06
0.00028304907
-0.00019653531
-2.1636551e-06
0.00012340896
3.9876271e-05
-1.8248513e-05
-8.8948536e-05
0.00011460345
-8.1119549e-06
-0.00017211335
3.543655e-05
-5.2813854e-05
-3.336197e-05
-0.00025449808
3.5102552e-06
7.3802218e-05
-0.00022376662
-2.3877601e-05
2.5595519e-05
-0.00011382535
-0.00026141267
0.00036086575
-1.0761726e-05
-0.00021707822
-2.8704489e-05
3.3902767e-07
-4.8936031e-05
-0.00046777294
6.0722724e-06
-6.3741958e-07
-0.00045751575
2.5253069e-05
9.7910353e-05
-0.00052601584
-2.6555256e-05
0.00026903053
-0.00050925779
9.3545517e-07
0.00042110885
-0.0005539181
7.5812003e-06
0.00044086473
-0.00019602399
-4.3476911e-05
2.4190231e-05
0.00042932275
-4.3728004e-05
-0.00022945962
0.00030484027
5.2694266e-05
1.2917505e-05
-0.00037088882
6.0454466e-05
0.00018469983
-0.00039989892
-4.8415222e-05
0.00019599885
-4.6469797e-05
-0.00030198801
0.00022163954
0.0001773227
-0.00029252745
-0.0003437679
0.00023574887
-0.00016539489
-0.00044735417
0.00015548782
2.6718172e-05
-0.00040653423
3.7410427e-05
0.00020586741
-0.00048398892
3.1582021e-05
0.00034739389
-0.00045131531
-1.10731e-05
0.00045199512
-0.00051819025
3.4571653e-05
0.00025652278
6.7728959e-05
3.9842221e-06
-0.00023497254
0.0005897622
-0.0001191753
-0.00025214783
3.7662181e-06
-0.00012618335
-3.1518315e-05
-0.00060775226
3.0505644e-05
0.00012905266
-0.00054573054
-7.4346476e-06
3.8416206e-05
-0.00021492198
0.00016639573
0.00025704369
-8.626045e-06
0.00025866069
-6.9860499e-05
5.006662e-05
0.00017358071
-0.0003116412
2.678439e-05
0.0001310108
-0.00035926737
8.7993111e-05
0.00010406024
-0.00034853907
9.0918775e-06
9.2210994e-05
-0.00042443749
2.0113459e-05
-3.3953391e-05
-0.00034858595
5.0186301e-05
-0.00013187962
-7.6567262e-05
5.496227e-05
-8.5250629e-05
0.00033857899
-3.4983107e-06
7.952348e-05
9.5150566e-05
0.00011677327
5.3870635e-05
-0.00031641934
7.6977177e-05
-0.00013801085
-0.00014880993
-2.2904373e-05
5.686994e-05
-0.00010446512
0.00010874963
1.2166674e-05
0.0001465566
4.0087807e-05
-0.00013333466
8.7094783e-05
-3.3898845e-05
-0.00021916305
8.4903816e-06
5.6734502e-05
-0.00035287394
-4.4441936e-05
0.00010586504
-0.00045640395
-2.568054e-05
0.00011797501
-0.0003397981
-6.2049726e-05
-2.3079084e-05
-0.00017022169
-0.00018935112
-1.7968447e-05
5.9757385e-06
6.2869104e-05
0.00011186581
0.00049855333
-6.8060669e-05
0.0001411014
-3.6000054e-05
2.5698686e-05
-3.2114241e-05
-0.00039114499
7.8734555e-05
-0.00010979013
-0.00036329805
3.7007517e-05
-0.00013091396
7.9813561e-05
0.00025644659
4.8464304e-05
-2.2190856e-06
0.00023837703
3.1264362e-07
3.5283617e-05
0.00019502743
-0.00033223098
8.0238348e-05
0.000162746
-0.000345641
5.191368e-05
0.00010855049
-0.00023889216
-4.0444384e-05
1.7181446e-05
-0.00039713745
1.197806e-05
-4.5355733e-05
-0.00033093216
6.540032e-05
-0.00017570937
2.261883e-05
0.00012675765
1.08099e-05
0.00010896899
5.7852321e-05
9.2077946e-05
-6.1594879e-05
6.7200777e-05
1.3141223e-05
-0.00032786747
0.00013212879
-4.7608633e-05
-5.7908856e-05
-8.8261589e-05
2.183172e-05
-0.00011941433
0.00012411158
-0.00013681469
3.0741066e-05
4.6652577e-05
-1.4531951e-05
8.99056e-05
5.95496e-05
-0.00014415357
-1.2555164e-05
5.2059467e-05
-0.00036854426
7.1743109e-06
6.818307e-05
-0.00045922671
-4.6809114e-07
0.00013946051
-0.00032698362
-4.2999402e-05
3.8028689e-05
3.3368855e-05
-7.2926647e-05
-2.1682943e-05
0.00016543326
-0.00011970529
0.00022550146
0.00026142916
-1.6207192e-05
8.4739985e-05
0.00015423397
2.0015283e-05
1.7279147e-05
-0.00039762996
0.0001110913
4.7262036e-05
-0.00036372713
3.8993005e-05
-0.00012977608
0.00012777192
0.00019663297
-8.2031637e-05
0.00036242135
-8.5673227e-05
0.00027275462
-9.5886279e-05
0.00017239067
-4.660577e-05
0.00012698461
2.6882678e-05
-0.00010076234
8.6116894e-05
-0.00029698192
7.3665619e-05
-0.00016965109
4.702146e-05
4.332206e-05
3.6309246e-05
9.3840072e-05
0.00016368195
-9.2961882e-05
0.00018114098
-7.1359243e-05
0.00011907979
2.7603337e-05
-2.4454745e-05
-0.00020663258
9.7786735e-05
-0.00025978929
0.00019483508
-0.00025646281
0.00013807587
-0.00019423656
-9.5256005e-05
-0.00014815522
-0.00027039381
-2.7292892e-05
-0.00022946113
7.6398141e-05
-7.1196413e-05
5.6943004e-05
0.00016999971
0.00011479314
0.00031124344
0.00020113491
3.9107292e-05
0.00016087204
-9.7392374e-05
2.8770898e-05
-5.2776312e-05
-0.00020793116
0.00013667054
-2.1467968e-05
-0.00029080533
1.6792076e-06
1.2955963e-05
-0.00016481629
-0.0002418652
6.9528442e-05
-8.9111223e-05
-0.00016381435
4.9759709e-05
1.9609465e-05
-0.00024095793
6.8236077e-05
0.00017002821
-0.00030536737
0.00010119242
0.00026042777
-0.00023306323
8.7550507e-05
0.00030983969
-0.00021630718
7.1511899e-05
0.00014541374
3.95179e-05
2.1396938e-05
-5.5373223e-05
8.5043424e-05
3.4227565e-05
1.3230352e-05