/*--------------------------------*- C++ -*----------------------------------*\
| =========                 |                                                 |
| \\      /  F ield         | OpenFOAM: The Open Source CFD Toolbox           |
|  \\    /   O peration     | Version:  v2012                                 |
|   \\  /    A nd           | Website:  www.openfoam.com                      |
|    \\/     M anipulation  |                                                 |
\*---------------------------------------------------------------------------*/
FoamFile
{
    version     2.0;
    format      ascii;
    class       volScalarField;
    location    "180/bottomWater";
    object      T;
}
// * * * * * * * * * * * * * * * * * * * * * * * * * * * * * * * * * * * * * //

dimensions      [0 0 0 1 0 0 0];


internalField   nonuniform List<scalar> 
1460
(
1001.2797
998.14654
996.33567
994.11224
989.81392
993.83494
997.94731
1000.9732
999.26798
988.11123
983.75159
982.35079
979.49474
976.21811
973.55731
971.0459
975.99283
976.57062
978.92293
980.51179
992.34087
993.59242
991.9163
990.12941
989.02931
991.12331
993.63889
994.79112
995.67364
996.18645
997.83985
996.38955
994.31736
992.29436
988.68752
989.19372
992.65191
996.04344
995.04402
984.03436
981.49818
977.43894
974.30296
971.75323
969.8291
969.25514
972.91287
976.6945
980.65752
980.36887
988.34072
990.68675
989.10098
987.56401
987.48231
991.4825
993.48036
995.32506
996.84666
997.06435
998.98197
997.47085
994.97239
992.29839
988.67372
987.82855
993.11642
993.54875
992.29922
987.17431
982.46296
978.87737
975.27292
973.06764
970.23343
969.24511
973.12853
977.69061
983.59051
985.59993
988.80334
990.37174
988.45259
986.51157
986.53641
991.364
993.29954
995.73631
998.67914
997.54534
999.01898
997.09569
995.25805
993.19841
989.17373
987.05858
989.17409
990.28839
991.26881
987.38094
983.5531
980.27979
975.54217
972.23804
968.28264
968.7826
974.82556
982.34438
983.57468
985.13677
988.53561
988.96933
986.63727
985.65677
985.68413
990.88044
992.61382
994.69957
998.93643
998.20338
996.2541
995.28897
995.04745
993.26786
989.18933
986.87998
986.77758
987.77473
989.18957
985.10756
982.71187
980.25777
975.56266
969.85503
966.27857
968.62074
974.33135
976.19197
977.15212
979.90987
983.71962
985.9852
984.60168
983.71794
983.91162
990.00443
991.83758
992.5333
993.29192
994.07609
1002.9246
1000.4805
998.71013
997.76504
994.33474
995.35219
997.04827
1000.4017
999.15139
987.24688
982.12835
978.99821
976.15024
973.73019
970.74447
970.68691
974.39746
977.38575
981.63601
989.22207
993.1849
992.55801
992.27868
991.34876
991.72891
992.33612
994.84871
995.6573
995.98776
996.09846
999.20602
998.14973
998.35701
994.41486
991.2952
992.40678
995.35076
997.03713
996.85833
985.13013
979.08393
976.60201
975.07088
973.88622
969.52172
967.52937
970.02512
972.75178
976.33751
980.16937
988.2778
990.84381
991.21293
990.43303
989.50647
992.29246
994.98106
996.93243
996.95152
996.97402
999.43643
1000.463
998.55484
992.97601
991.87898
992.067
995.03099
995.17836
995.79626
985.9724
979.17548
978.00656
977.00988
974.77644
969.64329
966.39243
971.89052
974.47255
976.7054
980.69579
989.06018
991.11811
990.55822
989.89472
989.13202
991.84329
994.85074
997.5292
997.41289
997.22125
999.23067
1000.1775
1000.3796
993.64233
992.10644
991.49181
992.87125
995.03801
993.5237
986.21647
980.40939
979.89399
976.99437
976.37043
973.30901
965.429
973.02565
977.53646
980.05586
982.06271
989.31134
990.96642
990.40098
988.5347
988.21066
992.86473
995.32576
997.75961
997.70592
997.46347
995.90763
997.31814
997.5551
993.76919
992.15627
989.9572
988.36993
988.80952
988.01783
984.87365
980.92423
977.81961
972.50454
968.16413
965.79193
965.18328
973.34097
976.76537
978.71075
981.06711
987.51054
986.99141
986.9851
985.67368
986.73358
990.63688
992.94715
993.62484
994.84957
995.54632
1007.4992
1004.4208
1002.8628
1002.1095
999.68665
1001.8513
1002.759
1001.9012
994.18799
986.27792
982.23333
977.95658
974.20856
971.47606
967.38472
970.79818
974.99206
978.57386
981.98339
982.5352
986.15029
987.70149
988.59479
990.24935
991.97419
993.98759
995.83227
996.30188
996.45543
996.52807
1002.4576
1001.3018
1001.2941
998.32391
996.87894
997.73171
999.30671
999.48473
991.44783
983.98404
981.00895
974.40111
970.73935
967.68976
964.213
964.798
968.32887
971.78085
975.55131
977.28575
983.04275
986.28512
987.10365
988.63839
991.10506
993.37885
995.59245
996.46365
996.63291
996.78641
1002.3683
1001.7947
1002.762
998.56092
996.86457
997.60169
999.19431
998.87109
991.58386
987.30817
981.89847
974.93063
971.20294
967.4472
963.42603
963.36196
966.14564
971.03844
974.67543
976.90489
984.88435
988.99687
987.45779
989.37032
991.47653
993.00969
995.33996
997.15759
996.82876
996.9526
1002.7833
1002.5373
1001.2453
998.88246
996.93698
997.37186
998.59105
998.23871
991.61078
987.12457
976.65905
975.2521
970.1988
968.47392
969.03602
962.46634
965.6452
971.66848
974.44412
976.27475
980.35669
987.5143
986.17496
989.41933
990.95859
991.95648
996.72874
997.32642
997.0904
997.14505
1000.8791
999.96667
999.08956
996.54121
994.16565
994.93332
991.65049
990.03953
988.92085
985.84807
978.73017
975.80084
969.7221
964.86749
963.74643
958.98153
963.32156
971.48401
973.0191
975.06369
980.37357
983.56536
983.09913
985.73679
988.81948
991.02908
994.02063
993.88628
994.89
995.62468
1009.9737
1007.976
1006.113
1004.1916
1000.1344
998.03725
998.30436
998.90468
994.82522
984.7707
981.81465
978.91267
971.24602
968.28728
967.43146
968.51829
970.43869
971.54424
976.78329
977.40182
980.63577
984.74336
984.84256
985.3127
986.58991
993.57145
996.67804
996.46646
995.98061
996.58992
1006.7253
1005.0943
1003.6227
1001.3969
998.0846
997.21438
996.58585
996.78275
993.48512
982.11981
981.52967
975.74725
969.18958
964.42867
963.51526
963.72284
965.41359
970.08363
972.17163
971.62858
980.60862
985.9234
986.68107
986.36373
986.88653
991.62546
995.9772
996.19185
996.23456
996.38471
1006.3767
1005.2131
1004.8094
1001.4725
999.83367
998.09599
997.0256
997.21762
993.71234
989.92978
981.41906
971.9239
966.78171
962.20377
957.53379
958.33612
962.32708
967.40728
964.95403
970.59442
979.78257
986.67849
988.66153
988.0751
987.78204
991.64605
995.85297
996.92565
997.42455
996.64783
1006.2852
1005.7354
1004.5848
1004.0928
1003.0511
996.51675
994.6836
997.57354
993.15642
991.33548
977.2145
968.40582
964.86736
961.56786
958.89398
957.7956
957.18351
954.84561
960.13315
973.56606
980.87645
985.07441
988.55065
988.91949
988.32956
992.25507
995.54757
995.90808
996.88264
996.93786
1003.5347
1001.6177
998.83501
999.45806
1000.216
995.95798
990.09796
987.31414
988.52528
986.71133
977.24861
965.4843
963.46007
957.23861
951.09641
953.51816
951.68825
952.13548
959.66571
973.76541
979.58447
982.9608
984.76129
987.12267
988.12481
991.64632
992.34468
992.14036
994.6542
994.3493
1006.517
1005.0378
1003.2757
1001.3037
997.58427
995.3107
995.114
995.84638
996.64999
985.852
977.68456
973.28541
962.1665
958.83095
968.76546
970.71536
972.65772
979.70393
982.28827
984.05115
985.40884
991.89188
995.38546
995.06134
995.16038
995.9554
1005.1817
1004.1571
1003.0975
1000.8671
997.73079
994.31974
994.05274
994.46937
994.93429
978.90616
976.55933
967.61948
960.1459
958.52506
964.03928
969.01784
972.592
979.16316
982.99715
985.37719
985.87482
991.23687
994.30336
994.43955
995.05286
995.95379
1005.4586
1005.5305
1003.1796
1000.655
998.17529
993.7411
993.30596
994.73406
992.86077
980.47783
975.52134
965.90807
956.06339
955.32921
959.53955
967.39895
972.0781
978.60302
983.97086
986.48338
987.38678
991.85949
995.03209
994.09494
994.81836
995.40329
1005.7756
1005.4981
1000.5759
998.78415
996.99045
992.02875
989.89221
994.29561
992.99589
982.09368
972.20172
967.26254
954.89721
945.01258
953.89778
965.41288
969.55471
977.16125
983.97521
986.98458
988.71287
992.78334
994.7443
992.31775
993.2411
994.19379
998.84103
997.62075
996.87387
996.91456
996.54731
991.72096
987.006
986.32501
986.41614
982.7813
970.5449
958.65654
945.99057
944.13172
961.69188
965.23874
970.4305
976.76259
984.36328
985.96147
987.28987
991.73318
991.81252
991.0855
992.29739
991.91283
1004.0042
1002.3359
1000.7813
999.02956
995.98287
992.36553
992.12732
993.02676
994.39971
988.66417
977.12158
973.39688
964.67993
966.15078
976.1803
975.97976
976.56436
979.17581
981.13791
980.47281
990.7598
992.5239
991.92487
991.72491
992.95499
994.66189
1002.4303
1001.5993
1001.0021
998.81997
995.63938
991.62547
990.77876
992.51111
993.12018
982.86869
976.14617
970.65005
960.95627
962.67999
969.57023
970.96049
975.3791
980.42463
982.14585
982.56274
988.01664
991.80192
991.98158
992.06392
993.80329
995.72213
1002.5443
1002.7029
1001.5489
999.05856
995.67119
991.20327
990.05309
993.02725
989.15591
980.94422
976.43838
970.65149
961.36537
958.3388
963.13118
966.74943
974.70313
981.2911
982.44878
986.03243
987.92172
990.17469
991.57043
991.7448
993.61655
995.59803
1002.7124
1002.7877
1002.4036
998.35052
995.28974
990.46823
988.86335
992.89567
989.8007
982.12222
976.92806
975.19982
968.03457
953.83783
957.75756
965.53695
974.25734
979.18492
979.79607
985.85568
988.18854
990.18143
990.71971
990.79581
993.25007
994.74221
998.75256
997.98203
997.0738
996.02033
994.67888
989.95869
988.0563
988.37114
988.64707
982.12649
977.78203
974.47464
970.84959
955.12417
964.75854
969.37771
973.6567
975.92198
977.59548
984.43796
985.75767
989.27462
989.57727
990.21711
993.13371
994.24831
1004.4224
1002.025
1000.312
998.50394
997.07919
993.81218
994.17481
995.48452
997.2508
985.4193
980.77727
980.51623
976.06153
958.73487
963.01119
958.29649
955.84994
958.6936
967.80065
976.76298
977.91935
979.34993
981.29631
981.82352
989.83216
995.26688
993.77242
994.09021
995.2276
997.95043
1001.6739
1000.0664
998.85081
997.71745
996.06536
992.58286
992.87456
993.41104
994.27983
983.52656
979.60234
978.24765
975.05987
963.51315
966.46551
962.02038
960.35371
960.9396
967.21347
975.39434
978.52641
983.07636
982.94015
982.88205
989.80661
994.12886
993.53077
993.00371
994.42366
997.06949
1001.6756
999.80043
998.54235
997.65478
996.05028
992.36146
993.4338
996.11324
994.22871
983.27301
981.67919
977.66205
974.67315
968.83952
967.39078
962.46123
960.57834
960.85062
967.736
976.54964
982.65422
986.41794
986.30138
983.45418
989.1992
991.1037
993.43284
993.89255
994.43811
997.05672
1001.7837
1000.4831
1000.3088
999.92397
996.52879
992.18754
991.81455
994.71301
994.32185
983.73864
982.21823
981.55218
978.9136
977.27934
966.62001
962.19305
962.55897
963.20666
969.71597
977.2773
980.77019
985.52573
984.89481
985.17444
989.07563
991.2776
993.16206
993.59547
994.35201
998.26223
999.74093
998.23947
997.45308
996.65058
994.87949
991.70421
992.27902
993.05116
993.05001
984.50556
984.00657
983.33409
982.25348
977.82906
966.29394
963.74252
964.65575
967.94
972.10561
977.23808
979.33052
981.41527
981.496
984.34976
988.3263
991.67564
993.56837
993.90602
994.66887
996.60077
1002.895
1000.6754
999.57516
998.5991
997.53362
996.90388
996.80529
997.30312
993.48371
986.71199
984.72504
984.11842
984.83616
979.83275
974.09523
971.81699
972.29811
976.07851
984.2204
989.52837
987.79518
987.76055
988.90293
989.10024
991.12047
994.47687
996.40195
996.2893
996.23552
999.65178
999.52214
997.77508
996.91042
996.37195
996.11626
995.22995
995.44414
995.67493
993.41811
984.19344
983.12144
984.49348
983.70002
979.09828
973.72053
970.56136
970.68416
971.57641
978.13876
986.00422
986.1165
988.11336
989.52884
988.18035
990.19369
993.16892
995.7289
995.56475
995.67739
998.49344
999.71679
997.90288
996.76768
995.40595
995.99575
994.79513
995.56752
995.98766
993.94682
984.52626
984.85923
984.70543
983.80991
978.66148
974.77901
973.69182
970.81918
970.87398
979.23788
986.45565
986.65109
988.24828
988.77231
988.10502
991.43131
993.87224
997.49298
996.13056
996.34435
999.2326
1000.0319
998.48406
997.65714
996.73213
995.6993
993.5507
995.22532
995.70475
994.26591
985.38145
985.61649
983.73953
983.01638
978.40565
976.56564
975.11507
973.80124
973.54312
980.33552
986.69837
986.84227
988.19691
987.63306
990.56389
991.44898
994.97594
997.42081
996.86042
997.16261
1000.1954
998.3797
997.23228
995.95762
995.17616
993.62551
991.88781
992.98082
993.16454
993.19377
984.82182
984.65279
983.7028
982.49285
978.33554
971.869
972.63656
973.20992
975.13196
979.93568
984.3497
984.44824
983.48577
985.94266
990.1747
991.56571
993.87127
995.46927
995.28562
995.63628
997.18194
1000.074
998.01619
996.16537
994.36519
993.13393
993.69489
994.26319
994.92813
994.137
988.45919
986.19841
984.58565
982.57334
979.83066
976.95744
975.87447
976.59785
977.74243
980.92216
988.61836
988.94068
988.95212
988.64065
992.50858
992.43115
995.21472
997.74153
1000.3176
1001.0301
1001.6645
997.88503
996.26441
994.45864
992.60164
991.79707
993.327
994.71651
994.72388
994.33287
987.95987
984.74831
983.98495
982.90142
979.27198
976.14228
976.09115
976.17289
977.27266
980.20363
987.75246
987.72622
987.58071
989.61102
992.81887
993.21115
994.34238
997.05426
1000.0242
1000.0093
1000.6112
998.07965
996.9953
995.14168
993.16369
992.31978
993.64874
995.22189
995.353
994.38337
988.08714
984.97881
986.26526
984.27751
979.64499
976.26936
975.95237
975.46305
977.39025
980.86164
988.02612
987.53233
986.34608
989.57511
992.52433
993.98477
995.08989
997.587
998.16905
997.96946
1000.7419
998.507
998.73309
995.88657
993.0742
991.95941
994.7306
994.5852
994.4385
993.79563
988.05615
985.98939
985.86441
984.04415
978.1461
975.54548
976.62252
978.20887
978.57891
981.76578
986.86067
987.24335
985.98529
989.21482
992.54887
993.3514
996.43209
998.04644
998.80683
1000.8713
1001.0493
996.68708
996.38764
995.20826
993.97011
990.9984
990.91378
991.35298
991.30428
991.20678
986.80535
985.12344
984.01924
982.91122
980.04036
974.75459
973.56792
975.74565
977.80652
981.17804
983.17948
983.96266
982.79833
988.1529
991.58829
992.64645
994.81073
996.48095
997.48589
999.05706
996.26543
998.46905
996.78657
994.85639
992.55673
990.09828
991.70429
992.33436
993.66862
990.50268
986.85375
985.95055
984.69307
983.11314
980.41019
975.20117
976.03201
977.11374
977.90452
983.76582
987.13936
986.20681
986.56942
985.2559
986.40554
987.67508
998.90403
999.1047
998.25036
998.12322
999.34298
997.98171
997.26873
994.88187
992.13639
989.5759
989.98999
992.48269
992.73541
991.93815
986.32423
985.93613
985.56685
984.02775
981.35622
975.57496
976.10567
977.51297
979.3063
982.43592
986.42538
986.19386
983.87587
985.4048
987.43121
987.90986
998.1692
999.12113
998.61766
998.04819
999.42632
998.67151
997.82104
995.0097
992.04864
989.32783
989.71742
993.13269
992.53701
991.59485
986.61745
986.60248
985.81661
984.0151
981.1103
975.45053
975.95403
977.84415
983.20939
982.8798
985.47397
986.36685
983.45049
985.16765
989.9743
988.23582
998.59354
998.7996
998.41615
997.61477
996.70153
999.38109
997.10268
994.1441
991.89725
988.66264
989.20342
991.82735
991.66926
991.52395
987.04478
987.05896
984.98269
983.34564
980.57994
975.03668
975.52216
977.67732
982.20295
983.49213
985.45809
986.22455
982.51577
983.96078
989.59197
989.1683
999.20048
997.92769
997.58508
997.21637
994.87094
994.38042
993.91215
993.34208
992.05163
988.26587
988.38007
988.51701
988.66366
988.93969
984.99783
984.06389
983.27153
982.27553
979.99921
974.53316
974.90737
977.00537
978.96808
980.40378
981.98884
981.67344
981.24372
983.67195
988.77451
989.6812
993.01545
993.78583
995.12321
996.14155
994.01943
)
;

boundaryField
{
    minX
    {
        type            zeroGradient;
    }
    maxX
    {
        type            zeroGradient;
    }
    minY
    {
        type            fixedValue;
        value           uniform 1073;
    }
    minZ
    {
        type            zeroGradient;
    }
    maxZ
    {
        type            zeroGradient;
    }
    bottomWater_to_rightSolid
    {
        type            compressible::turbulentTemperatureCoupledBaffleMixed;
        refValue        nonuniform List<scalar> 
130
(
670.13153
675.8779
681.81804
687.64517
693.11387
698.06933
702.45002
706.23313
709.4137
711.94484
713.83008
715.08305
715.71052
665.69584
672.47833
679.32605
685.88809
691.89977
697.25604
701.91616
705.88862
709.18373
711.79157
713.72487
715.00724
715.64788
656.66908
665.82874
674.62503
682.65388
689.72791
695.81983
700.99191
705.3015
708.80311
711.54163
713.55203
714.87957
715.54111
643.07362
656.75683
668.7413
678.86475
687.30319
694.28577
700.02621
704.69167
708.42035
711.29008
713.38316
714.76256
715.44275
627.0743
648.2226
663.89653
675.98963
685.55644
693.2209
699.36729
704.28177
708.16614
711.12727
713.27393
714.68188
715.37635
627.26426
648.37359
664.00571
676.04834
685.55975
693.1836
699.33338
704.25062
708.13647
711.10671
713.26726
714.68957
715.39529
643.52551
657.12688
668.98273
678.98647
687.335
694.26336
699.98762
704.66019
708.39834
711.28686
713.39557
714.78288
715.47712
657.15996
666.24181
674.93789
682.83905
689.81697
695.87638
701.04108
705.34352
708.84357
711.58264
713.59709
714.92666
715.59201
666.16991
672.86556
679.60845
686.05031
691.98983
697.34223
702.02335
706.00081
709.28637
711.88703
713.81665
715.09225
715.71591
670.60506
676.26105
682.09643
687.81196
693.20833
698.16288
702.57741
706.37179
709.53651
712.05261
713.92909
715.1696
715.77584
)
;
        refGradient     uniform 0;
        valueFraction   uniform 0.99248593;
        value           nonuniform List<scalar> 
130
(
672.4313
678.14167
684.05789
689.86985
695.31454
700.22237
704.56352
708.31965
711.52213
714.048
715.9243
717.17356
717.80221
668.03323
674.77936
681.59333
688.15453
694.11713
699.43314
704.04839
707.99895
711.29865
713.90422
715.8281
717.11002
717.75109
659.03468
668.13703
676.88253
684.89109
691.93592
697.97853
703.13155
707.4319
710.92385
713.66422
715.65852
716.98361
717.6457
645.39599
659.03284
671.03337
681.1245
689.52487
696.46846
702.1835
706.82145
710.54862
713.40196
715.47781
716.86572
717.5385
629.45654
650.57803
666.16084
678.20208
687.74469
695.40866
701.52084
706.40833
710.29698
713.23639
715.36146
716.76794
717.45429
629.72774
650.75109
666.30041
678.28466
687.7416
695.32079
701.47575
706.36593
710.24901
713.19919
715.3483
716.78185
717.49065
645.96328
659.49379
671.29904
681.24336
689.54481
696.42168
702.12431
706.79163
710.52691
713.40798
715.50338
716.886
717.58954
659.54929
668.59906
677.26287
685.1054
692.02363
698.05603
703.21369
707.49426
710.98533
713.71583
715.71376
717.03598
717.70792
668.51164
675.18238
681.88956
688.28889
694.17502
699.52749
704.19922
708.15474
711.43188
714.02555
715.94822
717.22601
717.82402
672.92219
678.54648
684.34989
690.0201
695.37269
700.30826
704.72798
708.50065
711.66664
714.16962
716.04205
717.28087
717.86658
)
;
        Tnbr            T;
        thicknessLayers List<scalar> 0();
        kappaLayers     List<scalar> 0();
        kappaMethod     fluidThermo;
        kappa           none;
        alphaAni        none;
        alpha           none;
        field           T;
    }
    bottomWater_to_leftSolid
    {
        type            compressible::turbulentTemperatureCoupledBaffleMixed;
        refValue        nonuniform List<scalar> 
130
(
729.65083
729.59064
729.46853
729.27737
729.02672
728.75169
728.47364
728.1955
727.90968
727.60358
727.32022
727.08966
726.94516
729.70155
729.64899
729.52844
729.33286
729.08732
728.80687
728.50807
728.20328
727.88665
727.55843
727.24706
726.99492
726.83808
729.79833
729.73441
729.60554
729.41044
729.16211
728.87793
728.55186
728.20915
727.85646
727.49264
727.13767
726.85746
726.68716
729.85017
729.77992
729.6463
729.46276
729.21829
728.90842
728.55638
728.18994
727.81541
727.42316
727.02452
726.69744
726.5218
729.81896
729.75514
729.63237
729.45294
729.20991
728.9026
728.56404
728.21245
727.83853
727.4357
727.02511
726.69001
726.48223
729.80468
729.74545
729.62833
729.45438
729.22424
728.94213
728.64425
728.33505
728.00318
727.64202
727.31422
727.06142
726.9135
729.7926
729.7349
729.62591
729.46691
729.26066
729.01979
728.77253
728.51113
728.22636
727.9144
727.65738
727.46757
727.36106
729.747
729.69406
729.59196
729.44651
729.26252
729.0563
728.84441
728.61588
728.36731
728.0948
727.87742
727.71839
727.62978
729.68211
729.63555
729.54053
729.40133
729.22496
729.03913
728.84561
728.63849
728.41739
728.18357
727.98769
727.84513
727.76605
729.62182
729.57825
729.48911
729.35408
729.17968
729.0011
728.81569
728.62088
728.41608
728.20137
728.0223
727.89197
727.81992
)
;
        refGradient     uniform 0;
        valueFraction   uniform 0.99248593;
        value           nonuniform List<scalar> 
130
(
731.65413
731.58714
731.46412
731.26107
730.98162
730.69127
730.41454
730.14599
729.87296
729.53847
729.23926
728.99198
728.81323
731.70186
731.6603
731.54242
731.31992
731.06407
730.76918
730.46069
730.16147
729.8413
729.49195
729.15326
728.87963
728.68397
731.83529
731.76499
731.63051
731.41773
731.15338
730.87711
730.5288
730.17653
729.81813
729.43397
729.02823
728.72806
728.51333
731.90667
731.82253
731.66901
731.49161
731.25454
730.91498
730.5216
730.13704
729.77426
729.37136
728.90453
728.4917
728.30221
731.84041
731.76791
731.64045
731.4627
731.21865
730.87731
730.50603
730.15198
729.78142
729.35425
728.85458
728.43304
728.1317
731.82559
731.76102
731.63795
731.45739
731.2189
730.90339
730.5935
730.28899
729.96169
729.55417
729.19621
728.92053
728.74652
731.82103
731.75249
731.63841
731.47457
731.25655
730.99365
730.75258
730.49895
730.21634
729.84257
729.58371
729.39027
729.27642
731.76556
731.70439
731.59348
731.44325
731.24898
731.03127
730.82919
730.60377
730.35728
730.02392
729.80693
729.64196
729.54491
731.68844
731.63996
731.53682
731.38935
731.19198
731.0069
730.81814
730.61222
730.39205
730.12688
729.91985
729.77007
729.68324
731.61123
731.56446
731.47173
731.32805
731.12649
730.95012
730.76713
730.57489
730.3737
730.13098
729.94623
729.81094
729.73194
)
;
        Tnbr            T;
        thicknessLayers List<scalar> 0();
        kappaLayers     List<scalar> 0();
        kappaMethod     fluidThermo;
        kappa           none;
        alphaAni        none;
        alpha           none;
        field           T;
    }
    bottomWater_to_heater
    {
        type            compressible::turbulentTemperatureCoupledBaffleMixed;
        refValue        nonuniform List<scalar> 
92
(
656.1223
657.65217
660.6572
664.92926
648.98026
650.78557
654.34301
659.45956
633.84667
636.19219
640.92237
647.94042
341.37357
338.48748
338.54252
341.49809
408.95028
405.31741
405.53869
409.48021
464.8675
461.62509
462.21932
466.30857
510.6519
508.29178
509.77699
514.33952
609.00569
546.73759
611.94298
546.01318
618.37829
549.54783
628.82486
556.26597
341.37357
341.49809
408.95028
409.48021
464.8675
466.30857
510.6519
514.33952
546.73759
556.26597
341.37366
341.37366
338.48358
338.53155
341.50304
341.50304
408.98661
408.98661
405.34772
405.55742
409.50823
409.50823
464.98538
464.98538
461.70682
462.27739
466.36795
466.36795
510.86989
510.86989
508.41699
509.87119
514.46153
514.46153
547.03613
547.03613
546.18784
549.68688
556.44371
556.44371
609.63823
612.52202
618.90096
629.31409
634.6132
636.90668
641.59026
648.52686
649.78183
651.53543
655.01991
660.03088
656.92504
658.40349
661.32692
665.49575
)
;
        refGradient     uniform 0;
        valueFraction   nonuniform List<scalar> 
92
(
0.99248593
0.99248593
0.99248593
0.99248593
0.99248593
0.99248593
0.99248593
0.99248593
0.99248593
0.99248593
0.99248593
0.99248593
0.99248593
0.99248593
0.99248593
0.99248593
0.99248593
0.99248593
0.99248593
0.99248593
0.99248593
0.99248593
0.99248593
0.99248593
0.99248593
0.99248593
0.99248593
0.99248593
0.99248593
0.99248593
0.99248593
0.99248593
0.99248593
0.99248593
0.99248593
0.99248593
0.99248593
0.99248593
0.99248593
0.99248593
0.99248593
0.99248593
0.99248593
0.99248593
0.99248593
0.99248593
0.99248593
0.99248593
0.99248593
0.99248593
0.99248593
0.99248593
0.99248593
0.99248593
0.99248593
0.99248593
0.99248593
0.99248593
0.99248593
0.99248593
0.99248593
0.99248593
0.99248593
0.99248593
0.99248593
0.99248593
0.99248593
0.99248593
0.99248593
0.99248593
0.99248593
0.99248593
0.99248593
0.99248593
0.99248593
0.99248593
0.99248593
0.99248593
0.99248593
0.99248593
0.99248593
0.99248593
0.99248593
0.99248593
0.99248593
0.99248593
0.99248593
0.99248593
0.99248593
0.99248593
0.99248593
0.99248593
)
;
        value           nonuniform List<scalar> 
92
(
658.47967
659.97124
662.97126
667.25415
651.37868
653.15264
656.6787
661.81809
636.33402
638.65346
643.31234
650.31022
346.08426
343.21349
343.27622
346.224
413.12423
409.51181
409.73296
413.65752
468.60458
465.35148
465.94709
470.03554
514.04019
511.6778
513.14354
517.66718
611.62245
549.82224
614.49158
549.05719
620.89656
552.58329
631.25097
559.23729
346.03824
346.13676
413.09206
413.60581
468.55844
469.98319
513.98996
517.57594
549.73767
559.18028
346.05727
346.01261
343.17636
343.18854
346.19665
346.11933
413.13415
413.15344
409.56409
409.73878
413.66483
413.64739
468.71526
468.77164
465.50666
466.03587
470.06469
470.08159
514.30509
514.37465
511.86004
513.27001
517.76309
517.82866
550.22076
550.27327
549.34469
552.7982
559.43934
559.51113
612.40498
615.18043
621.4922
631.83396
637.19603
639.42367
644.0778
650.9666
652.26346
653.96415
657.41355
662.40325
659.35267
660.77892
663.68324
667.83651
)
;
        Tnbr            T;
        thicknessLayers List<scalar> 0();
        kappaLayers     List<scalar> 0();
        kappaMethod     fluidThermo;
        kappa           none;
        alphaAni        none;
        alpha           none;
        field           T;
    }
}


// ************************************************************************* //
