/*--------------------------------*- C++ -*----------------------------------*\
| =========                 |                                                 |
| \\      /  F ield         | OpenFOAM: The Open Source CFD Toolbox           |
|  \\    /   O peration     | Version:  v2012                                 |
|   \\  /    A nd           | Website:  www.openfoam.com                      |
|    \\/     M anipulation  |                                                 |
\*---------------------------------------------------------------------------*/
FoamFile
{
    version     2.0;
    format      ascii;
    class       volVectorField;
    location    "180/bottomWater";
    object      U;
}
// * * * * * * * * * * * * * * * * * * * * * * * * * * * * * * * * * * * * * //

dimensions      [0 1 -1 0 0 0 0];


internalField   nonuniform List<vector> 
1460
(
(-0.0016687421 -0.016530709 0.0017970266)
(-0.0024820132 -0.012095035 0.0019613377)
(-0.0018073987 -0.012454837 0.00069036303)
(-0.00098970115 -0.010770566 0.0018480953)
(0.0012794654 -0.010568097 0.0012945683)
(0.0033117584 -0.013209876 -1.1463511e-05)
(0.0020926254 -0.014355916 -0.0010373953)
(0.0010710709 -0.014996691 -0.00038276671)
(-0.0001260585 -0.01754888 -0.00012121245)
(-0.0018649132 -0.013849511 0.00029243518)
(-0.0017509791 -0.011345932 0.0012033645)
(-0.00062351749 -0.013395135 0.00043947168)
(-0.0022315774 -0.016045315 -0.00091814237)
(-0.0032939556 -0.014902017 -0.0015496311)
(-0.0038172135 -0.012917702 -0.00051968889)
(-0.0012236034 -0.011422014 0.0014329674)
(-0.00043135767 -0.011330176 0.0012935507)
(0.0014508051 -0.012371786 0.0018813997)
(0.0030937317 -0.010690465 0.0019947092)
(0.0020740356 -0.0127764 0.0017913851)
(-0.0019797618 -0.017954714 0.0013885556)
(-0.0032132991 -0.016971902 0.00043317418)
(-0.0049798012 -0.015168051 0.00016711679)
(-0.005152887 -0.012811477 0.00020695402)
(-0.0032509629 -0.011521792 0.0013651447)
(-0.00096898964 -0.012316527 0.0012797808)
(0.0013068846 -0.012271555 0.00084957731)
(0.0027253704 -0.012317855 0.0013186283)
(0.0032608637 -0.013382219 0.0018063216)
(0.0019626329 -0.015216808 0.0016420783)
(-0.0034199369 0.016862462 0.0040223126)
(-0.0029768282 0.0067559258 0.0026515762)
(-0.0024795254 0.0069105116 0.0020309905)
(-0.00029670308 7.2635334e-06 0.00077518809)
(-0.00044047678 -0.0020980752 0.00062028801)
(0.0041125586 0.011607052 -0.0013300266)
(0.0027863848 0.015261066 -0.0023864767)
(2.0485107e-05 0.016476852 0.00075919955)
(0.0012980702 0.018725276 0.0032563356)
(-0.0032565636 0.014423809 0.0030413327)
(-0.0014994202 0.005191148 0.0026479397)
(-0.00088141073 0.013064872 0.0018784451)
(-0.0028416162 0.017211253 -0.0012144824)
(-0.0042781572 0.01567608 -0.0032691358)
(-0.0034315964 0.010493189 -0.0017413286)
(-0.00032967132 9.7612293e-05 0.0011832524)
(0.0007544311 0.003635367 0.0014789211)
(0.0026952496 -0.00037213782 0.0004197663)
(0.0029153007 0.0038426368 0.00054136096)
(0.0055301096 0.01381047 0.0014869918)
(-0.0019055954 0.019088431 0.0011017637)
(-0.0063175853 0.018298401 0.00028307859)
(-0.006637937 0.015791696 -0.00024893161)
(-0.0050199863 0.0081437951 0.00014054324)
(-0.0023429721 -0.00097426092 0.00020844534)
(-0.0010670131 -0.00048420622 0.00061610341)
(0.0015521656 0.0029551949 0.00025880555)
(0.0044534114 0.0039620341 0.001601317)
(0.005202329 0.0098489147 0.0021436568)
(0.0055405166 0.016066502 0.002252894)
(0.00085348185 -0.012067143 0.0017468672)
(-0.00068410724 -0.013345493 0.00049248031)
(-0.00071798049 -0.012204153 0.0019426312)
(-0.00058494032 -0.012423624 -0.0011414089)
(-0.0031578606 -0.013235195 -0.00070722488)
(-0.0037499244 -0.012851519 0.00070213788)
(0.0021434781 -0.0012186187 0.00084810838)
(0.0017493901 -0.011319222 0.0031987068)
(0.0010284116 -0.014800894 0.0019707446)
(0.0029326271 -0.010640886 0.0013783514)
(-0.0010900024 -0.014551943 1.0273794e-05)
(-0.0041895134 -0.012633134 0.0025824608)
(0.00044787143 -0.0080239614 0.0030489642)
(0.0020566012 -0.0099106844 0.0033394034)
(0.0032750927 -0.012867023 0.0025636181)
(0.0016332992 -0.013005615 0.00047554744)
(0.0021691824 -0.012457515 -0.00069347151)
(0.00086588756 -0.014598223 -0.002838716)
(-0.0053933077 -0.012446923 -0.0016726654)
(-0.0043830567 -0.0056697579 -0.00011663757)
(-0.0032608642 0.003297743 0.001167335)
(-0.0027952204 -0.0051310449 0.0019142136)
(-0.0014113829 -0.01472574 0.0014546928)
(-0.00051042741 -0.013128147 0.00091984106)
(6.0536262e-05 -0.013167646 -0.0018926957)
(-0.0005362565 -0.012905292 -0.0013403368)
(-0.00019825122 -0.012869801 -0.0011751093)
(0.0020925407 -0.012900289 0.0012246192)
(-0.0027648471 -0.014258719 -0.00032240856)
(0.0015867057 0.0001625379 0.0014842881)
(-0.00092234462 0.011053066 -0.0029821919)
(-0.0011303201 0.0057215388 -8.8490888e-05)
(-0.00046396901 0.00094143828 -0.0006154527)
(-0.00099381816 -0.00086076229 -0.00083561608)
(-0.00013949523 -0.0031584421 -0.0011841715)
(-0.0016804476 -0.0015285343 -0.0011358726)
(0.001729832 0.0032812221 0.00075566618)
(0.0055600433 0.010645766 0.0006031031)
(0.0019447404 0.012810134 -0.0022645312)
(-0.0002603656 0.010703782 -0.0015057219)
(-0.00089517838 0.010950857 -0.0036235139)
(-0.0010102245 0.0022777859 -0.0004509893)
(0.00070163258 0.00097005135 -0.00043305714)
(0.0023841606 0.0032451711 -0.0002607407)
(0.0010260114 0.0005411508 -0.0006923266)
(-0.00022035432 -0.0032612734 -0.00015773956)
(-0.00023525261 0.00030818353 -8.4725278e-06)
(-0.00075721626 0.011223677 0.0029051798)
(-0.0038745941 0.0086884928 0.0012149853)
(-0.0029941726 0.0073912571 -0.00056305161)
(-0.00082313259 0.0081521741 0.0011453179)
(0.0031301444 0.0087392493 -0.00021034193)
(-0.0023224304 0.010384363 -0.00024627062)
(-0.0020768155 0.002328732 -0.0016345924)
(-0.0013625612 -0.0029057778 -0.0011484565)
(-0.0013442507 -0.003711553 -0.0024011603)
(-0.00084742483 -0.0028412486 -0.0021352575)
(0.00025949001 0.0021640042 -0.00022797384)
(-0.0024417284 0.0094272692 0.0014852167)
(-0.0018634965 0.0067065759 0.0009633627)
(0.0020178934 -0.003821935 -0.00034729852)
(0.0038094156 -0.0093857367 -0.0014805321)
(0.0025176215 -0.0089176408 -0.0035081259)
(0.0013897514 -0.0080091343 -0.0046406813)
(-0.00021497171 -0.0090042797 -0.0042540512)
(-0.0037389943 -0.01000576 -0.0034486191)
(-0.0056443069 -0.0088507048 -0.0021249304)
(-0.0047263442 -0.0069155532 -0.0010572762)
(-0.00068980077 -0.0018035537 -0.00027136503)
(0.0026526091 -0.0055022356 -0.0010956396)
(0.0049081203 -0.0084648447 -0.0014729188)
(0.0055992767 -0.0099994714 -0.0029227705)
(0.0033061324 -0.010006984 -0.0038708112)
(0.0022139546 -0.0095216051 -0.0041244723)
(0.0025700694 -0.0095414365 -0.0040450002)
(-0.00093814211 -0.0087643773 -0.0023673824)
(-0.0053937901 -0.0088568916 -0.0024065612)
(-0.0045795426 -0.0089127836 -0.0018450168)
(-0.0030261215 -0.0098709602 -0.0026667474)
(-0.0029741386 -0.0077257014 -0.0024542016)
(-0.0021806274 -0.0032394731 -0.0014577848)
(0.0016628457 -0.00090154031 5.1533753e-05)
(0.0030457846 -0.0038573886 -0.00033808519)
(0.0049765508 -0.0078830693 -0.0016590948)
(0.0013342643 -0.0090318464 -0.0031087115)
(-0.0012701989 -0.00889675 -0.005546775)
(-0.0027851609 -0.0097266837 -0.0048364371)
(-0.0050891376 -0.0096114018 -0.0037806001)
(-0.0039203041 -0.0083508858 -0.0027013399)
(-0.0014803682 -0.0034571182 -0.0021482197)
(-0.00099115734 -0.015341489 0.0020589416)
(-0.0031861623 -0.01332657 0.002138812)
(-0.0011169115 -0.011149406 0.0011557571)
(0.0012138093 -0.016201469 0.002997534)
(-0.0015105601 -0.016134964 0.002640231)
(-0.00099502716 -0.01223749 0.00043228356)
(0.0014455182 -0.01031657 -0.00012163642)
(0.0017577004 -0.013259429 -0.00063029739)
(-0.00017915316 -0.016219423 -0.00035602017)
(-0.00079689318 -0.015571162 6.6293164e-05)
(-0.0020047023 -0.014609486 0.00069262342)
(-0.0029700701 -0.014983566 -5.415923e-05)
(-0.0042869183 -0.013369497 -6.073977e-05)
(-0.0028904757 -0.011675748 0.00054029132)
(-0.00078393123 -0.012767588 -3.2623274e-05)
(0.0018783243 -0.011750703 0.0021885442)
(0.0022645762 -0.0139621 0.0018129544)
(0.0020337669 -0.015113648 0.0028597199)
(0.0011002685 -0.013580398 0.0025908796)
(-0.0011758484 -0.014914637 0.0018207516)
(-0.0017642282 -0.016106723 0.001258801)
(-0.002203239 -0.014835431 -0.00062408239)
(-0.0036727776 -0.014723783 -0.00024252031)
(-0.0018753382 -0.012507204 0.00082053309)
(-0.0012795016 -0.01461219 0.0024392132)
(-0.0014482182 -0.012014916 0.0027804343)
(0.00049664099 -0.011406138 0.0017286327)
(0.0024166702 -0.01153082 0.00174308)
(0.0029597145 -0.013680855 0.0019977218)
(0.0011036973 -0.015612084 0.0018150318)
(-0.0034690207 0.016745922 0.0043704795)
(-0.0047010621 0.012537632 0.0034337852)
(-0.0013618148 -0.0018402396 0.00010913548)
(0.0023994839 0.015921539 0.0062752232)
(-0.002380358 0.01614932 0.0046957707)
(-0.00086216185 0.0076394193 0.0010733739)
(-0.00011332223 0.0025052877 0.00011631401)
(0.0041295777 0.014699555 0.0017053573)
(0.0032489443 0.017734529 0.0028551528)
(-0.0014780588 0.016967185 0.00236911)
(-0.00417098 0.016247061 0.0030690732)
(-0.0046869241 0.016182678 0.0031704751)
(-0.0043024378 0.011206421 0.0029588325)
(-0.0017920704 0.00037654218 0.0025577716)
(-0.0010072687 0.002366826 0.001839579)
(0.0027199612 0.0043131905 0.0021953729)
(0.0045139132 0.011469599 0.0035589111)
(0.0052586552 0.01455728 0.0055639779)
(0.0051536172 0.015106089 0.0050710733)
(0.0039004935 0.016655744 0.003349946)
(-0.001787711 0.017482825 -0.0013226353)
(-0.0040858765 0.016903514 -0.00048542024)
(-0.0048306902 0.015793157 0.0014129039)
(0.00071268487 0.006419566 0.00081151639)
(-0.00047338131 0.014924281 0.0050151377)
(-0.00037965042 0.006738225 0.0028829603)
(0.0012313123 0.00263058 0.0011335519)
(0.003103282 0.0027383992 0.00026009603)
(0.0061535044 0.014125461 0.0027557331)
(0.0043849938 0.017175447 0.0026846299)
(-0.0011094101 0.0013318521 0.0018260951)
(0.0051968327 -0.012187565 -0.0022949396)
(-0.00015929593 -0.01476631 -0.0016944031)
(-0.004658801 -0.013280911 -0.0014251705)
(-0.0014796837 -0.0068786685 0.00068038471)
(0.00042928214 -0.01263917 0.00055326124)
(-0.0029266472 -0.013401254 0.00030857927)
(-0.004157097 -0.012472519 0.0010334014)
(0.00027256387 0.0015635648 0.0015724449)
(0.00052337795 0.0047802309 0.0015976685)
(-0.00065222767 0.0027921202 0.00030899187)
(0.00072016449 -0.013039689 0.0011473896)
(0.0032776714 -0.014456795 0.0023144075)
(0.0029671896 -0.013966955 0.0030435431)
(-0.0020231945 -0.013478388 0.0037480596)
(-0.0020303257 -0.012521597 -0.00053366345)
(0.00023999583 -0.013310311 -0.0019948357)
(0.00070506791 -0.014901364 -0.0044504074)
(-0.0013190111 -0.0084142669 -0.0018435762)
(0.00089444461 0.0043228136 0.0013177613)
(-0.001045017 0.0051470935 -0.00043198354)
(-0.0017680618 0.00088187204 0.0008070844)
(0.0028565749 -0.014948621 -0.00070793572)
(0.0011517721 -0.012996191 -0.0024458663)
(0.0022268203 -0.013327993 -0.0031869907)
(0.0030932792 -0.013172238 -0.0023839583)
(0.0015248413 -0.01352249 -0.0025427813)
(-0.0010272633 -0.014771152 -0.0028727898)
(-0.0034843781 -0.0092872064 -0.0025418263)
(0.0015108966 0.0049651366 0.00014413925)
(0.0018580169 0.0060493762 -0.0012722978)
(0.0045313041 0.0085898275 -0.0026408396)
(0.004070482 0.010713743 -0.00029352517)
(-0.0022727868 0.012157162 -0.0011788973)
(-0.0020184641 0.0068151907 -0.00025592775)
(-0.0020480662 0.0043058026 -0.00014091822)
(-0.0020323206 0.00737127 -0.00038782163)
(-0.0036052704 0.01115837 -0.0032466335)
(-0.0025298822 0.0079417818 -0.0014294844)
(0.00024942242 0.0093801046 0.0014645394)
(0.0020862953 0.007306158 0.0003514941)
(0.00378585 0.010783677 -0.00070733606)
(0.0017469877 0.0089014557 4.0109937e-05)
(0.0026349279 0.0099434713 0.0027904014)
(-0.00019031436 0.0096275796 0.0043433616)
(0.0005333249 -0.0028203433 -0.00010918965)
(0.00020449559 0.0043189583 -0.00019872562)
(-0.0012741568 0.011039584 -0.0020448614)
(-0.0046652741 0.0091023777 -0.00045066983)
(-0.0019858521 0.0086556744 0.0014260619)
(-0.00068706527 0.0091267302 0.0015586435)
(0.00334781 0.0071964946 0.0015010168)
(0.0031547832 0.010806034 -0.0013325367)
(0.00020249383 0.0044872684 -0.0030554664)
(0.0012461602 0.0035616574 -0.0018590116)
(-0.00057204648 0.0054530711 0.00081765958)
(-0.0012280335 0.0039123655 -0.00047128231)
(-0.0013894413 0.009344404 0.001525655)
(-0.0049610118 0.0089914185 -0.0021079291)
(-0.0016324041 0.0082995738 -0.00040055221)
(-6.7889761e-05 -0.0076624729 -0.0021268979)
(-0.00061927338 -0.010198923 -0.004387591)
(-0.00035908777 -0.0054032196 -0.0038409114)
(0.00060091264 -0.0043144016 -0.0036767502)
(0.0014861404 -0.0084950634 -0.0046657226)
(-0.0021302238 -0.0097067898 -0.0054448934)
(-0.0048272399 -0.0096381812 -0.0039247622)
(-0.0043934762 -0.0059635879 -0.0024825175)
(-0.0027050087 -0.0022459224 -0.0010655691)
(0.00067819809 0.0017109086 -0.0015224075)
(0.0031113278 -0.0032488125 -0.0027621385)
(0.0038254219 -0.0088252915 -0.0039529038)
(0.0026673924 -0.01025245 -0.0045928591)
(0.0021297396 -0.0080509291 -0.003948418)
(0.0034519949 -0.0087607529 -0.0034438533)
(0.00074091667 -0.0092761191 -0.0030692909)
(-0.0057041906 -0.0075183341 -0.0017563473)
(-0.0041066657 -0.0024626553 -0.0011483095)
(-0.0037500713 -0.0018471649 -0.00069390585)
(-0.0022072627 0.00203347 0.0004829731)
(0.00051882868 0.002553967 -0.00028611418)
(0.0029163649 -0.0019334608 0.00054803076)
(0.0038285782 -0.0055066822 0.000384223)
(0.0035359844 -0.0094565863 -0.0022528917)
(-4.6075296e-05 -0.0087048264 -0.0045599967)
(-0.00085517684 -0.006775655 -0.0066229641)
(-0.0023300055 -0.0094141945 -0.006392459)
(-0.0047053567 -0.0089409479 -0.0041282665)
(-0.0038785173 -0.0036940586 -0.0030117749)
(-0.0019124912 0.0013159576 -0.0021491608)
(0.00032686879 -0.014473014 0.0022527965)
(-0.0014160449 -0.013930094 0.0026795885)
(-0.0011026207 -0.015284512 0.0037291423)
(-0.0001670777 -0.015699837 0.0018244695)
(-0.00055079952 -0.016004114 0.0017922871)
(0.00073754894 -0.016896848 -0.0008607523)
(0.0011420759 -0.016725506 6.7224758e-05)
(0.00037783682 -0.014170243 -0.0020173217)
(-0.00051613215 -0.015832552 -0.002343435)
(-0.00077806319 -0.017052275 -0.0015953515)
(-0.0016826475 -0.016186761 -0.0019080871)
(-0.0026581823 -0.014790133 -0.00038393569)
(-0.0035537493 -0.014237231 0.00066666792)
(-0.0033048298 -0.012422952 0.0019988453)
(-0.0013209683 -0.011426387 0.0011526695)
(0.0021632807 -0.011566628 0.0025810203)
(0.0014869787 -0.015080688 0.0025988491)
(0.0012440976 -0.015501473 0.0026343137)
(0.001073075 -0.015212822 0.0026373305)
(0.0003012222 -0.014564456 0.0001292058)
(-0.00032933062 -0.013698537 -0.0021254548)
(0.00015293391 -0.013813986 -0.0033163018)
(-2.9828957e-05 -0.013527333 -0.003197315)
(-0.00096316687 -0.015457068 -0.00071669252)
(-0.00069887815 -0.016442038 -0.00033608811)
(-0.00071375867 -0.015947751 0.0016849193)
(0.00026574587 -0.016877206 0.002584233)
(0.0010163562 -0.017220373 0.0031695235)
(0.00082038968 -0.015342815 0.0016580228)
(-0.0003552627 -0.016102079 0.001513015)
(-0.0018043414 0.015993227 0.0035543771)
(-0.003508892 0.015671087 0.0039205875)
(-0.0014888825 0.015522491 0.0036899588)
(0.0017762336 0.017225789 0.0025710599)
(-0.0021020179 0.017605735 5.0886273e-06)
(-0.0006119279 0.017223683 0.0005105257)
(0.0033088912 0.017916604 0.00090736528)
(0.0037715543 0.016375542 6.5359605e-05)
(-0.0012696457 0.01727371 -0.0013941647)
(-0.0037500077 0.018144442 -0.0026797586)
(-0.00026615448 0.017232711 -0.0032834468)
(-0.0026207105 0.016367656 0.0020435339)
(-0.0054629456 0.0148591 0.0025548494)
(-0.0045710285 0.0083642976 0.001802256)
(-0.0019624925 -0.0014544021 -0.00067462891)
(0.0025935709 0.0078426945 0.0013184912)
(0.0050924347 0.015611708 0.0024621494)
(0.0049106526 0.017226649 0.0032977106)
(0.003355142 0.01709387 0.0026459719)
(0.00028109522 0.016333629 -0.0020141007)
(-0.00012059622 0.014406518 -0.0054588111)
(0.0023308536 0.01318611 -0.0048116987)
(0.0037501937 0.015113375 -0.0035082225)
(0.0023589732 0.016849833 -1.2826614e-05)
(-0.0008724085 0.017795586 0.0048064858)
(-0.0011294337 0.016652246 0.0060658065)
(0.00026405828 0.015786207 0.0055719796)
(0.0039440651 0.017685007 0.0047545441)
(0.0043499818 0.017568267 0.00222968)
(0.0018190474 0.017338599 0.00052353634)
(-0.0002299815 0.00269322 0.001667937)
(0.00090931058 -0.002098911 0.0013666361)
(1.4182146e-05 -0.015740248 -0.0030072685)
(0.00064697094 0.0028065097 0.0017405744)
(-0.0015070844 0.0033583604 0.00038647568)
(0.00072210523 -0.017451699 0.00078194042)
(-0.0020831044 -0.015005014 -0.0021327258)
(0.00074401446 0.0038917655 0.00046706532)
(-0.0016454502 0.005236303 -0.00049010857)
(0.0011670827 -0.013432154 0.0021229647)
(0.00032971801 -0.014434987 0.0037272036)
(-0.00016740317 0.0032303295 0.00093429643)
(-0.00015666277 -0.00085589205 -0.00060531774)
(0.004106596 -0.011527108 -0.005001156)
(-0.001985216 -0.014842607 -0.0035500678)
(-0.0044097705 -0.012958651 -0.0016170844)
(-0.0011190985 -0.0098054189 -0.00093432867)
(0.0029809473 0.00084313834 0.00051290605)
(0.0017144619 0.0034981042 0.0011324616)
(0.00089829396 -0.00064061961 0.00023511001)
(0.0017652938 -0.013605005 0.0049439438)
(-0.0017011268 -0.014784008 0.0019093457)
(0.00090716712 -0.0030555636 -0.00058179032)
(0.0010610185 0.0011787472 0.0001167288)
(0.00050343118 0.001777937 0.0033550539)
(0.0021831965 -0.0091081967 -0.0018686782)
(0.0015168905 -0.016425332 -0.0033823225)
(-0.00028009576 -0.017181066 -0.0043568093)
(0.00038254625 0.0032937415 0.00038890319)
(-0.0012127071 0.0047289617 6.4600448e-05)
(0.00028630244 0.0083720407 0.00084570849)
(0.0039730751 0.0076020231 -0.00088487306)
(-0.00080190383 0.011126111 -0.0002267657)
(-0.0024409477 0.0078779402 0.0014374944)
(0.0026160736 0.0078922788 0.0013936071)
(0.0026201885 0.012122863 0.00061764965)
(-0.0053355625 0.012747648 -0.00037828802)
(-0.0020797165 0.0085916786 -0.00125877)
(0.00047065607 0.009504622 -0.00083307724)
(0.0034288564 0.012986019 0.0019733265)
(-0.005052946 0.0128296 0.00026771919)
(-0.0022005034 0.0087816204 -0.00037835933)
(0.002021134 0.0072160783 -0.002224706)
(0.0037066841 0.010116897 -0.002454479)
(0.001005737 0.011070839 -0.00038108777)
(-0.00054044926 0.0031689359 -0.000309423)
(-0.0026931925 0.0014216768 -0.00058096662)
(0.00020763744 0.0068920976 -0.0014111717)
(0.0021482546 0.008103381 -0.00066003647)
(0.0041408318 0.0079684506 0.00047143063)
(0.0042049363 0.011484387 0.0019568894)
(-0.0037389714 0.0096981546 -0.00057955631)
(-0.0019183546 0.0039666183 -0.0011283066)
(0.00025498451 0.0059536938 -0.00017863448)
(0.0031550756 0.0076391247 -0.00010939823)
(0.0039369605 0.010141117 -0.0031024303)
(-0.00086042037 0.013332863 -0.0026925339)
(-0.004771654 0.011386744 -0.00040348141)
(-0.0034646948 0.0076417076 -0.0001221882)
(-0.0018274948 0.0096268549 -0.00022467748)
(0.00086552761 0.00045422825 -0.0014018941)
(0.0018544211 -0.0022494598 -0.0025351546)
(-0.00027599569 -0.0040692498 -0.00023315594)
(0.00024923253 -0.0011341555 -0.00017093651)
(-0.0009280813 -0.0013006289 -0.0023287152)
(0.00018155847 -0.001765309 -0.0013291976)
(-0.0015617551 -0.0076408128 -0.00052085386)
(-0.0029959275 -0.0038882569 -0.00029222675)
(-0.0029022874 0.00072203953 -0.00037613869)
(0.0016366083 -0.00020191227 0.0014605128)
(0.0012499563 -0.0017474996 -0.0002779412)
(0.0032868149 -0.0033158616 -0.0015450794)
(0.0018062207 -0.0040640826 -0.0027724627)
(0.0024569293 -0.0043152806 -0.003102771)
(0.0032223171 -0.0041752306 -0.0020260591)
(0.0037366315 -0.0072813018 -0.0042421574)
(-0.0012719669 -0.0092732641 -0.0007933221)
(-0.0039575509 -0.0051971608 0.0026218397)
(-0.00063566615 -0.00065051271 0.0021476837)
(-0.00044650752 -0.0010040453 0.0026396122)
(0.0019282109 0.00089717411 0.0026944202)
(0.00257427 -0.003262444 0.0022113389)
(0.0033347544 -0.0085069665 0.0021855226)
(-0.0023196561 -0.0078092459 -0.0029737858)
(-0.0018397227 -0.0010641674 -0.0035136652)
(-0.00034552349 0.00091721396 -0.0044127634)
(0.00028450555 -0.0047855187 -0.0046800225)
(-0.001896422 -0.00801896 -0.0019581792)
(-0.0031843948 -0.0010089228 -0.0014155509)
(-0.0019812182 0.0031423503 -0.0004341933)
(0.00021982809 -0.013795584 -0.0011978091)
(-0.00117245 -0.013649531 -0.00069153434)
(-0.001148978 -0.014715499 -0.0023918915)
(-0.00051875866 -0.015162092 -0.0032314865)
(-0.00076880893 -0.015104061 -0.0040063776)
(0.0011211743 -0.012979803 -0.00406187)
(0.0028425787 -0.014216554 -0.0043008923)
(0.0019635468 -0.013324372 -0.0041570733)
(0.00029694659 -0.015343945 -0.0034958832)
(-0.0022441903 -0.01543149 -0.0023921432)
(0.00031196225 -0.0095937044 0.00022226992)
(0.0023592171 -0.012663986 -0.0026813307)
(0.0011390715 -0.015687883 -0.0025258327)
(0.00051250028 -0.015823612 0.00023199785)
(-0.00032409353 -0.016087176 0.002286114)
(0.00010572992 -0.017164589 0.0011611435)
(-0.0011319175 -0.016886011 -0.00059915685)
(-0.0016521288 -0.014929666 -0.0024838106)
(-0.0026371571 -0.011766979 -0.0023146371)
(-0.0029005316 -0.010134076 -0.0019792946)
(-0.0011594647 -0.010662596 -0.0015581157)
(0.0014366774 -0.010709527 -0.0022167302)
(0.0023852129 -0.012166243 -0.0032914576)
(0.0022009836 -0.013413835 -0.0035126584)
(0.0010517176 -0.015084682 -0.0030260225)
(-4.0812215e-05 -0.017830359 -0.0023114098)
(-0.00011045587 -0.0157978 -0.0013575625)
(-0.0010452928 -0.016686608 -0.0021075151)
(0.00023589271 -0.015389687 -0.0028060315)
(6.1277336e-05 -0.015548789 -0.002462384)
(-0.00099305688 0.015566726 -0.0014904885)
(-0.0033479433 0.01588941 -0.0027518368)
(-0.0032043622 0.016033116 -0.0043009414)
(-0.001431819 0.01579684 -0.0061742985)
(-0.0013037052 0.015462068 -0.0063271986)
(0.001679388 0.0067106124 -0.0021496299)
(0.0055486821 0.014133985 -0.0040680803)
(0.0057084513 0.015506567 -0.004272139)
(0.0019831872 0.017221859 -0.002867054)
(-0.0043669148 0.015507382 0.0015029341)
(0.00027724615 -0.0020977385 0.0024013124)
(0.002922357 0.013080468 -0.0028135169)
(0.0019504867 0.017176847 -0.0025412846)
(-0.0039671632 0.01711742 0.0026929864)
(-0.0029323459 0.017330464 0.0031430705)
(0.00014273175 0.018574296 0.00061150955)
(0.00051564544 0.018452706 -0.0021173572)
(-0.0015626573 0.016612653 -0.0032079705)
(-0.002784342 0.013723414 -0.0032440256)
(-0.0009850775 0.0072835594 -0.00057655763)
(0.00011703731 0.00067082324 0.00052916559)
(0.0020952712 0.00060279459 -0.00091394764)
(0.0044075624 0.0083379922 -0.0025758134)
(0.0057007961 0.013839719 -0.0043179415)
(0.005101175 0.016656975 -0.003536711)
(0.001250853 0.018819966 -0.0011138091)
(-0.0030693561 0.017896357 -0.001953618)
(-0.0025024978 0.01781651 -0.0033552571)
(0.0020780565 0.015316978 -0.0053792145)
(0.0024353926 0.017113977 -0.0059420957)
(0.0007045541 0.0015258406 0.00079440473)
(0.00025130147 0.00088131337 5.4740372e-06)
(0.0010834695 -0.0098677281 0.00064533247)
(0.0010232265 -0.011093898 0.0030249717)
(0.0026312553 -0.014650077 0.0040147727)
(0.00034137919 -0.015456745 0.0028842817)
(-0.0022525711 -0.013872347 0.0033892497)
(0.0030192263 -0.00022527101 0.00047988095)
(0.00029845771 0.0050653001 -0.00025405728)
(0.0048635564 -0.011768887 0.0016150429)
(0.00040327291 -0.014105443 0.003218296)
(-0.0047283168 -0.0062542854 0.0015672195)
(0.0005519536 0.0035820524 -0.0020702178)
(-0.0020491139 0.00097282854 -0.0002620012)
(-0.001331938 -0.0162753 -0.0032440106)
(-0.0035453615 -0.015781761 -0.0019894692)
(-0.0022304087 -0.0092406607 -0.0016463599)
(-0.0012652533 -0.0045961906 -0.0016954382)
(0.0027692735 -0.0089919971 0.003030803)
(0.0038134284 -0.011424447 0.0037774197)
(0.0020205491 -0.012996551 0.0037160789)
(-0.00033515924 -0.013065956 0.0017422311)
(-0.001866917 -0.013258551 0.0028830623)
(-0.0016328737 -0.0081327609 0.0026065987)
(0.0014177288 0.0031482804 -0.0011989202)
(0.0018312728 0.0072784078 -0.00024014618)
(-0.00055717554 0.0056085858 -0.00057418539)
(0.0017998324 -0.015663386 0.0018792278)
(-0.0016066905 -0.015814199 0.0025019061)
(0.0014389955 0.0031778027 -0.0027442539)
(0.0013044393 0.0080829313 0.00078222997)
(0.0031624756 0.0074933389 0.00099749621)
(0.0056767749 0.0078703588 0.00021604463)
(0.005332045 0.01101895 0.0010282123)
(0.0038612582 0.012903836 0.00082954785)
(-0.0022949224 0.0093641951 -0.0024644045)
(-0.0027936027 0.0043844245 0.00044794587)
(-0.0017349444 0.0063943581 0.0017768062)
(0.0017118277 0.0088500841 0.00031110766)
(0.0041420774 0.01206976 -0.0013476588)
(-0.0023260209 0.0096973532 -0.0021578012)
(-0.00346334 0.0086749103 0.000185562)
(-0.00019078828 0.0084821446 -0.0020058673)
(0.00090870457 0.0076474074 -0.0012637106)
(0.0036829237 0.011762003 -0.00052921304)
(-0.00040663834 0.013520088 0.0016512091)
(-0.0040506267 0.010318489 0.0019118951)
(-0.00074114746 0.0040525448 0.0010858188)
(0.0011683475 -0.00053872811 0.002072144)
(0.00064822302 0.0024902266 0.0026877832)
(0.00057510456 0.0053295493 0.00059797918)
(-0.00054000725 0.00015548525 0.00042982934)
(-0.00070937036 0.0070597243 0.0016669477)
(-0.0030416266 0.0083373205 0.0025450169)
(-0.0017170932 0.0078994655 0.00037667652)
(0.001339297 0.010427298 -0.00077559058)
(0.0020699703 0.0080582578 0.00095576253)
(0.0059095502 0.010524859 -0.00059574296)
(-0.0018642737 0.01116729 0.0011827904)
(-0.0021843102 0.0074279331 0.00027154646)
(0.0015525372 0.00028867999 0.0021358505)
(0.0032772221 -0.0045268491 0.0027890301)
(0.0014221509 -0.010402881 0.0046337777)
(0.00039629594 -0.0061711172 0.0041857845)
(0.0023759 -0.0005832678 0.0028466704)
(0.0034255305 -0.0056121693 0.0042320874)
(0.00029150328 -0.010746516 0.0047195382)
(-0.0039821132 -0.0061993295 0.0034290248)
(-0.0019522056 0.00044602652 0.0028466575)
(0.0015978273 -0.0024118029 0.00401084)
(0.0013802718 -0.0070095791 0.0048844755)
(-0.0010643681 -0.0035237751 0.0018917526)
(8.3473307e-05 0.0015590908 -0.0006761268)
(0.0020584624 -0.0035641399 -0.00079829024)
(-0.00033228666 -0.013262317 0.00040444875)
(-5.6286447e-05 -0.0019142587 -0.0014194305)
(0.0028812732 -0.0054929054 -0.00097642216)
(0.0024672006 -0.0098344689 -7.244597e-05)
(0.00096038505 -0.0097392161 0.00072988897)
(-0.0020702345 -0.0075090446 0.004523203)
(0.0014368902 -0.0067350405 0.0065236691)
(-0.00068865777 -0.0090055886 0.0040083242)
(-0.0037259493 -0.0089237526 0.0021344208)
(-0.0039090618 -0.0023312942 0.0014245122)
(-0.0029719706 0.0019872638 0.00026183023)
(0.00022848808 0.0048836682 0.00084051161)
(0.0030945397 -0.00072093974 0.0029998119)
(-0.00041563455 -0.01071635 0.0048702543)
(-0.0019145257 -0.0027936007 0.0036557805)
(-0.00043362831 -0.0012218165 0.0035014252)
(-0.00083576066 -0.013358844 -0.0021605229)
(-0.003279954 -0.011671184 -0.0019022173)
(-0.0027427189 -0.010056463 -0.0019890645)
(-0.0014348744 -0.01081183 -0.0019267548)
(-0.00012440351 -0.011395948 -0.0023824982)
(0.0017033208 -0.011615312 -0.0022782998)
(0.0035625643 -0.010927106 -0.0025705106)
(0.0038504525 -0.011982697 -0.0033256999)
(0.0026394669 -0.014574254 -0.0030000019)
(-0.0010700735 -0.01768941 -0.0025296069)
(-0.0001658952 -0.011068926 -0.00023554382)
(0.0015404099 -0.011449153 -0.0028344727)
(0.0017073558 -0.015346256 -0.0022542514)
(-0.0021540198 -0.014849695 -0.00086540586)
(-0.0028437553 -0.011651657 -3.9952413e-06)
(-0.002407894 -0.01179052 -1.6967569e-05)
(-0.00060741151 -0.012332248 -0.00059799194)
(0.00094933559 -0.012265542 -0.00059028643)
(0.0027351221 -0.011946001 -0.0016325991)
(0.0035699285 -0.011070611 -0.0022054605)
(0.0032156535 -0.014414295 -0.0022451177)
(6.2977391e-05 -0.016774478 -0.0018188427)
(-0.0024528883 -0.014813103 -0.0025779858)
(-0.0016448115 -0.010315683 -0.0021566469)
(0.00087675979 -0.010640668 -0.0025495469)
(0.00079921841 -0.015995503 -0.0039356214)
(-0.002728975 0.015441629 -0.0011479639)
(-0.0041911858 0.012947508 -0.00093615201)
(-0.00078067902 0.0022172113 -5.0451796e-05)
(-0.00054013759 0.0021351111 -0.00069726863)
(0.00051987339 0.00050993463 -0.00077881671)
(0.0021742852 0.00075554653 -0.00087128345)
(0.0043135184 0.00032053861 -0.0011559535)
(0.0056613848 0.0090625747 -0.0022057323)
(0.00543554 0.015693711 -0.0028317358)
(-0.0049129651 0.017774961 5.3112039e-05)
(-0.00019391395 0.0044052366 0.00037747846)
(0.00045567734 0.0049184754 -0.0020523894)
(0.0036764159 0.016229372 -0.0024141007)
(-0.0041902795 0.015702332 0.0028136308)
(-0.0032379078 0.006254278 0.0035374267)
(-0.0036473275 0.0030701422 0.0018211171)
(-0.00057708167 0.0031183315 0.0005267298)
(0.0011979564 0.0016981868 -0.00019009624)
(0.0041366499 0.0023432705 -0.0009068523)
(0.0042026403 0.0021108988 -0.0018696643)
(0.0067897255 0.013898562 -0.0020786669)
(-0.0006591575 0.017759993 -0.0037415289)
(-0.00489173 0.014170089 -0.00413473)
(-0.00097949979 -0.00083266274 -0.00010224654)
(0.00018760037 0.00061507999 -0.0005513499)
(0.0026441112 0.0150476 -0.0062628427)
(-3.9252581e-05 -0.0012286921 0.0009380195)
(0.0037672562 -0.012776861 0.0034135653)
(0.0029434529 -0.012719809 0.002708507)
(0.001571325 -0.012430481 0.0019709794)
(0.0016755901 -0.012666911 0.0017503121)
(0.0010667837 -0.012494516 0.00098683026)
(0.0012922785 -0.013206244 0.0012370525)
(-0.0024194277 -0.012586654 0.0022646264)
(-0.00034319964 0.00089226196 -0.0013727451)
(-0.0015242244 -0.0053972131 0.0013381997)
(0.0031269276 -0.012271493 0.0013423414)
(-0.0019244052 -0.013586033 -0.00045404501)
(-0.0010617466 -0.0078236566 -0.0022942772)
(-0.0001523708 -0.0063464431 0.0030587314)
(0.0024306041 -0.013410233 0.0047637598)
(-0.0012282019 -0.013005454 0.0026499481)
(0.00054189567 -0.011940615 0.00060905771)
(0.00065549764 -0.012645385 0.00041408617)
(0.0022985852 -0.012366359 -0.00013398002)
(0.00015910585 -0.013881354 -0.002118831)
(-0.00051404322 -0.010331983 0.0013898609)
(-3.4820528e-05 0.0042799849 -0.0011494784)
(0.002696697 -0.012909799 0.0011859595)
(0.00072199026 -0.013248371 0.0023578548)
(-0.0015080895 -0.012977674 0.0025425111)
(-0.00099293231 -0.012737379 0.0036784598)
(0.0023320054 0.0069924539 0.00090680344)
(0.0035063295 0.0096665132 0.0021045952)
(0.002894396 0.001495576 0.00053815942)
(0.0019817514 -0.00028939695 0.00058330958)
(0.0021291208 0.00028075587 -2.2277261e-05)
(0.00039443174 -0.0023625639 0.00075045815)
(0.00019451286 0.00086393211 0.00056037131)
(-0.0016939091 0.0092751641 0.0015624839)
(-0.0020363964 0.0070386474 0.00037312051)