/*--------------------------------*- C++ -*----------------------------------*\
| =========                 |                                                 |
| \\      /  F ield         | OpenFOAM: The Open Source CFD Toolbox           |
|  \\    /   O peration     | Version:  v2012                                 |
|   \\  /    A nd           | Website:  www.openfoam.com                      |
|    \\/     M anipulation  |                                                 |
\*---------------------------------------------------------------------------*/
FoamFile
{
    version     2.0;
    format      ascii;
    class       volScalarField;
    location    "160/bottomWater";
    object      p;
}
// * * * * * * * * * * * * * * * * * * * * * * * * * * * * * * * * * * * * * //

dimensions      [1 -1 -2 0 0 0 0];


internalField   nonuniform List<scalar> 
1460
(
353.39295
353.39434
353.39591
353.39939
353.40583
353.39781
353.40132
353.39856
353.39675
353.39776
353.39825
353.39401
353.39729
353.4097
353.41321
353.42389
353.42239
353.42623
353.42788
353.41847
353.42453
353.42197
353.4143
353.43351
353.408
353.43071
353.42341
353.4305
353.42043
353.42445
274.49783
274.50367
274.51333
274.52085
274.52871
274.51919
274.52023
274.49584
274.47555
274.47973
274.46496
274.46763
274.469
274.51063
274.5236
274.53176
274.5185
274.52168
274.49379
274.44374
274.44091
274.44145
274.45174
274.51256
274.48402
274.52086
274.52043
274.49798
274.4514
274.44519
196.26638
196.25814
196.26867
196.24961
196.24958
196.25414
196.24571
196.23123
196.25308
196.2677
196.26866
196.28454
196.26004
196.25118
196.26701
196.25259
196.2523
196.22332
196.22524
196.23805
196.26956
196.26709
196.23895
196.23527
196.27432
196.24569
196.25687
196.2293
196.23431
196.26438
117.64433
117.65772
117.67163
117.69759
117.70302
117.67548
117.66399
117.64587
117.65086
117.63939
117.67839
117.67395
117.67891
117.67867
117.68749
117.70223
117.67266
117.64312
117.66111
117.6332
117.68834
117.68801
117.65378
117.67506
117.66806
117.70169
117.69463
117.67099
117.66636
117.68441
39.254076
39.233146
39.221197
39.230534
39.226979
39.214907
39.220135
39.240996
39.251896
39.251765
39.228406
39.22389
39.227118
39.2246
39.223571
39.229764
39.208484
39.235914
39.250448
39.252709
39.261849
39.251808
39.249019
39.24902
39.234858
39.22799
39.234026
39.233704
39.246449
39.246282
353.39561
353.39242
353.40477
353.39059
353.3923
353.40255
353.402
353.39848
353.40192
353.4025
353.40032
353.40276
353.40492
353.40848
353.42037
353.42089
353.41916
353.41748
353.42207
353.42353
353.42753
353.42472
353.41765
353.42724
353.42779
353.43113
353.43036
353.42357
353.42339
353.42789
274.47059
274.47988
274.5062
274.47933
274.47919
274.51045
274.49433
274.45088
274.45575
274.47264
274.48284
274.46115
274.45357
274.48085
274.51345
274.4992
274.46719
274.45104
274.43814
274.42702
274.42995
274.4334
274.43776
274.47195
274.50259
274.49847
274.4879
274.44968
274.42939
274.43993
196.2606
196.24426
196.23216
196.26023
196.26293
196.2183
196.23416
196.23885
196.26963
196.27667
196.27021
196.2753
196.24748
196.22875
196.22238
196.24065
196.25422
196.24151
196.25426
196.26849
196.28948
196.27917
196.23979
196.23199
196.23976
196.24015
196.23398
196.23316
196.2529
196.29283
117.6673
117.64077
117.64236
117.65984
117.66304
117.64459
117.64533
117.65603
117.67252
117.63423
117.63227
117.66084
117.65057
117.64322
117.65282
117.6575
117.65328
117.6362
117.64651
117.66791
117.69268
117.68575
117.6461
117.66658
117.66817
117.68339
117.66949
117.6463
117.66555
117.68284
39.236541
39.243725
39.238121
39.230194
39.217239
39.234035
39.239472
39.237214
39.246686
39.27037
39.257891
39.230519
39.234841
39.235575
39.226006
39.215872
39.226411
39.241472
39.24121
39.255087
39.271325
39.262698
39.256155
39.252371
39.239219
39.225068
39.233391
39.244237
39.249879
39.25645
353.39459
353.39271
353.39192
353.39667
353.39255
353.40202
353.40067
353.39932
353.403
353.38864
353.41285
353.40404
353.41822
353.40971
353.41144
353.41523
353.41448
353.41981
353.41796
353.41947
353.41921
353.42374
353.42177
353.418
353.42473
353.41651
353.42185
353.42242
353.42811
353.42641
274.46644
274.45539
274.48196
274.46777
274.47077
274.47956
274.47258
274.44873
274.45636
274.47133
274.47683
274.45261
274.44098
274.44219
274.45521
274.46095
274.45131
274.44938
274.4504
274.45622
274.45056
274.43599
274.4414
274.44414
274.47183
274.45465
274.4582
274.4375
274.4269
274.43706
196.3074
196.27961
196.26594
196.27517
196.27162
196.24079
196.25428
196.26022
196.27849
196.26765
196.22893
196.27964
196.29395
196.27952
196.26519
196.27213
196.28111
196.29913
196.30064
196.28313
196.28634
196.28917
196.28707
196.26208
196.23718
196.27352
196.25721
196.27413
196.29367
196.32444
117.68746
117.68696
117.64152
117.69728
117.66181
117.66384
117.63578
117.68464
117.70135
117.66491
117.67181
117.66873
117.68564
117.65848
117.63498
117.63263
117.63984
117.66313
117.6662
117.61509
117.61031
117.67031
117.6908
117.67264
117.66541
117.66786
117.64357
117.66943
117.6878
117.69289
39.262531
39.257746
39.262723
39.253361
39.232201
39.245122
39.258498
39.252816
39.262692
39.247003
39.262037
39.252768
39.263101
39.254819
39.249846
39.269438
39.256124
39.235854
39.244002
39.266964
39.262477
39.249179
39.244227
39.244095
39.249626
39.240376
39.24985
39.253136
39.264233
39.26603
353.3945
353.39274
353.38851
353.38778
353.3843
353.39871
353.39722
353.4027
353.40427
353.39264
353.42052
353.4063
353.41611
353.41259
353.41228
353.41288
353.40989
353.40992
353.42985
353.43309
353.43172
353.42137
353.41887
353.42536
353.42433
353.42296
353.422
353.42004
353.42361
353.42176
274.46738
274.45856
274.48251
274.48098
274.48228
274.48527
274.46005
274.45334
274.45985
274.46834
274.49207
274.46053
274.44374
274.44618
274.4354
274.46064
274.47944
274.4626
274.49285
274.50295
274.48321
274.44063
274.43891
274.42996
274.42854
274.43401
274.44521
274.45092
274.44771
274.43457
196.29705
196.27176
196.25785
196.26536
196.26685
196.23866
196.25637
196.28575
196.27693
196.28157
196.23419
196.2636
196.28097
196.31066
196.27546
196.28016
196.26865
196.27757
196.24918
196.24925
196.24215
196.24389
196.25702
196.27772
196.29187
196.27373
196.27054
196.27968
196.27103
196.28329
117.68291
117.67548
117.63384
117.67457
117.66228
117.64117
117.64374
117.67953
117.70436
117.65383
117.64748
117.63758
117.68448
117.67919
117.66154
117.62721
117.62583
117.6391
117.66646
117.68225
117.67121
117.662
117.65811
117.68869
117.68263
117.68526
117.6611
117.63974
117.63251
117.66246
39.25631
39.251884
39.250864
39.245349
39.238293
39.24833
39.251246
39.251874
39.25962
39.233055
39.252833
39.261652
39.259606
39.265888
39.241803
39.262806
39.258652
39.230536
39.224433
39.232618
39.223635
39.233603
39.244573
39.256655
39.250495
39.246929
39.238515
39.260541
39.262367
39.241819
353.39621
353.39009
353.39993
353.40688
353.40335
353.4132
353.40194
353.40367
353.40729
353.39218
353.41586
353.41439
353.41623
353.43253
353.43341
353.43592
353.43025
353.43548
353.42053
353.42559
353.42645
353.42019
353.42744
353.42882
353.4309
353.42315
274.46662
274.47132
274.49921
274.51377
274.51343
274.51119
274.46104
274.44775
274.45661
274.4653
274.49835
274.49154
274.45494
274.441
274.46681
274.49743
274.51262
274.50209
274.45282
274.4336
274.43965
274.45392
274.4858
274.50115
274.49493
274.4662
196.26355
196.23799
196.23409
196.2365
196.24544
196.21397
196.23217
196.25339
196.26797
196.26056
196.24943
196.2429
196.27096
196.2769
196.24731
196.25222
196.26804
196.22306
196.24036
196.26259
196.26959
196.23663
196.2386
196.2491
196.25299
196.27769
117.6827
117.66259
117.66945
117.6981
117.67593
117.65674
117.64658
117.68273
117.69455
117.66361
117.67756
117.65048
117.67332
117.68959
117.61315
117.67987
117.66933
117.65898
117.6428
117.68311
117.68321
117.63642
117.66548
117.67149
117.66747
117.6669
39.244704
39.246292
39.230839
39.234315
39.221535
39.23837
39.248221
39.24736
39.250484
39.236252
39.230077
39.230175
39.236849
39.26606
39.25074
39.24074
39.228731
39.247758
39.257461
39.259917
39.252425
39.246259
39.230237
39.228213
39.227514
39.229401
353.40688
353.41147
353.4101
353.41684
353.41381
353.41762
353.41686
353.4173
353.4119
353.41305
353.41594
353.41772
353.41802
353.42403
353.42532
353.43235
353.4256
353.43183
353.42702
353.43086
353.422
353.4314
353.43587
353.43152
353.43788
353.43737
274.47898
274.49691
274.51492
274.53007
274.52486
274.50964
274.47761
274.44538
274.46393
274.48779
274.51899
274.5039
274.4863
274.44275
274.45483
274.49641
274.49645
274.48711
274.46432
274.43701
274.44838
274.48224
274.52814
274.50677
274.51312
274.51116
196.24717
196.22278
196.24625
196.24528
196.2495
196.2427
196.226
196.2498
196.26564
196.22447
196.25552
196.25716
196.28023
196.29097
196.25877
196.24615
196.25193
196.23058
196.24313
196.2423
196.24795
196.21657
196.22246
196.25068
196.25355
196.25794
117.65915
117.66287
117.67106
117.69672
117.67998
117.66055
117.63205
117.68162
117.67724
117.65927
117.67486
117.67572
117.67416
117.6883
117.63654
117.67645
117.66736
117.66757
117.63167
117.68991
117.66595
117.67712
117.67084
117.68792
117.70197
117.69478
39.253318
39.247295
39.224733
39.236021
39.226937
39.224759
39.24536
39.248773
39.249197
39.244442
39.232664
39.229264
39.245472
39.262534
39.260822
39.242138
39.229444
39.241084
39.251836
39.258844
39.250551
39.249102
39.240536
39.22191
39.231193
39.233057
353.40305
353.40059
353.40267
353.40955
353.40956
353.41421
353.40784
353.41043
353.41231
353.40518
353.41215
353.41354
353.41498
353.41605
353.41769
353.41768
353.41931
353.41348
353.42861
353.42411
353.41429
353.4118
353.4121
353.41467
353.40879
353.40049
353.39988
353.39928
353.39875
353.40036
274.45597
274.45369
274.47387
274.50266
274.50805
274.49556
274.45167
274.44893
274.45264
274.45894
274.49288
274.51428
274.50193
274.50656
274.48727
274.4372
274.45323
274.4505
274.48178
274.4866
274.46166
274.45975
274.44037
274.43772
274.43978
274.44271
274.45738
274.46361
274.46226
274.47198
196.28081
196.2525
196.245
196.23815
196.25224
196.22524
196.24345
196.27486
196.272
196.24442
196.22556
196.24398
196.24392
196.24455
196.22449
196.26335
196.27297
196.24901
196.22653
196.24799
196.27519
196.25678
196.26428
196.29093
196.27895
196.26911
196.25352
196.27019
196.27399
196.26862
117.67797
117.65625
117.63731
117.66223
117.66942
117.65596
117.64939
117.67519
117.68736
117.65025
117.65494
117.67737
117.67706
117.66501
117.64171
117.66861
117.68832
117.65481
117.65574
117.67191
117.67013
117.64939
117.66808
117.68272
117.6872
117.6522
117.64714
117.64892
117.64451
117.63146
39.253333
39.247627
39.24334
39.231937
39.224418
39.236905
39.239586
39.256124
39.258508
39.256767
39.244611
39.231688
39.228687
39.229861
39.244381
39.244791
39.247401
39.250657
39.243901
39.227229
39.237104
39.250058
39.244184
39.256411
39.252059
39.254833
39.25265
39.238268
39.233197
39.246828
353.41322
353.41312
353.41127
353.41727
353.41471
353.40383
353.4058
353.40798
353.41059
353.40758
353.40105
353.40703
353.3987
353.40641
353.40871
353.41194
353.41454
353.41621
353.40947
353.41558
353.41614
353.42047
353.42444
353.43129
353.4055
353.4172
353.40987
353.41149
353.41316
353.41034
274.45333
274.44204
274.44028
274.48123
274.49491
274.46781
274.45639
274.44402
274.44787
274.44749
274.46371
274.48397
274.47215
274.47552
274.45368
274.43728
274.43885
274.44901
274.44784
274.45518
274.44453
274.43792
274.48996
274.4934
274.46093
274.44942
274.44369
274.44627
274.44535
274.44571
196.31926
196.29643
196.25061
196.24461
196.24081
196.26281
196.24332
196.2806
196.29929
196.26757
196.25412
196.25505
196.29118
196.27315
196.273
196.28744
196.29686
196.3115
196.28603
196.30465
196.2781
196.25941
196.24529
196.23193
196.25935
196.27048
196.27779
196.2701
196.27333
196.28643
117.69743
117.68533
117.67217
117.63675
117.66597
117.66396
117.65329
117.67628
117.69002
117.67934
117.63698
117.66439
117.66469
117.63922
117.65303
117.6646
117.68176
117.67251
117.65306
117.65512
117.68355
117.67327
117.66647
117.66922
117.66261
117.70014
117.70251
117.69024
117.69262
117.69285
39.272799
39.264877
39.251251
39.243996
39.237621
39.236219
39.245279
39.254394
39.266607
39.259947
39.251527
39.241696
39.235279
39.250423
39.247919
39.252774
39.263147
39.268565
39.289177
39.258082
39.243641
39.230069
39.24986
39.256718
39.245173
39.241307
39.247565
39.250838
39.254391
39.259193
353.4078
353.40386
353.4045
353.40658
353.41042
353.41038
353.41049
353.40439
353.40928
353.4119
353.40836
353.40672
353.40687
353.40908
353.41507
353.41757
353.41516
353.416
353.4227
353.41561
353.4154
353.42146
353.41592
353.41455
353.40512
353.41501
353.40944
353.41663
353.41065
353.41329
274.45367
274.4434
274.47072
274.4742
274.49806
274.50178
274.47945
274.45205
274.44529
274.44704
274.44568
274.44932
274.46551
274.46527
274.48774
274.48416
274.45496
274.43784
274.43967
274.44138
274.45479
274.49016
274.50754
274.48309
274.45194
274.44762
274.45008
274.47749
274.46156
274.44853
196.29901
196.26738
196.26685
196.27239
196.25506
196.24903
196.22276
196.24615
196.26972
196.30096
196.26917
196.26223
196.24798
196.2663
196.24577
196.24185
196.25029
196.25611
196.28512
196.25698
196.23977
196.23146
196.24362
196.23525
196.25997
196.28023
196.28933
196.25211
196.26981
196.27806
117.67396
117.65659
117.62921
117.64336
117.66396
117.67302
117.64827
117.64949
117.68103
117.68902
117.67677
117.6625
117.65679
117.66434
117.64995
117.64008
117.62985
117.67292
117.685
117.67644
117.6314
117.65729
117.66859
117.66935
117.67117
117.70586
117.67517
117.65175
117.64388
117.69157
39.254354
39.246303
39.249183
39.231272
39.22579
39.229992
39.243349
39.254035
39.25693
39.267038
39.252276
39.243711
39.242301
39.230659
39.23154
39.248793
39.251334
39.245502
39.260444
39.251988
39.247187
39.229902
39.222561
39.231868
39.226533
39.238521
39.236283
39.257578
39.272846
39.26813
353.40834
353.40917
353.41192
353.40998
353.41394
353.40526
353.41476
353.40015
353.4073
353.40907
353.40257
353.40795
353.41375
353.41464
353.41567
353.41562
353.41931
353.41221
353.41612
353.41217
353.42012
353.41608
353.4148
353.40832
353.40846
353.41398
353.40403
353.41738
353.42165
353.41397
274.47115
274.48916
274.51143
274.5169
274.52409
274.5167
274.51884
274.46083
274.45575
274.45376
274.45393
274.48072
274.51548
274.51339
274.51402
274.51492
274.49219
274.46105
274.44926
274.46087
274.49353
274.51534
274.49493
274.46536
274.46016
274.45343
274.45892
274.49903
274.50904
274.48376
196.25848
196.23171
196.23751
196.2546
196.24358
196.25823
196.21766
196.23592
196.25579
196.27514
196.24865
196.23139
196.21889
196.25171
196.25639
196.25168
196.25416
196.26402
196.25876
196.25341
196.23076
196.24821
196.24149
196.26211
196.27935
196.28522
196.27261
196.2527
196.25283
196.27168
117.66968
117.66288
117.66556
117.6818
117.70154
117.68701
117.66816
117.66554
117.68377
117.68601
117.67168
117.6665
117.6661
117.68786
117.6907
117.66833
117.67728
117.6497
117.6726
117.6537
117.65581
117.6719
117.69144
117.69315
117.70245
117.72129
117.68314
117.67654
117.66046
117.65098
39.243508
39.243623
39.230235
39.225278
39.230926
39.225317
39.238387
39.245305
39.246267
39.252776
39.239521
39.241637
39.23225
39.218674
39.229131
39.227685
39.227621
39.23665
39.248685
39.248666
39.239432
39.219681
39.224496
39.235114
39.233412
39.24214
39.236445
39.238883
39.242027
39.258263
)
;

boundaryField
{
    minX
    {
        type            calculated;
        value           nonuniform List<scalar> 
50
(
353.39295
274.49783
196.26638
117.64433
39.254076
353.39561
274.47059
196.2606
117.6673
39.236541
353.39459
274.46644
196.3074
117.68746
39.262531
353.3945
274.46738
196.29705
117.68291
39.25631
353.39621
274.46662
196.26355
117.6827
39.244704
353.40688
274.47898
196.24717
117.65915
39.253318
353.40305
274.45597
196.28081
117.67797
39.253333
353.41322
274.45333
196.31926
117.69743
39.272799
353.4078
274.45367
196.29901
117.67396
39.254354
353.40834
274.47115
196.25848
117.66968
39.243508
)
;
    }
    maxX
    {
        type            calculated;
        value           nonuniform List<scalar> 
50
(
353.42445
274.44519
196.26438
117.68441
39.246282
353.42789
274.43993
196.29283
117.68284
39.25645
353.42641
274.43706
196.32444
117.69289
39.26603
353.42176
274.43457
196.28329
117.66246
39.241819
353.42315
274.4662
196.27769
117.6669
39.229401
353.43737
274.51116
196.25794
117.69478
39.233057
353.40036
274.47198
196.26862
117.63146
39.246828
353.41034
274.44571
196.28643
117.69285
39.259193
353.41329
274.44853
196.27806
117.69157
39.26813
353.41397
274.48376
196.27168
117.65098
39.258263
)
;
    }
    minY
    {
        type            calculated;
        value           nonuniform List<scalar> 
292
(
392.4
392.4
392.4
392.4
392.4
392.4
392.4
392.4
392.4
392.4
392.4
392.4
392.4
392.4
392.4
392.4
392.4
392.4
392.4
392.4
392.4
392.4
392.4
392.4
392.4
392.4
392.4
392.4
392.4
392.4
392.4
392.4
392.4
392.4
392.4
392.4
392.4
392.4
392.4
392.4
392.4
392.4
392.4
392.4
392.4
392.4
392.4
392.4
392.4
392.4
392.4
392.4
392.4
392.4
392.4
392.4
392.4
392.4
392.4
392.4
392.4
392.4
392.4
392.4
392.4
392.4
392.4
392.4
392.4
392.4
392.4
392.4
392.4
392.4
392.4
392.4
392.4
392.4
392.4
392.4
392.4
392.4
392.4
392.4
392.4
392.4
392.4
392.4
392.4
392.4
392.4
392.4
392.4
392.4
392.4
392.4
392.4
392.4
392.4
392.4
392.4
392.4
392.4
392.4
392.4
392.4
392.4
392.4
392.4
392.4
392.4
392.4
392.4
392.4
392.4
392.4
392.4
392.4
392.4
392.4
392.4
392.4
392.4
392.4
392.4
392.4
392.4
392.4
392.4
392.4
392.4
392.4
392.4
392.4
392.4
392.4
392.4
392.4
392.4
392.4
392.4
392.4
392.4
392.4
392.4
392.4
392.4
392.4
392.4
392.4
392.4
392.4
392.4
392.4
392.4
392.4
392.4
392.4
392.4
392.4
392.4
392.4
392.4
392.4
392.4
392.4
392.4
392.4
392.4
392.4
392.4
392.4
392.4
392.4
392.4
392.4
392.4
392.4
392.4
392.4
392.4
392.4
392.4
392.4
392.4
392.4
392.4
392.4
392.4
392.4
392.4
392.4
392.4
392.4
392.4
392.4
392.4
392.4
392.4
392.4
392.4
392.4
392.4
392.4
392.4
392.4
392.4
392.4
392.4
392.4
392.4
392.4
392.4
392.4
392.4
392.4
392.4
392.4
392.4
392.4
392.4
392.4
392.4
392.4
392.4
392.4
392.4
392.4
392.4
392.4
392.4
392.4
392.4
392.4
392.4
392.4
392.4
392.4
392.4
392.4
392.4
392.4
392.4
392.4
392.4
392.4
392.4
392.4
392.4
392.4
392.4
392.4
392.4
392.4
392.4
392.4
392.4
392.4
392.4
392.4
392.4
392.4
392.4
392.4
392.4
392.4
392.4
392.4
392.4
392.4
392.4
392.4
392.4
392.4
392.4
392.4
392.4
392.4
392.4
392.4
392.4
392.4
392.4
392.4
392.4
392.4
392.4
392.4
392.4
392.4
392.4
392.4
)
;
    }
    minZ
    {
        type            calculated;
        value           nonuniform List<scalar> 
150
(
353.39295
274.49783
196.26638
117.64433
39.254076
353.39434
274.50367
196.25814
117.65772
39.233146
353.39591
274.51333
196.26867
117.67163
39.221197
353.39939
274.52085
196.24961
117.69759
39.230534
353.40583
274.52871
196.24958
117.70302
39.226979
353.39781
274.51919
196.25414
117.67548
39.214907
353.40132
274.52023
196.24571
117.66399
39.220135
353.39856
274.49584
196.23123
117.64587
39.240996
353.39675
274.47555
196.25308
117.65086
39.251896
353.39776
274.47973
196.2677
117.63939
39.251765
353.39825
274.46496
196.26866
117.67839
39.228406
353.39401
274.46763
196.28454
117.67395
39.22389
353.39729
274.469
196.26004
117.67891
39.227118
353.4097
274.51063
196.25118
117.67867
39.2246
353.41321
274.5236
196.26701
117.68749
39.223571
353.42389
274.53176
196.25259
117.70223
39.229764
353.42239
274.5185
196.2523
117.67266
39.208484
353.42623
274.52168
196.22332
117.64312
39.235914
353.42788
274.49379
196.22524
117.66111
39.250448
353.41847
274.44374
196.23805
117.6332
39.252709
353.42453
274.44091
196.26956
117.68834
39.261849
353.42197
274.44145
196.26709
117.68801
39.251808
353.4143
274.45174
196.23895
117.65378
39.249019
353.43351
274.51256
196.23527
117.67506
39.24902
353.408
274.48402
196.27432
117.66806
39.234858
353.43071
274.52086
196.24569
117.70169
39.22799
353.42341
274.52043
196.25687
117.69463
39.234026
353.4305
274.49798
196.2293
117.67099
39.233704
353.42043
274.4514
196.23431
117.66636
39.246449
353.42445
274.44519
196.26438
117.68441
39.246282
)
;
    }
    maxZ
    {
        type            calculated;
        value           nonuniform List<scalar> 
150
(
353.40834
274.47115
196.25848
117.66968
39.243508
353.40917
274.48916
196.23171
117.66288
39.243623
353.41192
274.51143
196.23751
117.66556
39.230235
353.40998
274.5169
196.2546
117.6818
39.225278
353.41394
274.52409
196.24358
117.70154
39.230926
353.40526
274.5167
196.25823
117.68701
39.225317
353.41476
274.51884
196.21766
117.66816
39.238387
353.40015
274.46083
196.23592
117.66554
39.245305
353.4073
274.45575
196.25579
117.68377
39.246267
353.40907
274.45376
196.27514
117.68601
39.252776
353.40257
274.45393
196.24865
117.67168
39.239521
353.40795
274.48072
196.23139
117.6665
39.241637
353.41375
274.51548
196.21889
117.6661
39.23225
353.41464
274.51339
196.25171
117.68786
39.218674
353.41567
274.51402
196.25639
117.6907
39.229131
353.41562
274.51492
196.25168
117.66833
39.227685
353.41931
274.49219
196.25416
117.67728
39.227621
353.41221
274.46105
196.26402
117.6497
39.23665
353.41612
274.44926
196.25876
117.6726
39.248685
353.41217
274.46087
196.25341
117.6537
39.248666
353.42012
274.49353
196.23076
117.65581
39.239432
353.41608
274.51534
196.24821
117.6719
39.219681
353.4148
274.49493
196.24149
117.69144
39.224496
353.40832
274.46536
196.26211
117.69315
39.235114
353.40846
274.46016
196.27935
117.70245
39.233412
353.41398
274.45343
196.28522
117.72129
39.24214
353.40403
274.45892
196.27261
117.68314
39.236445
353.41738
274.49903
196.2527
117.67654
39.238883
353.42165
274.50904
196.25283
117.66046
39.242027
353.41397
274.48376
196.27168
117.65098
39.258263
)
;
    }
    bottomWater_to_rightSolid
    {
        type            calculated;
        value           nonuniform List<scalar> 
130
(
-0.0040860273
0.01044767
0.01270917
0.02184884
0.011808369
0.0090191798
0.0090200819
-0.0051415867
-0.012009512
-0.0059736371
-0.0062963823
0.0064494234
0.0062824124
0.0014717147
0.0012101095
0.015086889
0.031324501
0.022697777
0.016155079
0.012371462
-0.00078132671
-0.014931936
-0.0066091168
0.0042365275
0.0098788457
0.016449642
-0.0041464481
0.0040024107
0.026963935
0.022477052
0.0091790356
0.0042274941
0.0040947086
0.0096255723
0.00037561578
0.0098495268
0.013136368
0.02423306
0.026030052
-0.0094636304
-0.015567309
-0.007382196
-0.016365077
-0.0063973366
0.0045734391
0.016655442
0.010494701
0.0069294216
-0.0014853848
0.020541449
0.022367026
0.0018193806
0.026059647
0.010740179
0.00073960422
-0.011268858
0.0077583683
0.017461208
0.019916981
0.012425446
0.0062587346
-0.0097632139
-0.011787285
-0.012486044
-0.01059871
0.02253395
0.020821997
0.0021375841
-0.010556098
0.0010840577
0.011836437
0.018843753
0.010551128
0.0091019507
0.00053612494
-0.018090483
-0.0088065299
-0.0069433543
0.010657283
0.0039006833
-0.012770811
-0.002895896
0.010057582
0.0041838681
0.016410622
0.012058861
0.014832938
0.012649823
-0.0017316173
-0.0068028156
0.0068283428
0.028564789
0.049176771
0.0180824
0.0036409327
-0.0099309424
0.009859828
0.016717765
0.0051732841
0.0013073985
0.0075645081
0.010837544
0.014391082
0.019193252
0.0055020529
0.02044398
0.011987871
0.0071872031
-0.010097824
-0.017438924
-0.008131651
-0.013467129
-0.0014792947
-0.0037171223
0.017577576
0.032846117
0.02812976
-0.0033499168
0.0086848745
0.0086657439
-0.00056842657
-0.020318588
-0.015503924
-0.0048859565
-0.0065877312
0.0021396933
-0.0035547459
-0.0011172273
0.0020268
0.018263418
)
;
    }
    bottomWater_to_leftSolid
    {
        type            calculated;
        value           nonuniform List<scalar> 
130
(
0.014075705
-0.0068540001
-0.018803282
-0.0094657118
-0.013020842
-0.02509284
-0.019864823
0.00099630923
0.011895718
0.011764916
-0.011594037
-0.016109902
-0.012881807
-0.0034593895
0.0037254631
-0.0018791249
-0.0098058649
-0.022760642
-0.0059652307
-0.000528408
-0.0027857776
0.0066864883
0.030369626
0.017890886
-0.009481232
-0.0051586797
0.022530524
0.017746334
0.022723457
0.013360655
-0.0077987943
0.0051215787
0.018497893
0.012816355
0.022691708
0.007002549
0.022037424
0.012768446
0.023101268
0.016309529
0.011884438
0.010863887
0.0053489948
-0.0017067479
0.0083300483
0.011245845
0.011873947
0.019620214
-0.0069452975
0.012833054
0.021652046
0.019605614
0.0047042506
0.0062916332
-0.0091612932
-0.0056853543
-0.018465202
-0.0016304856
0.0082210737
0.0073596666
0.010484246
-0.0037477442
-0.0099227233
-0.0098245701
-0.0031511887
0.013318297
0.007295475
-0.015266942
-0.0039794506
-0.01306277
-0.015241264
0.0053596559
0.0087733045
0.0091969429
0.0044424522
-0.0073360255
-0.010736369
0.0054723561
0.013332903
0.0076267185
0.0033398319
-0.008063466
-0.015581839
-0.0030945436
-0.00041377968
0.016123736
0.01850756
0.01676662
0.0046110482
-0.0083120413
-0.011312776
0.032798943
0.024876924
0.011250736
0.0039959744
-0.0023792319
-0.0037805764
0.0052793847
0.014393697
0.026606854
0.019947257
0.011526832
0.0016963138
-0.0047214091
0.014354433
0.0063026492
0.009182952
-0.0087282039
-0.01421016
-0.010007943
0.0033489648
0.014034643
0.016930389
0.027038211
0.01227583
0.003711006
0.0023009514
0.0035082652
0.0036234138
-0.0097653848
-0.014722433
-0.0090738691
-0.014682569
-0.001612581
0.0053045186
0.006267294
0.012775658
-0.00047936061
0.0016367052
-0.0077499462
)
;
    }
    bottomWater_to_heater
    {
        type            calculated;
        value           nonuniform List<scalar> 
92
(
-0.015399563
-0.016428798
-0.01023564
-0.031516317
-0.0044248327
-0.013994346
-0.024127784
-0.013589396
0.014819183
0.0098462941
0.029438006
0.016123687
353.41259
353.41228
353.41288
353.40989
274.44618
274.4354
274.46064
274.47944
196.31066
196.27546
196.28016
196.26865
117.67919
117.66154
117.62721
117.62583
0.02588811
39.265888
0.0018032082
39.241803
0.022806033
39.262806
0.018651781
39.258652
353.41623
353.43253
274.45494
274.441
196.27096
196.2769
117.67332
117.68959
39.236849
39.26606
353.41802
353.41605
353.41769
353.41768
353.42403
353.41931
274.4863
274.50656
274.48727
274.4372
274.44275
274.45323
196.28023
196.24455
196.22449
196.26335
196.29097
196.27297
117.67416
117.66501
117.64171
117.66861
117.6883
117.68832
39.245472
39.229861
39.244381
39.244791
39.262534
39.247401
-0.010138777
0.0043813402
0.0047913766
0.0074009271
0.010423317
0.0079191817
0.012774001
0.023147043
-0.0093410311
-0.0084603899
0.0087933051
0.011334307
-0.021325961
-0.010868741
-0.012314524
-0.012378649
)
;
    }
}


// ************************************************************************* //
