/*--------------------------------*- C++ -*----------------------------------*\
| =========                 |                                                 |
| \\      /  F ield         | OpenFOAM: The Open Source CFD Toolbox           |
|  \\    /   O peration     | Version:  v2012                                 |
|   \\  /    A nd           | Website:  www.openfoam.com                      |
|    \\/     M anipulation  |                                                 |
\*---------------------------------------------------------------------------*/
FoamFile
{
    version     2.0;
    format      ascii;
    class       surfaceScalarField;
    location    "160/bottomWater";
    object      phi;
}
// * * * * * * * * * * * * * * * * * * * * * * * * * * * * * * * * * * * * * //

dimensions      [1 0 -1 0 0 0 0];
oriented        oriented;


internalField   nonuniform List<scalar> 
3858
(
-0.0001607386
8.8137326e-05
7.7746856e-05
-0.00017889585
-7.2832925e-05
9.5914862e-05
-0.00014529761
-8.7645938e-05
5.8522565e-05
-6.2323235e-05
-0.0002022569
0.00012289792
8.4834571e-05
-0.00028335427
0.00013814968
0.00015377072
-0.00012023607
5.5221451e-05
0.00023442788
-0.00015163307
7.415944e-05
0.00022743183
-6.1065697e-05
7.1952918e-05
8.063616e-05
0.00011539781
3.5639677e-05
-8.6621547e-05
0.0001266458
4.4475271e-05
-0.0001990996
0.00016341996
-4.7059501e-05
-0.00031622186
0.00012726369
-5.003838e-06
-0.00032941099
-1.52737e-05
3.2779617e-05
-0.00022099051
-0.00020115825
9.3937257e-05
-0.00010291157
-0.00019008891
7.2034707e-05
6.8475943e-05
-0.00028692798
0.0001127367
0.00013679183
-0.00021137745
0.00014063878
0.00020553105
-0.00021826448
0.00014624543
0.00027245881
-0.00019816592
0.0001276241
0.00015313839
7.0381749e-05
4.7532888e-05
-3.4898263e-05
0.00013643796
4.8419043e-05
-0.00020799733
0.00013316735
3.7472377e-05
-0.00025565596
-2.4547175e-06
4.9782406e-05
-0.00011844566
-0.00021884578
7.6402032e-05
-0.00017425226
6.7297948e-05
-1.0305432e-05
-2.1442048e-05
-0.00024173643
8.4270935e-05
0.00016036219
-0.00027760455
9.3103201e-05
0.00027755196
-0.00024271117
0.0001212172
0.00019990976
-5.868568e-06
8.1611771e-05
0.00014039459
5.6407498e-05
-0.00020032688
5.1463293e-05
0.00023700091
-0.00019023972
-0.00025285962
0.00016993954
-0.0001095376
-0.00023360193
6.5253871e-05
-2.2483053e-05
-0.00046764135
0.0001783299
7.8694296e-05
-0.00057317369
0.00018864207
0.00016499668
-0.00028837169
8.1833233e-05
0.00027896658
-0.00038408384
0.00011848089
0.00030641558
-0.00026700507
0.00017849038
0.00018170051
7.5490925e-05
0.00016462196
0.00012220617
7.3408622e-05
0.00011273152
-8.7611166e-05
0.00045675003
-8.3512732e-05
-0.00025820281
0.00016665864
0.00013119669
-0.00025568962
-0.0001776157
0.00015982881
-0.00013865291
-0.00047087985
0.00015268489
-1.1759908e-05
-0.00039868302
8.17011e-05
0.00015263502
-0.00054497221
9.3649312e-05
0.00021082726
-0.00043114318
0.00016157348
0.00030359198
-0.00049889038
0.00018786119
0.00046585242
-0.00050679464
0.0001463683
0.00046197961
1.5213843e-05
5.904072e-05
-1.5020579e-05
0.00060787909
5.5590615e-06
-0.00044152659
0.00048233778
7.7335582e-05
-0.00040270888
-0.00012440797
8.3135538e-05
-0.0001660802
-0.00053051803
7.5043566e-05
-0.00014289848
3.7693373e-05
6.4228553e-06
5.2897882e-05
-0.00049932363
6.1790826e-05
0.00020844287
-0.00055580349
0.00012265395
0.0003859934
-0.00055915121
0.00013888951
0.00036577934
-0.0001260592
0.00014040469
0.00039296271
0.00011321122
-3.0287046e-06
-4.440488e-05
9.8896876e-05
-4.1575648e-05
-0.00018005077
-3.4261909e-05
3.4224952e-06
-0.00029989547
2.1295399e-05
1.8646987e-05
-0.00041841193
-6.4453903e-05
9.3122381e-06
-0.00048005117
-8.3787768e-05
4.4639626e-05
-0.00034875425
2.5055185e-05
-0.0001122341
-0.00021016418
-1.7045915e-05
-0.00030657283
-8.0648759e-05
7.9824273e-06
-0.00023611472
-1.8198534e-05
2.3231359e-05
-7.8429762e-05
-4.9219386e-05
-3.5056952e-05
1.1751664e-05
0.00026515349
0.0001014151
0.00018433198
-0.00011844861
0.00011252693
0.00025841861
-0.00028213619
3.0433856e-05
9.7314168e-05
-0.00027422626
-3.5549159e-05
7.7796229e-05
-0.000372445
-6.7200795e-06
8.5426821e-05
-0.00051049879
-4.2104013e-05
0.00017438266
-0.00042132242
-9.8776595e-05
7.1169977e-07
-8.1381126e-05
-0.0002438383
-0.0002612123
-7.5935193e-05
-0.00016893545
-6.8033586e-05
-3.5477509e-05
-0.00014248736
2.7136857e-05
0.00055955851
-4.6849862e-05
0.00011360635
0.00038079846
1.5069825e-05
0.00017700525
-0.00010429519
-8.3511681e-05
-0.00013060654
-0.00011344593
-0.00010946032
1.3885851e-05
-0.00015987591
5.3076887e-05
9.0597024e-05
-0.00052784976
-4.8185047e-05
-6.4959483e-06
-0.00045901368
3.0314576e-07
-0.00022021496
-0.00021602851
-0.00012940369
-0.00016433263
-0.00010898699
-7.295455e-05
0.00025747355
-2.8843474e-05
-0.00011568647
0.00018036694
-0.00010908535
-9.898199e-05
-0.00011339769
-8.335757e-05
-9.8076835e-05
-0.00029839187
-2.4087564e-06
-3.5060841e-05
-0.00040031044
-8.111748e-05
-1.7288302e-05
-0.00045733096
-4.0492732e-05
2.439446e-05
-0.00036888024
-2.1556763e-05
-1.3683968e-05
-0.00017588728
3.8015402e-06
-3.3277078e-05
6.0261776e-05
-0.00012131741
-0.00010177836
0.00011333274
-6.3029978e-05
-0.00030518514
0.00017161561
-1.7428213e-05
-2.3745468e-05
-0.00011035215
9.4065964e-05
0.00013731153
-0.00028538646
5.8808503e-06
0.00012878331
-0.00024036438
-3.3243601e-05
5.8435028e-05
-0.00021270197
8.8239868e-06
1.4608381e-05
-0.00039825498
6.9636621e-05
-2.8777194e-06
-0.00050038196
7.369259e-06
2.6501427e-05
-0.00043867749
-1.2024077e-05
-7.5931314e-05
6.0497292e-05
-3.9445674e-05
-0.00023422468
0.00013724971
-5.4891532e-05
-0.0002575876
7.4156793e-05
-8.6271385e-05
1.5131362e-05
0.00025922523
2.7614336e-05
0.00023191747
0.00012966664
3.434572e-05
0.0001435026
1.498427e-05
-3.0864596e-05
-1.7132994e-05
9.2488375e-05
-4.5298714e-05
3.4084037e-06
-9.3745698e-05
-8.667162e-05
3.4970209e-06
-0.00050400502
-2.3933369e-05
-2.4896159e-05
-0.00044075339
1.0132886e-05
-0.00011772558
-0.00012065549
-2.5436104e-06
-0.00022400964
4.9858367e-05
-5.2561304e-05
5.9078224e-05
-2.5614308e-05
0.00025170669
-7.1339754e-05
0.00031159062
-0.00017328162
0.00022176491
-0.00020856616
2.7053754e-05
-0.00020559928
-0.00025736176
-0.00017291545
-0.00041056065
-0.00021568133
-0.00041103336
-0.00017541456
-0.00024259145
-0.00010818012
-4.0072639e-05
-8.9186063e-05
0.00020183098
-7.0288009e-05
0.0002480338
-0.00015655498
0.00016547798
-0.00020283064
0.00016721716
-0.00024210357
0.0001968157
-0.0002423005
4.6080361e-05
-0.00024751965
-0.00025219008
-0.00020211151
-0.00054400692
-0.00014686065
-0.00044219167
-4.1317959e-05
-0.00028941309
-1.5528863e-05
-0.00017604777
-3.9208517e-05
7.6342097e-05
6.8353544e-06
0.00021419532
-8.1865831e-06
0.00026388611
-3.4706525e-05
0.00039364505
-3.7270577e-05
0.00038048545
-8.0586103e-05
-2.7255947e-05
-9.6263634e-05
-0.00033946852
-0.00012854082
-0.00032282533
-0.00013729869
-0.00016387568
-0.00010909128
-0.00010479746
-0.00014211987
0.00014070976
8.36994e-05
-0.00017741134
4.0179473e-05
9.6488132e-05
-5.1748139e-06
-0.00022424942
0.0001127657
-3.8474875e-05
7.4639145e-05
8.7300548e-05
-7.0007687e-05
6.2660707e-05
0.00011239632
0.00011249795
-0.00017623747
5.1661213e-05
0.00019833638
-7.4637886e-05
6.5870597e-05
0.00012697357
0.00012678118
2.0392254e-05
1.0696714e-05
0.00015317495
1.4859442e-06
-0.0001028623
0.00012006389
4.0553227e-05
-0.00021660614
0.00015237061
-8.226065e-05
-0.0002903429
0.00015614708
-8.4489324e-05
-0.00033010367
0.00012123218
-4.6270246e-05
-0.00027385891
-6.7599053e-05
0.00010682854
-6.1784707e-05
-0.00027047754
0.00012878835
0.00011323812
-0.00021474841
0.0001505212
0.00013562428
-3.8777562e-05
0.00015547424
9.8204312e-05
8.2277165e-05
0.000100254
6.9469826e-05
0.00013727011
1.6626945e-05
1.6592608e-05
0.00016282139
-6.534611e-05
-3.1841697e-05
0.00013580335
-4.3034914e-05
-0.00016225581
0.00015795757
6.712331e-06
-0.00028837471
0.00013702486
3.7811438e-05
-0.00020358642
-8.4594439e-05
7.2670498e-05
-6.8582409e-05
-0.00016743229
1.8172398e-05
0.00011666352
-0.00025902941
0.0001534478
0.00025045761
-0.00020171053
0.00015676007
0.00023840657
-1.1319435e-05
0.00014205288
0.00012220931
0.00014805806
4.7135454e-05
0.00014502439
2.9519235e-05
-0.00028664004
0.00046660286
0.00019774784
-0.00024925038
-3.314134e-05
0.00020587069
4.5204006e-05
-0.00056253571
0.00010908577
-3.6413942e-05
0.00014347861
0.00019110838
-6.1107902e-05
6.1424174e-05
0.00021457257
0.00023943623
-0.00048264905
8.7700678e-05
0.00039395451
-0.00025526362
0.00014458835
0.00025046602
0.00030678116
0.0001419789
-5.198063e-05
0.00050769532
0.00011254823
-2.8698365e-05
9.8961625e-05
0.00011055152
-7.1401038e-06
5.8689059e-05
-1.1389447e-05
-0.00026414336
0.00047711365
6.7233372e-05
-0.00037695302
0.00026830936
0.00012556129
-0.00028118639
-0.00022733062
0.00021664982
-5.0310505e-05
-0.00060721931
0.00018756699
0.00020464707
-0.00051034928
0.0001342926
0.00034644393
-0.00015848381
0.00013948287
0.00041856001
3.4809325e-05
0.00016321295
0.00039028173
0.00029935286
1.2563823e-05
0.00021441687
0.00054967691
-0.00015194994
-0.00012207605
0.00068693155
-0.00020907621
-0.00040792146
0.0005679914
-4.6852845e-05
-0.00042160867
0.0001456762
8.817141e-05
-0.00025173671
-0.00029623877
0.00011681593
-6.324736e-06
-0.00042934342
2.2922009e-05
0.00018804363
-0.00057897204
0.00018736509
0.00038024456
-0.0004911046
0.00021984708
0.00045451422
-0.0001191322
0.00017243261
0.00030566105
0.00034353263
9.3783282e-05
0.00055127956
1.2617099e-05
0.00013595468
0.0003623263
6.7218753e-05
0.00014339273
-5.8773438e-05
-1.606787e-05
-0.00020033866
-8.7352567e-05
-0.00011015635
-2.6310266e-05
-0.00010742639
1.2422703e-05
0.00027218804
-0.00032793085
7.0689545e-06
-6.0468626e-05
-8.8273756e-05
-3.6663428e-05
-0.00016108513
-7.4830083e-05
-9.686293e-05
-8.491641e-05
0.00021543334
2.3161536e-05
-4.8343906e-05
0.00042955046
6.4803721e-05
2.5870541e-05
-3.1002154e-05
2.069238e-05
1.014994e-06
-3.4433299e-05
0.00021939301
7.2564947e-05
0.00043918042
7.89102e-05
0.0001913207
0.00018383653
-3.8490658e-06
0.0001006271
-4.7484395e-05
-0.00012470179
-0.00016017343
-0.00014971789
-0.00020342098
-0.00018853583
-0.00037957341
-0.00014451749
-6.1542526e-05
-0.00026260602
-0.00012164768
5.5390807e-05
-9.1139214e-05
-0.00023482309
0.00014212652
0.00014201417
-9.833246e-05
9.7108679e-05
0.00045469374
-2.4863365e-06
1.8613909e-05
0.00066725124
5.1325219e-05
9.5292644e-05
0.00052120675
-1.4824256e-05
0.00021192006
1.8214009e-05
-7.2676913e-05
0.00012309517
-0.00012466616
-0.00019220804
6.0323981e-05
-0.00019152489
-0.00012197047
5.0551406e-05
-0.00049082704
-0.00012655748
-0.00010548045
-0.00031941955
-1.5350059e-05
-0.00016746627
-8.185627e-05
-0.0001046938
-7.0559619e-05
0.00023526639
-6.159497e-05
0.00051820589
-6.6329418e-05
0.00024562534
3.752749e-05
-2.9911881e-05
7.409567e-05
0.00013942966
-0.000110031
-0.00015241103
0.00012252362
1.4221763e-05
-9.1694074e-05
-0.00016922664
-8.0034181e-05
2.4789927e-05
-0.00040700426
-7.7903312e-05
-0.00011584997
6.0746404e-05
-2.9937013e-05
-0.00028598224
0.00011094043
-1.1836683e-05
-0.00010801607
1.3258118e-05
-9.7108348e-05
0.00016957876
0.00013980187
-5.0876199e-05
-8.6821569e-05
0.00030720988
-9.9239919e-05
-0.00024562962
0.00017693401
4.1506698e-05
9.0078099e-05
9.5440183e-06
9.9809526e-05
0.00024583448
5.337858e-05
-5.8542046e-05
0.00014404431
0.00013167774
-6.8547982e-05
5.2298068e-05
-5.7565033e-05
6.9230002e-05
-1.4920414e-05
-0.00035867571
5.369004e-05
-0.00011310617
-0.00023084209
5.439774e-05
-0.00024622734
7.1862434e-05
-6.9326144e-05
-0.00023137181
9.588117e-05
-2.3614062e-05
-9.348727e-05
0.00024065836
-1.0120537e-05
9.4788594e-05
0.00042039933
8.6190392e-05
0.00029998656
0.00030870667
4.164784e-05
0.00020343062
0.00014454604
-6.0640693e-05
0.00010601475
5.5597205e-05
-0.00012814623
7.9565947e-05
-0.00012387231
-0.00012787541
7.4427449e-05
-0.00048148544
-2.8136485e-05
-0.00010837989
-0.00020269162
7.621228e-05
-0.00031803887
0.0001509025
-2.5643402e-05
-0.00023131595
0.00013571068
-3.9728522e-05
0.00029703622
-3.5760585e-05
6.8777416e-05
-0.00010258968
0.00017473594
-0.00013981049
0.00024088424
-0.00015219084
4.8991524e-05
-0.0001829332
-0.00034615412
-0.00018477405
-0.00034035722
-0.00016073181
-0.00026308634
-0.00014174499
-0.00023516037
-0.00012284797
-9.2244308e-05
-9.2300249e-05
9.2937564e-05
5.1739999e-05
0.00016456433
-5.124774e-05
0.00011679471
-0.000145517
0.00014236025
-0.00021429054
0.00025746563
-0.00022572815
0.00017705823
-0.00022467729
-0.00015188246
-0.00023184653
-0.00037933826
-0.00015024693
-0.00035196334
3.169559e-06
-0.00034597128
7.4360257e-05
-0.00019903054
5.45091e-05
9.7444342e-05
0.0001307598
0.00028136644
0.00011659799
0.00032515246
6.6053489e-05
0.00039996678
-5.6487693e-05
0.00030857423
-0.00011306587
-0.00015161238
-0.00011756247
-0.0004022222
-8.0622624e-05
-0.00031192771
-7.6690685e-05
-0.00022086145
-6.4446867e-05
-2.862269e-05
-5.9329539e-05
0.00012957642
1.8123945e-05
-0.00011786893
0.00015038213
9.9214593e-06
-9.9796534e-05
0.00010405461
-3.8724739e-06
-0.0001015465
0.00013806411
-4.4747467e-05
-0.00010537568
0.00015835243
-3.6733963e-05
6.006088e-05
-7.812213e-05
-3.2935713e-05
9.2563214e-05
4.8713652e-05
-1.2316556e-05
1.6747011e-05
0.00015681312
-5.715774e-05
-9.0761199e-05
0.00014563974
-3.4224866e-05
-0.00017594226
0.00013774575
-5.6451518e-06
-4.6945649e-06
-0.00022682357
-2.6644364e-05
-1.3013429e-05
6.7409246e-05
-0.00014141129
-7.6359202e-05
0.00010785923
-9.234176e-05
-0.00012445006
0.00012198039
3.3754452e-05
-0.0001015968
3.3979945e-05
7.231327e-05
-2.7963358e-05
5.0629078e-06
7.1078894e-05
-4.7988549e-05
0.00012224143
5.2759608e-05
-6.0027145e-05
0.00012285099
-1.2529586e-05
-4.3283965e-05
8.7100018e-05
-8.8746192e-05
1.7205029e-05
6.3452674e-06
-0.00013413944
1.6374256e-05
6.9468642e-05
-0.00011357127
-4.9191716e-05
0.00012495709
-5.5782776e-05
-0.0001321073
0.00013684557
-1.8574838e-05
-0.00013892246
0.0001038519
-2.5726348e-05
1.2817274e-05
-0.00014217289
5.3059147e-06
8.2500599e-05
2.4767524e-05
5.7886885e-05
0.00010941141
8.3211746e-05
4.4262421e-05
7.8499977e-05
0.00014444424
2.6020784e-05
4.1260115e-05
0.00014270474
-6.2466756e-05
0.00012264721
-5.566075e-05
-0.00019962087
0.00048479058
4.2154545e-05
-0.00029230247
0.0004392146
9.7198191e-06
-7.9410079e-05
2.2027708e-05
-2.1779717e-05
-0.00011536459
0.00044584584
-8.0718828e-05
-1.3314393e-05
0.00031150377
-4.0628971e-05
0.00032567786
-0.00032498143
-4.4322711e-06
0.00043837894
9.4536717e-06
7.1147257e-05
0.00013387565
0.00056328568
4.0009634e-05
-0.00020021229
0.00055725513
3.5020785e-05
-0.00011484025
9.5217903e-05
6.770732e-05
0.00021218283
-0.00062108083
5.5844732e-05
0.00016489674
0.00026011372
-7.8185003e-05
-0.00016777442
0.00063435736
-6.8265697e-05
-0.00032210615
0.00035241539
0.00014054654
-0.00020600614
-7.4456082e-05
0.00017990301
-1.2170202e-05
-0.00013307888
7.8598447e-05
0.00010362289
0.00012343781
2.2493391e-05
0.00010194144
0.00021728471
7.0460686e-05
9.3617313e-05
0.00020705413
-9.906616e-05
0.00021937199
-7.4192477e-05
-0.00019716686
0.00025235998
9.7437027e-06
-0.00018233926
-8.6027535e-05
0.00055395985
-0.00013746809
-0.00032330372
0.00047087969
-8.5865257e-06
-0.00023856069
8.3665037e-05
5.2259764e-05
6.3301601e-05
-0.00045242733
3.1314151e-05
0.00021804078
-5.5270504e-05
0.00011266393
0.00035940231
0.0001164655
4.5231792e-05
0.00032390603
0.00043654994
-8.4176807e-05
0.00015917999
0.00055456944
-0.00015335539
0.00050376641
-0.00020932211
1.4340403e-05
0.00047465168
6.3017257e-05
3.9758278e-05
0.00035871094
3.9017912e-05
2.228694e-05
-8.1316928e-05
1.0659626e-05
4.9401238e-05
0.0003108148
0.00012033944
0.0002178261
4.344497e-05
0.00010670289
-6.6744262e-05
-0.00013188169
5.4807204e-05
-6.4630796e-05
-7.4360763e-05
-1.5161951e-05
2.6244008e-05
0.00049861485
-3.04243e-06
0.00011910075
0.00048065614
4.8545985e-05
0.00021429869
-5.2118821e-05
7.2831166e-05
-0.0001740262
-0.00011474656
0.00010138362
-0.00013126691
0.00022706822
6.9196404e-05
-5.2775964e-05
0.00061918339
-6.7166047e-05
-5.3809423e-05
0.00028118403
-5.2436979e-05
-0.00013274597
-9.9155486e-05
-9.9785039e-05
-0.00024172599
-9.3523773e-05
-7.5092582e-05
-0.00020571664
-3.5715712e-05
1.4964876e-06
1.7741186e-05
-0.0001846559
-5.6340289e-05
0.00022507826
-0.00013880659
4.0191187e-05
0.00013273042
-5.9546706e-05
7.5215742e-05
7.4141302e-05
-6.5154434e-05
0.00018481247
7.1594627e-06
0.00047502199
0.00013109545
0.0001308421
0.00018206935
9.2450794e-05
0.00019885196
-7.5659265e-05
-0.0001008936
-0.00013113404
-9.386941e-05
-0.0001505424
-1.8360162e-05
-0.00024797114
-4.6630722e-05
0.00011654858
-2.9495896e-05
-4.2974053e-06
2.8097473e-05
0.00031611022
0.00010419702
-6.5424916e-05
0.00049526604
9.1230822e-05
0.00046933078
-9.7318707e-05
0.00014215041
0.00026150728
4.1082102e-05
0.00020480117
0.00016755315
1.8476019e-05
-9.2169756e-05
0.00026223227
-3.2356508e-05
2.3127913e-05
8.5498373e-05
2.998458e-05
0.00026311479
-0.00022402038
-5.0424823e-05
4.2595335e-05
6.1025596e-05
-2.324834e-06
-0.00029005588
0.00026154478
-1.5090993e-05
-0.00011745637
0.00024274376
-1.3836755e-05
0.00013176093
0.00016135064
1.9212003e-05
2.9823407e-05
-7.9187833e-05
2.9766617e-05
-0.00018351426
0.0001475069
-7.4090904e-06
-0.00012648783
0.00022076631
4.908501e-05
0.00014120629
0.0003756013
-8.2654085e-05
0.00032397446
0.00014402262
-0.00011415475
0.00027319682
9.6770185e-05
-7.5918036e-05
-6.4355922e-05
0.00028062509
1.7093911e-05
-0.00021309153
0.00015433213
1.3085507e-05
-3.4697167e-05
-0.00035791439
-7.4462014e-05
2.8044034e-05
-0.00025692194
3.1760093e-05
-0.00024366131
0.00025877035
-5.6732246e-05
-0.00045042464
0.00024923444
-2.1435147e-05
-0.00011704508
0.00012859578
5.4694488e-05
0.00013323863
-0.00022300491
9.414985e-05
0.0001428235
-0.00010233386
-0.00011105651
2.4415456e-05
2.9435483e-05
-0.00013277227
-9.2731572e-05
-0.0001944845
3.5523888e-05
-0.00024349769
0.00012595518
7.152732e-05
-0.00021699285
0.00018823448
7.5727487e-05
-0.00012551895
0.0002899825
7.4081103e-05
0.00031918735
-1.1136115e-05
0.00013196151
2.6956093e-05
0.00013793451
2.1769658e-05
0.00022128438
2.6691561e-05
9.6719288e-05
2.7130265e-05
-0.00027875835
-3.3316796e-05
-0.00035395557
-2.4508977e-05
-0.00022127088
-1.2884897e-05
-7.89309e-05
-2.2444179e-05
-4.4540858e-05
3.4660358e-05
-0.00021947417
0.00014748548
-0.00018303356
5.981855e-05
-0.00010627166
-1.5125972e-06
0.00010290693
-4.7867835e-05
0.00015898758
-0.00013778619
9.0017362e-05
-5.8936893e-05
0.00017972025
-4.0924327e-05
0.0002284688
-4.4663365e-05
-0.00010653034
-1.9745684e-05
-0.00034665807
5.7566053e-05
-0.00020983019
0.00017645157
-1.6980166e-05
0.00018714422
0.0001523908
7.5822798e-05
-6.0254588e-06
1.4648361e-06
-4.1430413e-05
-0.00012341661
-3.1021238e-05
-9.4039564e-05
-0.00026751246
-7.5555759e-05
-0.00031353863
9.1358716e-05
-0.00027614396
7.4149131e-05
-0.0001474618
9.6853469e-05
0.00014310286
-2.8695491e-05
0.0001394494
-8.7950334e-05
-7.8023339e-05
0.00016876198
-0.00010428501
-7.3780199e-05
0.00013095234
-0.00013269528
-7.824061e-05
0.00010933014
-0.00014302334
-6.5047023e-05
0.00011566177
-0.0001580731
5.7051559e-05
-4.3040361e-05
-0.00010842024
2.3126291e-05
0.00011969955
-9.4123375e-05
-7.7239646e-05
0.0001401731
-9.4364929e-05
-0.00017242262
0.00013547765
-7.2239619e-05
-0.00019849536
8.0119009e-05
-5.4325848e-05
6.2411509e-05
-0.00029105016
1.5806605e-06
7.1386839e-05
1.5890913e-05
-0.00016456661
-1.3208496e-05
0.00010373565
-0.0001124241
-0.00010582933
0.00012625802
-0.00019108825
0.00015778327
-0.00023836764
0.00011850351
-0.00031524952
0.00013068894
-0.00032558986
8.9249853e-05
-9.0316384e-05
-0.00011946753
-0.00028601872
-1.2959788e-05
0.00010013337
-0.00030720346
-5.1625338e-05
0.00028696872
-0.0002490094
-5.6028596e-05
0.00029264061
1.4536855e-05
-7.7981988e-05
0.00018388294
0.0001525113
-6.3678967e-05
7.1648124e-05
0.00016193712
-7.8682206e-05
-2.444497e-05
0.00015287212
-5.4676348e-05
-5.7983728e-05
0.00014971629
-6.1087842e-05
-4.8138404e-05
0.00011278184
-8.0914119e-05
-8.8585644e-06
6.801907e-05
-8.3421934e-05
5.0378215e-05
2.7033682e-05
-0.00015175875
0.00013601016
-0.00014371147
-0.00019515415
0.00048479712
-0.00010803902
-0.00031540084
0.00044763728
-0.00014890879
-0.00015911141
4.3621466e-05
-9.0738277e-05
-3.9656906e-05
4.0605133e-05
-0.00013144832
0.00013898289
2.0139916e-05
-0.00012374691
0.00039182072
-0.00027428783
-2.6022632e-05
0.00034414407
0.00024564648
-7.1230173e-06
-4.3797128e-05
0.00058289289
-1.4768964e-05
-0.00033745643
0.00049597462
-3.1816883e-05
-0.0001705081
-7.1051625e-06
-1.2016836e-05
0.00025487004
-0.00067230977
1.1726209e-05
0.00038426425
-2.3566266e-05
-0.00016812204
7.9665835e-05
0.00056064933
-0.00022058097
-0.00026679234
0.00061326273
-0.00043272962
0.00050362356
-0.00033384623
9.8218564e-05
-0.00019360146
1.2937563e-05
-0.00017850558
3.2656545e-05
0.00011195811
-4.0115098e-05
-0.00061089757
8.7422212e-05
0.00011601047
-0.00063251608
-2.7979801e-05
0.00033761757
-0.00058785183
-6.5103938e-05
0.00038453927
-9.0641451e-05
-7.9211472e-05
0.00037047038
0.00024661639
-8.8622722e-05
8.7427773e-05
0.00056695332
-6.9713837e-05
-0.00016996126
0.00049990171
-5.8326402e-05
-0.0002231658
0.00041605597
-0.00010047121
-0.00014089616
0.00019984271
-0.00012409872
2.2376903e-05
2.4927346e-07
-0.00017968008
0.00017566071
-7.4833976e-05
-0.00020477154
0.0004371617
-0.00033481293
2.2252416e-05
0.00047598835
4.9573601e-05
4.2760406e-06
0.00039092855
0.00011370301
-5.0017924e-05
-5.0255171e-05
0.00015883023
8.6299448e-05
-0.00015542832
0.00018005552
0.00026838983
-0.00019139702
0.00013614944
1.8721652e-05
-0.00010470601
0.00013489357
-3.8837302e-05
0.00015902403
0.00012901946
-8.4955525e-05
0.0005752187
5.0749997e-05
4.742195e-05
0.00039883126
1.3311881e-05
0.0002583497
-0.0003296731
0.00018447136
-0.0002591757
-0.00011532643
6.1925669e-05
-0.0002088767
-1.7501574e-05
1.283271e-05
-7.6833478e-05
0.000505682
-0.00014424194
-0.00014054699
0.00062453926
-0.00012008628
0.0003833778
-6.2611472e-05
-3.4348835e-05
1.0269042e-05
-5.8446464e-05
0.00015589329
-0.00019509689
2.5788903e-05
3.6112128e-05
-0.00049396978
4.3044568e-05
-5.0916278e-05
-0.00046318386
-7.0880657e-06
-0.00012379618
-0.00034385252
1.3693068e-05
-0.0001148137
-0.00017128713
0.00020275865
1.4174451e-05
0.00011505387
9.5025158e-05
-7.8029698e-06
0.00050325322
-1.5216084e-05
-6.9998051e-05
0.00043032711
-1.8772725e-05
-0.0001086239
0.00022955754
0.00017849356
1.0838168e-05
-4.6611356e-05
0.00012269459
2.5973392e-05
-0.00010221147
0.00019152253
-3.3422094e-05
-7.7493613e-05
0.00015328594
0.00034613658
-3.9715689e-05
0.00017136942
0.00026359316
8.2107882e-05
0.00031172696
0.00016506668
0.00010398035
9.2200383e-05
0.00016320485
-2.6289954e-05
5.8789752e-05
-0.00015556755
6.3534446e-05
-2.8780814e-05
-0.00017309228
1.884101e-05
-0.00029895382
0.00015776009
5.3820898e-06
-0.00034448104
0.00013816213
5.1298138e-05
-0.00016751224
0.00033783707
4.6576084e-05
5.7877579e-05
0.00011060257
8.2050881e-05
6.4534804e-05
-0.00039183518
8.5271482e-05
-0.00017404528
0.00010316773
1.267683e-05
-0.00031667266
0.00025901456
-8.4803751e-05
-9.3207906e-05
0.00027583591
-7.627276e-05
8.9864827e-05
0.00032731178
0.00035895727
3.8367312e-05
0.00018409894
0.00015760341
-7.2936763e-05
0.00021167475
-7.6332765e-05
-0.00015480762
-0.00011135528
-0.00011898352
-0.00050973623
9.0177303e-05
-0.00013340491
-0.00043531437
-7.0180333e-05
-0.00013936127
-0.00028330955
-7.6021756e-05
-0.00019499948
-0.00013933016
7.8375727e-05
-0.00017972018
5.6694205e-05
0.00013723021
-4.370711e-05
0.0002814041
-2.5220468e-05
3.8548863e-05
0.00023054708
-1.5248214e-05
0.00021039486
-4.9843265e-05
0.00014307869
0.00031115709
-0.00014625672
7.0410442e-05
1.5814071e-05
0.00022014947
4.8709558e-05
-0.00027766924
0.00027631477
1.3756025e-05
6.8801235e-05
-1.1470018e-05
0.0001731447
0.00011740455
0.0002404648
0.00011951623
0.00026670024
0.00016366098
-3.8261035e-05
0.00017652399
-0.00036516475
0.00012049465
-0.0003283889
9.6475265e-05
-0.00027162107
6.8509417e-05
-1.7599501e-05
6.1371335e-05
-1.021572e-05
0.00013787915
-0.00035853632
0.0001039709
-0.00035797038
0.00016242033
-0.00022526856
0.00012480014
-2.6332591e-05
2.9032107e-05
0.00016319299
0.0001426234
0.00025930248
0.00042631386
0.00037314104
-0.00012138048
4.1528275e-05
-0.00012055741
-0.00022524284
7.9083244e-06
-0.00033393749
1.252933e-05
-0.00034300079
-5.4444059e-05
-0.0002291793
-5.5662456e-05
-1.2080837e-05
-5.9110972e-05
0.00013986269
-1.5436014e-05
1.1589754e-05
2.873904e-06
-0.00016822747
0.00012491922
-9.4703403e-05
0.00022077452
1.1642335e-05
0.00026682249
0.00022354642
-0.00013861834
0.00015634373
-0.00010125637
-0.00025535826
0.00010632414
-8.7667751e-05
-0.0001701371
-0.00017377052
-4.0457752e-05
-1.2319154e-05
-0.0002674655
-3.1656954e-05
0.00010907187
-0.0002144629
-6.2416515e-05
0.00025578336
-0.00022872852
-2.6245242e-05
0.00020406383
1.3310076e-05
-5.2698603e-05
3.9233047e-05
0.00014227017
-6.9313093e-05
-0.00013873612
0.00014836391
-4.1202041e-05
-0.00023313754
7.3948758e-05
-2.8370115e-05
-6.0641531e-07
-0.00027656213
4.4899697e-05
8.1238077e-05
-0.00013649263
-0.00011030686
5.760929e-05
-8.9799542e-05
-0.00019590919
8.5686944e-05
1.464141e-05
-0.00022086829
-3.3913278e-05
4.0516444e-05
-3.2083009e-05
-0.00026402803
1.7648798e-05
0.00015822677
-0.00027679392
2.594081e-05
0.00031561131
-0.00028138971
4.0477106e-05
0.00023208479
-1.1862755e-05
2.9862289e-05
-1.5459032e-05
0.00013877125
2.674502e-05
-0.00020842382
0.00012113503
1.3499121e-05
-0.00026113834
2.1253093e-05
-3.1454093e-05
-0.00015021007
-0.00019636491
8.9516586e-07
-5.5519556e-06
-0.00027795231
4.5748931e-05
0.00010228632
-0.00026920563
4.9074375e-06
1.0414846e-05
-5.4704058e-05
-0.00029674117
0.00039533237
-5.0286489e-05
-0.00027655504
-1.5425348e-05
-4.7345425e-05
-0.00010302246
-0.00047765586
3.9614484e-05
4.7524128e-05
-0.0005896669
4.0206486e-05
0.00018398058
-0.00049226838
1.7602116e-05
0.00044788152
-0.00055375663
3.5104549e-05
0.00049543864
-6.2096447e-05
2.0726389e-05
0.00012755455
0.00047950636
1.5878942e-05
-0.00026061869
0.00049988698
4.8332818e-06
-0.00016745138
-5.3952101e-05
2.2716714e-05
0.00013808058
-0.00061376597
4.3398098e-05
0.00030902615
-0.00036236847
-0.00011319178
0.00039308646
-0.00024703198
-0.00049399735
0.00069679114
-5.148734e-06
-0.00037491435
-5.6225748e-05
-9.3483134e-06
-7.4316067e-05
-0.00057775996
-1.4846151e-05
0.00014199403
-0.00053560715
-2.2600804e-05
0.00039466869
-0.0006179843
4.7084523e-06
0.00042431527
-0.00011639337
-1.3738689e-05
-7.237323e-05
0.00059419812
-2.8452207e-05
-0.00044765721
0.0005455153
-0.0001074227
-0.00036086772
-4.6552843e-05
-0.00011945476
-0.00015082494
-0.00048419763
-4.6308786e-05
-2.4654282e-05
-0.00059960618
1.5803129e-05
0.00014143684
-0.00059807493
-4.1993366e-05
1.7487878e-05
-0.00020044913
0.00015293647
0.00029805224
-6.0827386e-06
0.00019916813
-5.9898934e-05
0.00011194493
7.6719694e-05
-0.00025266654
5.6289347e-05
7.2911625e-05
-0.00049237848
8.6575177e-05
8.478356e-05
-0.00043293302
6.4942158e-05
-0.00023228694
-0.00013127506
2.9482516e-05
-0.00013141841
-7.8789102e-05
4.4843595e-05
-3.0220461e-05
0.00039197084
3.7087574e-05
6.3808977e-05
0.0004091746
9.9948277e-06
0.00028037618
-0.00028599893
0.00019995099
3.804485e-05
-0.00039370558
8.4196611e-05
-4.1856472e-05
-0.00020511224
-6.4522207e-05
0.00028457685
-7.7588803e-05
4.9241066e-05
0.00066662116
6.7178282e-06
0.00016033222
-9.4163429e-05
-3.0108899e-05
3.2857732e-05
-0.00042367674
-3.3696795e-05
3.9023292e-05
-0.00044891836
-7.9161278e-05
-0.00023369749
-0.00013172531
-1.0779553e-05
-0.00012955464
-6.9010048e-05
-5.6501018e-05
-7.9783525e-05
0.00054316921
-1.3958291e-05
2.8834507e-05
0.00046078438
-4.2659839e-05
0.0001386311
-7.831182e-05
0.00010045594
3.454635e-06
-0.00027958031
5.3253728e-05
-8.2863862e-05
-0.00035136402
2.9598869e-05
-0.00021176856
-0.00031487636
-1.0079423e-06
-0.0002563319
2.2335525e-05
0.00024829754
4.490982e-05
8.6952753e-05
0.00015483091
6.0078141e-05
7.7469906e-05
6.2660531e-05
-0.00019813583
1.1349715e-05
5.136276e-05
-0.00047254434
5.4998073e-05
2.5078865e-05
-0.00042598091
3.8172794e-05
-0.00014377401
4.0320791e-05
2.6391182e-06
-0.00032839356
0.00011778223
3.9346365e-05
-0.00012622162
0.00018846936
4.7905626e-05
0.00011785524
0.00015985947
8.7289158e-05
0.00012497583
-0.00027718993
6.9341885e-05
5.0184944e-05
-0.00035471083
4.8472966e-05
-5.0444664e-05
-7.7135212e-05
-0.00011215117
0.00021546881
-5.7609386e-05
0.00016633409
0.00038226258
6.6692063e-06
2.4899505e-05
0.00015505087
-1.7602402e-05
-8.0277097e-05
-0.00035080748
-3.7872978e-05
-2.2278909e-06
-0.00053534879
-6.7640526e-05
-9.3286146e-05
1.7701539e-05
2.0007139e-05
-0.00024402014
0.00022345736
-4.5032042e-06
-1.3586644e-05
0.00030552719
-1.801195e-05
0.00020132099
0.00021848775
1.2140772e-05
0.00012705115
9.9338616e-05
3.969809e-05
9.7182846e-05
-0.00027007315
9.0771574e-05
9.5403454e-05
-0.0003124774
1.1602317e-05
3.7479469e-05
-0.00021320414
-2.9992222e-05
-0.00022073302
-9.5894421e-06
0.00015461831
7.696057e-06
0.0003236379
1.0574785e-05
0.0002581413
3.1021751e-05
-8.3230851e-05
4.5351801e-05
-0.00044778862
5.9071523e-05
-0.00038245442
7.1461862e-05
-0.00023793802
4.1775249e-05
-1.1620524e-05
2.3523212e-05
0.00021229648
7.3821622e-05
3.8203259e-05
8.7419547e-07
-0.0001985859
4.4498653e-05
-0.00020794988
5.7028917e-05
3.6551035e-05
0.00027556608
-1.4683971e-05
0.00038098087
-7.0921316e-05
9.5443169e-05
-5.7361457e-05
-0.00035962858
-6.7747709e-05
-0.00035246642
-4.3904682e-05
-0.00017256067
-1.2110851e-05
8.0623187e-05
-6.7676418e-06
0.00027121107
1.2463853e-05
0.00036206879
1.1354793e-05
0.0002261674
-9.2525414e-06
6.245056e-05
7.2013946e-05
6.1482731e-06
0.00010992063
8.9616749e-06
-0.00018184783
0.0001097191
-2.7582056e-05
-0.00016803761
-0.00013390502
3.2918898e-05
-9.1821115e-05
-0.00018437214
6.8499613e-05
7.881531e-05
-0.00028483068
8.1577422e-05
0.00019390569
-0.00021780783
4.0163207e-05
0.00028516246
-0.00018432296
6.5842325e-05
0.00021010845
-4.2699336e-05
6.4173846e-05
-2.2542426e-05
0.00011251062
4.964272e-05
-0.00020143971
8.8903447e-05
4.8972547e-05
-0.00016959093