/*--------------------------------*- C++ -*----------------------------------*\
| =========                 |                                                 |
| \\      /  F ield         | OpenFOAM: The Open Source CFD Toolbox           |
|  \\    /   O peration     | Version:  v2012                                 |
|   \\  /    A nd           | Website:  www.openfoam.com                      |
|    \\/     M anipulation  |                                                 |
\*---------------------------------------------------------------------------*/
FoamFile
{
    version     2.0;
    format      ascii;
    class       volScalarField;
    location    "40/bottomWater";
    object      p_rgh;
}
// * * * * * * * * * * * * * * * * * * * * * * * * * * * * * * * * * * * * * //

dimensions      [1 -1 -2 0 0 0 0];


internalField   nonuniform List<scalar> 
1460
(
0.20934898
0.21260526
0.20965598
0.21173998
0.2188384
0.21417452
0.21979248
0.22160504
0.21985541
0.22085985
0.22003944
0.22345286
0.22111725
0.22572357
0.22917676
0.22918601
0.22576382
0.22116747
0.22347609
0.22005172
0.22085405
0.21984895
0.22159757
0.21978649
0.21415884
0.21883517
0.2117372
0.20965296
0.21260195
0.20934581
-0.17648015
-0.18569425
-0.19408392
-0.18045086
-0.1424269
-0.14805505
-0.13263169
-0.13065988
-0.1449824
-0.16308499
-0.185311
-0.19578279
-0.18161277
-0.17032103
-0.13823407
-0.13817063
-0.17015721
-0.18120536
-0.19566923
-0.18527223
-0.16308588
-0.14498813
-0.13066322
-0.13262816
-0.14803422
-0.14242111
-0.18044977
-0.19408438
-0.18569504
-0.1764808
0.075051717
0.068237634
0.057190175
0.037537873
0.041318252
0.053999007
0.05108255
0.044690632
0.047829805
0.027566442
0.051027995
0.058281395
0.054502671
0.043781103
0.046037114
0.046056341
0.043781813
0.054717695
0.058252405
0.051014107
0.027536395
0.047800963
0.044674205
0.051071137
0.053997794
0.041312759
0.037531515
0.057184016
0.068231471
0.075044874
-0.02894379
-0.026222256
-0.026940399
-0.054996083
-0.053074607
-0.042176213
-0.023849062
-0.017533701
-0.044640629
-0.047558589
-0.047708415
-0.033762402
-0.066187398
-0.05053665
-0.021174372
-0.021192186
-0.050703827
-0.066866574
-0.033989101
-0.047823835
-0.04762423
-0.044680206
-0.017562025
-0.023862942
-0.042185006
-0.053083082
-0.055001321
-0.026947129
-0.026227882
-0.028949817
-0.0005891557
0.0001448271
0.0040138418
0.0052911195
0.014012792
-0.0070497688
-0.0045173819
-0.0020086477
-0.010257567
0.0081464947
0.01326293
0.0039203035
0.018359866
-0.01002499
-0.0026861817
-0.0027266407
-0.010235401
0.018025764
0.0036897615
0.013121363
0.0080687624
-0.010305575
-0.0020415951
-0.0045376994
-0.007065223
0.013999797
0.0052811134
0.004005845
0.00013820675
-0.00059544364
0.21417772
0.21516007
0.21917203
0.21550779
0.21658945
0.22273512
0.2193795
0.22128617
0.21956087
0.2207134
0.22593384
0.22151414
0.22119259
0.23135012
0.22579123
0.22580386
0.23134001
0.22119588
0.22151277
0.22592795
0.22069927
0.21954642
0.22127522
0.21937322
0.22273101
0.21658735
0.21550502
0.21916883
0.21515718
0.21417465
-0.16526759
-0.18420054
-0.19372317
-0.19519483
-0.17887045
-0.14748043
-0.15497964
-0.16311357
-0.18205921
-0.1994861
-0.20042028
-0.20301168
-0.19448425
-0.15444692
-0.1442906
-0.14430707
-0.15444914
-0.1944134
-0.20297552
-0.20040734
-0.19947877
-0.18206042
-0.16311597
-0.15497811
-0.14747664
-0.17886211
-0.19519373
-0.19372324
-0.18420111
-0.16526761
0.039487406
0.03980793
0.070994892
0.052130959
0.051062092
0.03351184
0.047079689
0.037018422
0.037922951
0.042315869
0.074971758
0.053261304
0.038615503
0.023175271
0.046708911
0.046712729
0.023139741
0.038619132
0.053219398
0.074954896
0.042284735
0.037905689
0.037003727
0.04706856
0.033504953
0.051060849
0.052123268
0.0709893
0.039802598
0.039481605
-0.039755602
-0.054590073
-0.019083525
-0.035740658
-0.065740059
-0.054130227
-0.047000866
-0.03152854
-0.068713679
-0.043016117
-0.033615521
-0.031261615
-0.067790985
-0.067744007
-0.040909749
-0.040928478
-0.067786222
-0.06791826
-0.031343623
-0.033666142
-0.043059557
-0.068737691
-0.031550988
-0.047014181
-0.054141242
-0.065757648
-0.035743229
-0.019095051
-0.054594912
-0.039760363
0.0040707246
0.0093305152
0.017201865
0.013149579
0.019535496
0.0062366856
-0.0088938688
-7.961633e-05
0.0040036634
0.0071711664
0.01842952
0.012068487
0.014977548
0.0022353447
-0.0081738606
-0.008228131
0.0021554798
0.014847352
0.011965616
0.018351665
0.0071194097
0.0039696736
-0.00010461497
-0.0089111854
0.00622294
0.019522396
0.013139123
0.017193269
0.0093222435
0.0040638555
0.21164616
0.21529514
0.21303882
0.21511628
0.21574011
0.22136761
0.21077128
0.21430907
0.21567792
0.21710304
0.21557705
0.2192864
0.21731662
0.21527287
0.21323198
0.21318119
0.21527955
0.2173136
0.21928479
0.21557575
0.21709964
0.21567341
0.21430541
0.21076708
0.22136459
0.21573742
0.21511418
0.21303688
0.21529171
0.21164416
-0.14880227
-0.16156967
-0.18360275
-0.19736974
-0.16404559
-0.16156132
-0.18526773
-0.18118937
-0.19469128
-0.18302214
-0.20016611
-0.20002951
-0.20687561
-0.19192958
-0.189737
-0.1897883
-0.19192628
-0.20687128
-0.2000335
-0.2001711
-0.18301018
-0.19469434
-0.18119469
-0.18527225
-0.16156305
-0.16404683
-0.19737012
-0.18360473
-0.16157057
-0.14880322
0.048875188
0.020510615
0.052475595
0.039714916
0.070981724
0.025744373
0.064603926
0.064362767
0.067017446
0.077318961
0.072328747
0.093697454
0.072655236
0.058164787
0.066799599
0.066979565
0.058051789
0.072696417
0.093648552
0.072320203
0.077292654
0.067007583
0.064360364
0.064594563
0.025737447
0.070973023
0.039711075
0.05247063
0.020506421
0.04886898
-0.03488917
-0.05359092
-0.050032696
-0.029169555
-0.072832835
-0.055343001
-0.048432602
-0.039517232
-0.032436856
-0.048499959
-0.030969786
-0.029990177
-0.031573619
-0.079256392
-0.047069881
-0.047037439
-0.079261594
-0.031626038
-0.030032155
-0.030998017
-0.048560583
-0.032448394
-0.039534164
-0.04844397
-0.0553516
-0.072839451
-0.029175832
-0.05003528
-0.053595297
-0.034892855
-4.9259348e-05
0.0096725607
0.016845935
0.015900684
0.028798672
0.0081238389
-0.0015528638
0.0059880115
0.0079815077
0.029084664
0.014236415
0.024715116
0.020932077
0.018288625
0.013576581
0.013430454
0.018253874
0.02086895
0.024663719
0.014200817
0.029065593
0.0079609741
0.0059617165
-0.0015676357
0.0081132719
0.028787915
0.015891155
0.016835051
0.0096635866
-5.6395224e-05
0.21648585
0.22285455
0.21484578
0.20958954
0.21131168
0.20928146
0.21487869
0.2147105
0.21258881
0.22096524
0.21942977
0.22035221
0.22331641
0.22238489
0.22582477
0.22581957
0.22237676
0.22331246
0.22034125
0.21941834
0.22096017
0.21257957
0.21470652
0.21487277
0.2092766
0.21130714
0.2095868
0.2148433
0.22285212
0.21648367
-0.13699613
-0.14166231
-0.17922803
-0.20220764
-0.17153466
-0.18278988
-0.19284529
-0.18834565
-0.19039543
-0.16586005
-0.17654884
-0.19618523
-0.19807041
-0.17874485
-0.15346075
-0.1534386
-0.17873539
-0.19807023
-0.19618919
-0.17656058
-0.1658613
-0.19040049
-0.18835051
-0.19285072
-0.18280139
-0.17153908
-0.20221
-0.17923069
-0.14166427
-0.1369973
0.047852014
0.019921392
0.034203633
0.041749778
0.076700749
0.048108312
0.071931416
0.07118175
0.058484336
0.038039306
0.040709154
0.064990811
0.060492908
0.038546979
0.044654361
0.04469324
0.038506206
0.060499189
0.064954667
0.040720222
0.038022648
0.058475501
0.071169878
0.071921902
0.048105411
0.076695677
0.041743254
0.034197592
0.019915351
0.047846296
-0.028533458
-0.046268429
-0.055904247
-0.030225246
-0.061114859
-0.051888841
-0.02947681
-0.018259556
-0.04631269
-0.048749808
-0.04801014
-0.032675665
-0.022192189
-0.089614936
-0.030540434
-0.030519926
-0.089574289
-0.022203552
-0.032691549
-0.048027908
-0.048775305
-0.046335961
-0.018275735
-0.02948809
-0.051894329
-0.061119498
-0.030231217
-0.055908817
-0.04627292
-0.028538151
-0.010118687
-0.0047346745
0.010027445
0.0032681649
0.017805527
0.0087163459
-0.0015360795
-0.00063940363
-0.0028165545
0.0056441738
0.018809459
0.0097891234
0.013726469
0.0063094564
-0.0040498607
-0.0040718415
0.0062897796
0.013691324
0.0097637652
0.018796079
0.0056188614
-0.0028345585
-0.0006568493
-0.0015490356
0.0087072915
0.017796131
0.0032586413
0.010018532
-0.0047425664
-0.010125844
0.21867678
0.22578855
0.21484666
0.21207924
0.2181743
0.21656794
0.21352934
0.21395258
0.22176233
0.21989969
0.22782683
0.21424897
0.21939286
0.21938969
0.21424321
0.22782408
0.2198982
0.22175963
0.21395092
0.21352867
0.21656631
0.21817369
0.21207979
0.21484889
0.22578962
0.21867629
-0.13060411
-0.13987297
-0.18053535
-0.20384343
-0.19336762
-0.19298185
-0.18668284
-0.17178292
-0.15037222
-0.13137983
-0.13954431
-0.19099254
-0.18504088
-0.18504534
-0.19099594
-0.13955616
-0.13138208
-0.15037891
-0.1717905
-0.18669234
-0.19298886
-0.19337371
-0.203849
-0.18053882
-0.13986972
-0.13060481
0.046152184
0.017897012
0.035856326
0.040765794
0.084912148
0.069975823
0.068877713
0.041110576
0.042007254
0.048390851
0.025490612
0.041710775
0.064380164
0.064369142
0.04169309
0.025484078
0.048385209
0.041997247
0.041093438
0.068869686
0.069967116
0.084901363
0.040754094
0.035844917
0.01788992
0.046147627
-0.02334312
-0.049048644
-0.0534654
-0.027963886
-0.025339639
-0.022441327
-0.032720445
-0.033103899
-0.024090431
-0.028264934
-0.039657036
-0.038274552
-0.01789893
-0.017917968
-0.03830006
-0.039679027
-0.028288075
-0.024106621
-0.033125696
-0.032729909
-0.022452795
-0.0253503
-0.027973369
-0.05346737
-0.049053213
-0.023348583
-0.010327864
-0.0030970319
0.0055211387
0.0061975275
0.013845247
0.015704756
0.0094969656
0.0090199893
-0.0053213487
-0.00060393231
0.0078898675
0.004470011
0.0071813893
0.007163215
0.0044560766
0.0078781367
-0.00062360202
-0.0053360969
0.0090072147
0.0094832995
0.01569119
0.013832304
0.0061846361
0.0055112459
-0.0031055336
-0.01033531
0.21867691
0.2257884
0.21484632
0.21207775
0.21816971
0.21655728
0.2135278
0.21395312
0.22176544
0.21990297
0.22782768
0.21424898
0.21939338
0.21939002
0.21424359
0.22782487
0.21990014
0.22176179
0.21395357
0.21352525
0.21655821
0.21816994
0.21207691
0.21484477
0.22578577
0.21867493
-0.13060279
-0.13987192
-0.18053411
-0.20384466
-0.19338047
-0.19302215
-0.18670207
-0.17178864
-0.15037663
-0.13138118
-0.13955998
-0.19099748
-0.18504534
-0.18504616
-0.19099769
-0.13955956
-0.13138369
-0.15037301
-0.17178404
-0.18670003
-0.19301458
-0.19338018
-0.20384543
-0.18053539
-0.1398766
-0.13060611
0.04615404
0.017899971
0.035860719
0.040774177
0.084926981
0.070004514
0.068896746
0.041109992
0.042008326
0.048393923
0.025491149
0.041704814
0.06437335
0.064366042
0.041691516
0.025483569
0.048386472
0.04200085
0.041084851
0.06887777
0.069981832
0.084914292
0.040764561
0.035855419
0.017895571
0.046147456
-0.023340851
-0.049044858
-0.05345815
-0.027950862
-0.025313006
-0.022401694
-0.032687285
-0.033099097
-0.024085154
-0.028269391
-0.039661969
-0.038288109
-0.017910763
-0.017919774
-0.03830253
-0.03967712
-0.02828337
-0.024099522
-0.033118188
-0.032710833
-0.022427267
-0.02533216
-0.027966101
-0.053468881
-0.049053829
-0.023349075
-0.010324448
-0.0030927929
0.0055288986
0.00621052
0.013865893
0.015731005
0.0095168922
0.0090338681
-0.0053186719
-0.00060780609
0.007891417
0.0044783276
0.0071787479
0.0071646176
0.0044626449
0.0078786594
-0.00062535982
-0.0053325305
0.009014914
0.0094976161
0.015708097
0.013846821
0.0061957105
0.005517239
-0.003101184
-0.010332949
0.2164863
0.22285436
0.21484501
0.20958367
0.2112884
0.20922636
0.21484721
0.21470417
0.21258308
0.22096533
0.21942385
0.22034653
0.22331472
0.22238545
0.22582295
0.22582249
0.22238199
0.22331342
0.22034318
0.21942023
0.22096324
0.21258087
0.21470424
0.21485407
0.20923867
0.21129303
0.20958404
0.21484369
0.22285387
0.21648493
-0.13699401
-0.14166072
-0.17922603
-0.20221496
-0.17159793
-0.18310513
-0.19290677
-0.18835845
-0.19039571
-0.16586972
-0.17657148
-0.19619544
-0.19807853
-0.17874515
-0.15346177
-0.15345068
-0.17874269
-0.19807866
-0.19619621
-0.17657033
-0.16586745
-0.19040053
-0.18835817
-0.19289468
-0.18302121
-0.17158115
-0.20221412
-0.17922772
-0.14166302
-0.13699642
0.047856124
0.019929054
0.034213937
0.041771913
0.076768045
0.048336297
0.071993469
0.071196447
0.058496192
0.038041026
0.040736067
0.064972255
0.060493872
0.038521479
0.044659545
0.044673396
0.038504203
0.060492812
0.064954484
0.040728968
0.038029244
0.058486061
0.071185158
0.071964787
0.048265926
0.07674019
0.041758799
0.034205261
0.0199213
0.04785065
-0.028526048
-0.046257653
-0.055886785
-0.030187189
-0.061017274
-0.051680161
-0.029398369
-0.018233043
-0.046319126
-0.048760935
-0.048028271
-0.03267439
-0.02220868
-0.089624776
-0.030547761
-0.030537222
-0.089605302
-0.022214169
-0.032691006
-0.048036397
-0.048777775
-0.046330569
-0.018255363
-0.029427705
-0.051746474
-0.061049375
-0.030203329
-0.055897855
-0.046266077
-0.028533591
-0.010110983
-0.0047251932
0.010044733
0.00330042
0.017863401
0.0088017609
-0.0014831287
-0.00061551005
-0.0028080831
0.0056430613
0.018813068
0.0097800205
0.013701124
0.0062798747
-0.0040698465
-0.0040822646
0.0062698499
0.013681334
0.0097616941
0.018798503
0.0056233933
-0.0028238602
-0.00063645064
-0.0015089249
0.0087689821
0.017838453
0.0032831169
0.010031691
-0.004734271
-0.010120104
0.21164679
0.21529631
0.21303997
0.2151163
0.21573909
0.22135505
0.2107664
0.21430593
0.21567777
0.2171019
0.21557854
0.21928687
0.21731375
0.21527395
0.21321381
0.21319098
0.21527648
0.217312
0.21928647
0.21557546
0.21710008
0.21567533
0.21430604
0.2107653
0.22135684
0.21573672
0.2151144
0.21303793
0.21529351
0.21164508
-0.14880096
-0.16156901
-0.18359781
-0.19736598
-0.16403975
-0.16158437
-0.18527616
-0.1811906
-0.19469191
-0.18303031
-0.20017416
-0.20003901
-0.20688562
-0.19192388
-0.1897608
-0.189782
-0.19192456
-0.20688228
-0.20004024
-0.20017528
-0.18302464
-0.19469559
-0.18119291
-0.18527678
-0.16157966
-0.16404412
-0.19736791
-0.1836004
-0.16156857
-0.14880141
0.048879481
0.020517198
0.052484091
0.039728809
0.07099274
0.02577753
0.064624109
0.06436633
0.067019349
0.077311007
0.072326068
0.093684092
0.072646595
0.058123424
0.066851348
0.06692389
0.058082124
0.072670155
0.093662692
0.072320334
0.077299119
0.067012958
0.064361978
0.064611031
0.025763648
0.070985906
0.039719767
0.052477171
0.020511002
0.048873697
-0.034882971
-0.053583538
-0.050021195
-0.029153318
-0.072799271
-0.055296967
-0.048400869
-0.0395054
-0.032427269
-0.048508821
-0.030984086
-0.030014355
-0.0316186
-0.079302398
-0.047078597
-0.04706741
-0.079305095
-0.031638743
-0.030036843
-0.031000519
-0.048537986
-0.032441973
-0.039519646
-0.048420234
-0.055318135
-0.072815184
-0.029164043
-0.050027919
-0.053589341
-0.034888237
-4.2456536e-05
0.0096806968
0.016857096
0.015917427
0.028822932
0.008159339
-0.0015270024
0.0060003985
0.0079837018
0.029065193
0.014217788
0.024681811
0.020885667
0.018236898
0.013518476
0.013459717
0.018224884
0.020860858
0.024657719
0.01419905
0.029054074
0.007967803
0.0059810356
-0.0015452825
0.0081412074
0.028808306
0.015905386
0.01684674
0.0096720828
-5.0054245e-05
0.21417839
0.21516095
0.21917352
0.21551228
0.21660126
0.22273868
0.21937981
0.22128576
0.21955899
0.22071198
0.22593476
0.22151723
0.22120299
0.2313561
0.22579831
0.225803
0.23135174
0.22120427
0.22151653
0.22593157
0.22070649
0.21955361
0.22128106
0.21937698
0.22273535
0.21659695
0.21550959
0.21917155
0.2151595
0.21417677
-0.16526603
-0.18419813
-0.19371727
-0.19517836
-0.17881144
-0.14746927
-0.15497509
-0.16311099
-0.18206017
-0.19948881
-0.20042131
-0.20300295
-0.19445719
-0.15444226
-0.14430132
-0.14430971
-0.15444905
-0.19443268
-0.20298953
-0.20041946
-0.19948772
-0.18206026
-0.16311467
-0.15497758
-0.14747147
-0.17882449
-0.19518288
-0.19371954
-0.18419978
-0.16526664
0.039490352
0.039812702
0.070998528
0.052134468
0.05105623
0.033511663
0.047080866
0.037015588
0.037917245
0.042301212
0.07495708
0.053238578
0.038602903
0.023146891
0.046690168
0.046695104
0.02313238
0.038608526
0.053226988
0.074947831
0.042287479
0.03790981
0.037008625
0.047073084
0.03350482
0.051051053
0.052128713
0.070993778
0.039807917
0.039486115
-0.03975124
-0.05458419
-0.019078918
-0.035752584
-0.065779323
-0.05413647
-0.046998801
-0.031534446
-0.068723773
-0.043046826
-0.033661192
-0.031329236
-0.067875942
-0.067810184
-0.040946781
-0.040954667
-0.067824209
-0.067923348
-0.03136611
-0.03368031
-0.043067151
-0.0687393
-0.031547746
-0.047009713
-0.054143693
-0.065777172
-0.035756076
-0.019084395
-0.054589014
-0.039755557
0.0040754419
0.0093343809
0.017204941
0.01314703
0.019525543
0.0062360906
-0.0088937915
-8.5908836e-05
0.0039887078
0.0071377932
0.018375498
0.011991135
0.014883734
0.0021517655
-0.0082282512
-0.0082490969
0.0021230812
0.014837046
0.011950117
0.018344936
0.0071139867
0.0039709133
-0.00010117673
-0.0089063355
0.0062267923
0.019518867
0.013140751
0.017198397
0.0093287284
0.0040696922
0.20934898
0.21260519
0.20965642
0.21174143
0.21884116
0.21417611
0.21979257
0.22160419
0.2198542
0.22086141
0.22004529
0.22347019
0.22115473
0.22574623
0.22918432
0.22918749
0.22575469
0.22117324
0.22347728
0.22004525
0.22086056
0.2198507
0.22160175
0.21978978
0.21416516
0.21883797
0.21173927
0.20965446
0.21260346
0.20934737
-0.17647809
-0.18569255
-0.1940814
-0.18044624
-0.14241989
-0.14805387
-0.13263185
-0.13066171
-0.14498466
-0.16308259
-0.1852939
-0.19571332
-0.18137493
-0.17025032
-0.13821683
-0.13820023
-0.17020667
-0.1812306
-0.19566828
-0.18528038
-0.16307465
-0.14498408
-0.13066255
-0.13262901
-0.14803827
-0.14241897
-0.18044684
-0.19408242
-0.18569386
-0.1764794
0.07505303
0.068239632
0.057190629
0.037537694
0.041313547
0.053994906
0.051079315
0.044683966
0.047824443
0.027549051
0.051011301
0.058282373
0.054631307
0.043776925
0.046021655
0.0460309
0.043783972
0.054716117
0.058280241
0.05099888
0.027535628
0.047821959
0.044676873
0.051075689
0.053994586
0.041310981
0.03753383
0.057186408
0.068235224
0.075048308
-0.028942189
-0.026220479
-0.026942104
-0.05500263
-0.053089893
-0.042185117
-0.023857398
-0.01754505
-0.044666637
-0.047600797
-0.047792361
-0.033925868
-0.066606536
-0.050702558
-0.021236957
-0.021247718
-0.050770599
-0.066845372
-0.034016547
-0.047846668
-0.047628966
-0.044689015
-0.017555731
-0.023865261
-0.042188698
-0.05309158
-0.055005371
-0.026946553
-0.026224813
-0.028946809
-0.00058657951
0.00014646414
0.0040127285
0.0052860477
0.014003321
-0.0070578437
-0.0045268279
-0.0020245233
-0.010286994
0.0080942599
0.013179311
0.0037628426
0.01814434
-0.010185394
-0.0027611124
-0.0027788687
-0.010256871
0.01803344
0.0036752193
0.013135915
0.0080627736
-0.010310032
-0.0020403568
-0.0045374737
-0.0070659
0.013997432
0.0052811764
0.0040079213
0.00014201256
-0.00059123892
)
;

boundaryField
{
    minX
    {
        type            fixedFluxPressure;
        gradient        uniform 0;
        value           nonuniform List<scalar> 
50
(
0.20934898
-0.17648015
0.075051717
-0.02894379
-0.0005891557
0.21417772
-0.16526759
0.039487406
-0.039755602
0.0040707246
0.21164616
-0.14880227
0.048875188
-0.03488917
-4.9259348e-05
0.21648585
-0.13699613
0.047852014
-0.028533458
-0.010118687
0.21867678
-0.13060411
0.046152184
-0.02334312
-0.010327864
0.21867691
-0.13060279
0.04615404
-0.023340851
-0.010324448
0.2164863
-0.13699401
0.047856124
-0.028526048
-0.010110983
0.21164679
-0.14880096
0.048879481
-0.034882971
-4.2456536e-05
0.21417839
-0.16526603
0.039490352
-0.03975124
0.0040754419
0.20934898
-0.17647809
0.07505303
-0.028942189
-0.00058657951
)
;
    }
    maxX
    {
        type            fixedFluxPressure;
        gradient        uniform 0;
        value           nonuniform List<scalar> 
50
(
0.20934581
-0.1764808
0.075044874
-0.028949817
-0.00059544364
0.21417465
-0.16526761
0.039481605
-0.039760363
0.0040638555
0.21164416
-0.14880322
0.04886898
-0.034892855
-5.6395224e-05
0.21648367
-0.1369973
0.047846296
-0.028538151
-0.010125844
0.21867629
-0.13060481
0.046147627
-0.023348583
-0.01033531
0.21867493
-0.13060611
0.046147456
-0.023349075
-0.010332949
0.21648493
-0.13699642
0.04785065
-0.028533591
-0.010120104
0.21164508
-0.14880141
0.048873697
-0.034888237
-5.0054245e-05
0.21417677
-0.16526664
0.039486115
-0.039755557
0.0040696922
0.20934737
-0.1764794
0.075048308
-0.028946809
-0.00059123892
)
;
    }
    minY
    {
        type            fixedValue;
        value           uniform 0;
    }
    minZ
    {
        type            fixedFluxPressure;
        gradient        uniform 0;
        value           nonuniform List<scalar> 
150
(
0.20934898
-0.17648015
0.075051717
-0.02894379
-0.0005891557
0.21260526
-0.18569425
0.068237634
-0.026222256
0.0001448271
0.20965598
-0.19408392
0.057190175
-0.026940399
0.0040138418
0.21173998
-0.18045086
0.037537873
-0.054996083
0.0052911195
0.2188384
-0.1424269
0.041318252
-0.053074607
0.014012792
0.21417452
-0.14805505
0.053999007
-0.042176213
-0.0070497688
0.21979248
-0.13263169
0.05108255
-0.023849062
-0.0045173819
0.22160504
-0.13065988
0.044690632
-0.017533701
-0.0020086477
0.21985541
-0.1449824
0.047829805
-0.044640629
-0.010257567
0.22085985
-0.16308499
0.027566442
-0.047558589
0.0081464947
0.22003944
-0.185311
0.051027995
-0.047708415
0.01326293
0.22345286
-0.19578279
0.058281395
-0.033762402
0.0039203035
0.22111725
-0.18161277
0.054502671
-0.066187398
0.018359866
0.22572357
-0.17032103
0.043781103
-0.05053665
-0.01002499
0.22917676
-0.13823407
0.046037114
-0.021174372
-0.0026861817
0.22918601
-0.13817063
0.046056341
-0.021192186
-0.0027266407
0.22576382
-0.17015721
0.043781813
-0.050703827
-0.010235401
0.22116747
-0.18120536
0.054717695
-0.066866574
0.018025764
0.22347609
-0.19566923
0.058252405
-0.033989101
0.0036897615
0.22005172
-0.18527223
0.051014107
-0.047823835
0.013121363
0.22085405
-0.16308588
0.027536395
-0.04762423
0.0080687624
0.21984895
-0.14498813
0.047800963
-0.044680206
-0.010305575
0.22159757
-0.13066322
0.044674205
-0.017562025
-0.0020415951
0.21978649
-0.13262816
0.051071137
-0.023862942
-0.0045376994
0.21415884
-0.14803422
0.053997794
-0.042185006
-0.007065223
0.21883517
-0.14242111
0.041312759
-0.053083082
0.013999797
0.2117372
-0.18044977
0.037531515
-0.055001321
0.0052811134
0.20965296
-0.19408438
0.057184016
-0.026947129
0.004005845
0.21260195
-0.18569504
0.068231471
-0.026227882
0.00013820675
0.20934581
-0.1764808
0.075044874
-0.028949817
-0.00059544364
)
;
    }
    maxZ
    {
        type            fixedFluxPressure;
        gradient        uniform 0;
        value           nonuniform List<scalar> 
150
(
0.20934898
-0.17647809
0.07505303
-0.028942189
-0.00058657951
0.21260519
-0.18569255
0.068239632
-0.026220479
0.00014646414
0.20965642
-0.1940814
0.057190629
-0.026942104
0.0040127285
0.21174143
-0.18044624
0.037537694
-0.05500263
0.0052860477
0.21884116
-0.14241989
0.041313547
-0.053089893
0.014003321
0.21417611
-0.14805387
0.053994906
-0.042185117
-0.0070578437
0.21979257
-0.13263185
0.051079315
-0.023857398
-0.0045268279
0.22160419
-0.13066171
0.044683966
-0.01754505
-0.0020245233
0.2198542
-0.14498466
0.047824443
-0.044666637
-0.010286994
0.22086141
-0.16308259
0.027549051
-0.047600797
0.0080942599
0.22004529
-0.1852939
0.051011301
-0.047792361
0.013179311
0.22347019
-0.19571332
0.058282373
-0.033925868
0.0037628426
0.22115473
-0.18137493
0.054631307
-0.066606536
0.01814434
0.22574623
-0.17025032
0.043776925
-0.050702558
-0.010185394
0.22918432
-0.13821683
0.046021655
-0.021236957
-0.0027611124
0.22918749
-0.13820023
0.0460309
-0.021247718
-0.0027788687
0.22575469
-0.17020667
0.043783972
-0.050770599
-0.010256871
0.22117324
-0.1812306
0.054716117
-0.066845372
0.01803344
0.22347728
-0.19566828
0.058280241
-0.034016547
0.0036752193
0.22004525
-0.18528038
0.05099888
-0.047846668
0.013135915
0.22086056
-0.16307465
0.027535628
-0.047628966
0.0080627736
0.2198507
-0.14498408
0.047821959
-0.044689015
-0.010310032
0.22160175
-0.13066255
0.044676873
-0.017555731
-0.0020403568
0.21978978
-0.13262901
0.051075689
-0.023865261
-0.0045374737
0.21416516
-0.14803827
0.053994586
-0.042188698
-0.0070659
0.21883797
-0.14241897
0.041310981
-0.05309158
0.013997432
0.21173927
-0.18044684
0.03753383
-0.055005371
0.0052811764
0.20965446
-0.19408242
0.057186408
-0.026946553
0.0040079213
0.21260346
-0.18569386
0.068235224
-0.026224813
0.00014201256
0.20934737
-0.1764794
0.075048308
-0.028946809
-0.00059123892
)
;
    }
    bottomWater_to_rightSolid
    {
        type            fixedFluxPressure;
        gradient        uniform 0;
        value           nonuniform List<scalar> 
130
(
0.018025764
0.0036897615
0.013121363
0.0080687624
-0.010305575
-0.0020415951
-0.0045376994
-0.007065223
0.013999797
0.0052811134
0.004005845
0.00013820675
-0.00059544364
0.014847352
0.011965616
0.018351665
0.0071194097
0.0039696736
-0.00010461497
-0.0089111854
0.00622294
0.019522396
0.013139123
0.017193269
0.0093222435
0.0040638555
0.02086895
0.024663719
0.014200817
0.029065593
0.0079609741
0.0059617165
-0.0015676357
0.0081132719
0.028787915
0.015891155
0.016835051
0.0096635866
-5.6395224e-05
0.013691324
0.0097637652
0.018796079
0.0056188614
-0.0028345585
-0.0006568493
-0.0015490356
0.0087072915
0.017796131
0.0032586413
0.010018532
-0.0047425664
-0.010125844
0.007163215
0.0044560766
0.0078781367
-0.00062360202
-0.0053360969
0.0090072147
0.0094832995
0.01569119
0.013832304
0.0061846361
0.0055112459
-0.0031055336
-0.01033531
0.0071646176
0.0044626449
0.0078786594
-0.00062535982
-0.0053325305
0.009014914
0.0094976161
0.015708097
0.013846821
0.0061957105
0.005517239
-0.003101184
-0.010332949
0.013681334
0.0097616941
0.018798503
0.0056233933
-0.0028238602
-0.00063645064
-0.0015089249
0.0087689821
0.017838453
0.0032831169
0.010031691
-0.004734271
-0.010120104
0.020860858
0.024657719
0.01419905
0.029054074
0.007967803
0.0059810356
-0.0015452825
0.0081412074
0.028808306
0.015905386
0.01684674
0.0096720828
-5.0054245e-05
0.014837046
0.011950117
0.018344936
0.0071139867
0.0039709133
-0.00010117673
-0.0089063355
0.0062267923
0.019518867
0.013140751
0.017198397
0.0093287284
0.0040696922
0.01803344
0.0036752193
0.013135915
0.0080627736
-0.010310032
-0.0020403568
-0.0045374737
-0.0070659
0.013997432
0.0052811764
0.0040079213
0.00014201256
-0.00059123892
)
;
    }
    bottomWater_to_leftSolid
    {
        type            fixedFluxPressure;
        gradient        uniform 0;
        value           nonuniform List<scalar> 
130
(
-0.0005891557
0.0001448271
0.0040138418
0.0052911195
0.014012792
-0.0070497688
-0.0045173819
-0.0020086477
-0.010257567
0.0081464947
0.01326293
0.0039203035
0.018359866
0.0040707246
0.0093305152
0.017201865
0.013149579
0.019535496
0.0062366856
-0.0088938688
-7.961633e-05
0.0040036634
0.0071711664
0.01842952
0.012068487
0.014977548
-4.9259348e-05
0.0096725607
0.016845935
0.015900684
0.028798672
0.0081238389
-0.0015528638
0.0059880115
0.0079815077
0.029084664
0.014236415
0.024715116
0.020932077
-0.010118687
-0.0047346745
0.010027445
0.0032681649
0.017805527
0.0087163459
-0.0015360795
-0.00063940363
-0.0028165545
0.0056441738
0.018809459
0.0097891234
0.013726469
-0.010327864
-0.0030970319
0.0055211387
0.0061975275
0.013845247
0.015704756
0.0094969656
0.0090199893
-0.0053213487
-0.00060393231
0.0078898675
0.004470011
0.0071813893
-0.010324448
-0.0030927929
0.0055288986
0.00621052
0.013865893
0.015731005
0.0095168922
0.0090338681
-0.0053186719
-0.00060780609
0.007891417
0.0044783276
0.0071787479
-0.010110983
-0.0047251932
0.010044733
0.00330042
0.017863401
0.0088017609
-0.0014831287
-0.00061551005
-0.0028080831
0.0056430613
0.018813068
0.0097800205
0.013701124
-4.2456536e-05
0.0096806968
0.016857096
0.015917427
0.028822932
0.008159339
-0.0015270024
0.0060003985
0.0079837018
0.029065193
0.014217788
0.024681811
0.020885667
0.0040754419
0.0093343809
0.017204941
0.01314703
0.019525543
0.0062360906
-0.0088937915
-8.5908836e-05
0.0039887078
0.0071377932
0.018375498
0.011991135
0.014883734
-0.00058657951
0.00014646414
0.0040127285
0.0052860477
0.014003321
-0.0070578437
-0.0045268279
-0.0020245233
-0.010286994
0.0080942599
0.013179311
0.0037628426
0.01814434
)
;
    }
    bottomWater_to_heater
    {
        type            fixedFluxPressure;
        gradient        uniform 0;
        value           nonuniform List<scalar> 
92
(
-0.01002499
-0.0026861817
-0.0027266407
-0.010235401
0.0022353447
-0.0081738606
-0.008228131
0.0021554798
0.018288625
0.013576581
0.013430454
0.018253874
0.22238489
0.22582477
0.22581957
0.22237676
-0.17874485
-0.15346075
-0.1534386
-0.17873539
0.038546979
0.044654361
0.04469324
0.038506206
-0.089614936
-0.030540434
-0.030519926
-0.089574289
0.0063094564
0.0063094564
-0.0040498607
-0.0040498607
-0.0040718415
-0.0040718415
0.0062897796
0.0062897796
0.21939286
0.21938969
-0.18504088
-0.18504534
0.064380164
0.064369142
-0.01789893
-0.017917968
0.0071813893
0.007163215
0.21939338
0.22238545
0.22582295
0.22582249
0.21939002
0.22238199
-0.18504534
-0.17874515
-0.15346177
-0.15345068
-0.18504616
-0.17874269
0.06437335
0.038521479
0.044659545
0.044673396
0.064366042
0.038504203
-0.017910763
-0.089624776
-0.030547761
-0.030537222
-0.017919774
-0.089605302
0.0071787479
0.0062798747
-0.0040698465
-0.0040822646
0.0071646176
0.0062698499
0.0062798747
-0.0040698465
-0.0040822646
0.0062698499
0.018236898
0.013518476
0.013459717
0.018224884
0.0021517655
-0.0082282512
-0.0082490969
0.0021230812
-0.010185394
-0.0027611124
-0.0027788687
-0.010256871
)
;
    }
}


// ************************************************************************* //
