/*--------------------------------*- C++ -*----------------------------------*\
| =========                 |                                                 |
| \\      /  F ield         | OpenFOAM: The Open Source CFD Toolbox           |
|  \\    /   O peration     | Version:  v2012                                 |
|   \\  /    A nd           | Website:  www.openfoam.com                      |
|    \\/     M anipulation  |                                                 |
\*---------------------------------------------------------------------------*/
FoamFile
{
    version     2.0;
    format      ascii;
    class       surfaceScalarField;
    location    "40/bottomWater";
    object      phi;
}
// * * * * * * * * * * * * * * * * * * * * * * * * * * * * * * * * * * * * * //

dimensions      [1 0 -1 0 0 0 0];
oriented        oriented;


internalField   nonuniform List<scalar> 
3858
(
-7.7869257e-05
0.00011402343
-3.3695707e-05
-0.00017412837
0.00013066951
-3.2764761e-05
-0.00027041758
0.00012837098
-2.9327298e-05
-0.00029090348
8.8765658e-06
1.3707805e-05
-0.00019372279
-0.00014144001
4.4289394e-05
-0.00016283696
-5.8380348e-05
2.8692718e-05
-5.5989592e-05
-0.00018513815
7.7812733e-05
8.8358862e-05
-0.0002301265
8.4719708e-05
0.00014293905
-0.00015687833
0.00010181074
0.00015083468
-0.00010236727
9.367728e-05
1.5358406e-05
9.2169927e-05
4.2543837e-05
-0.00015171259
0.00012394516
4.1352443e-05
-0.00025039891
7.4665393e-05
2.3158061e-05
-0.00021501973
-5.4878957e-05
1.7272841e-05
-1.0141392e-07
-0.00026607212
4.786256e-05
0.00021492338
-0.00026626783
4.79492e-05
0.00025060061
-5.5361679e-05
1.744612e-05
0.0001519133
7.4515705e-05
2.3293946e-05
-1.5249314e-05
0.00012393762
4.1444723e-05
-0.00015078293
9.2153038e-05
4.2614187e-05
-0.00014295465
-0.00010231005
9.3689107e-05
-8.8384945e-05
-0.00015687328
0.0001018182
5.5961697e-05
-0.00023012148
8.4718784e-05
0.00016281824
-0.00018514609
7.7813274e-05
0.00019370774
-5.8375187e-05
2.8688642e-05
0.00029089665
-0.00014144561
4.4287755e-05
0.00027041513
8.8740922e-06
1.3706733e-05
0.00017412911
0.00012837018
-2.9328776e-05
7.7870964e-05
0.00013067051
-3.2765717e-05
0.00011402482
-3.3694416e-05
5.8971711e-05
8.4780526e-05
-2.9728809e-05
-0.00021885202
0.00044075099
-3.2257755e-05
-0.00044571943
0.00035280973
2.4286691e-06
-0.00041218902
-0.00010549788
8.0844036e-05
-0.00023050889
-0.00039695539
7.3835264e-05
-0.00018856571
-0.00015206385
5.1740332e-05
-4.1295243e-05
-0.00040110416
6.8695546e-05
0.00013854032
-0.00047796571
6.8003654e-05
0.00020018976
-0.00037316027
0.0001546325
0.00028780403
-0.00033878296
0.00014880142
9.2233721e-05
0.00013853221
0.00014920802
-0.00035163989
0.00048635109
8.1467672e-05
-0.00040168156
7.3797181e-05
5.0909884e-05
-0.00028140031
-0.00015900542
-1.615479e-05
-1.849411e-07
-0.00055298652
5.6990214e-06
0.00028103349
-0.00055319402
5.7077487e-06
0.00040153931
-0.00016012286
-1.5744645e-05
0.00035188008
7.2965934e-05
5.1209e-05
-9.2127136e-05
0.00048637153
8.1573305e-05
-0.0002878182
0.00013862196
0.00014922214
-0.00020022994
-0.00033865633
0.00014875802
-0.00013855388
-0.00037315654
0.00015460721
4.1279608e-05
-0.00047795575
6.8000784e-05
0.00018855843
-0.00040111719
6.8692291e-05
0.00023050711
-0.00015206379
5.1739932e-05
0.00041218791
-0.00039696298
7.383658e-05
0.00044571758
-0.00010549877
8.0843196e-05
0.00021885037
0.0003528081
2.4292851e-06
-5.8973748e-05
0.00044075098
-3.2256355e-05
8.4777532e-05
-2.972646e-05
6.6863791e-05
-0.00015615197
0.0001740687
-1.9910883e-05
0.00035608462
0.00017144104
6.8281249e-05
0.00026737831
-2.7607052e-06
9.4050003e-05
-9.3263946e-05
-3.8002677e-05
-0.00011217871
-7.8659903e-05
-0.00011206676
-7.0565522e-05
-0.00022443664
3.0759616e-05
-1.0620993e-05
-0.00040088447
-6.0164217e-05
1.1534502e-05
-0.00041924498
-8.0876211e-05
-4.9974508e-05
-0.00024923847
-6.2412792e-05
-0.00026877608
-8.4428195e-05
-3.5553198e-05
-0.00022963772
6.8086352e-05
3.1307501e-05
-0.00012542352
0.00033068926
5.1447626e-05
-4.8426422e-05
-3.085282e-05
2.7652898e-05
5.302962e-06
-0.00024819511
3.5460304e-05
5.4797866e-08
-0.00046418271
-8.3555645e-05
-5.1579419e-06
-0.00046430025
-8.3681031e-05
4.8006737e-05
-0.00024863481
3.5347265e-05
0.00012507107
-3.1472931e-05
2.7374525e-05
0.00022933858
0.00033069574
5.1408279e-05
0.00026857913
6.8118966e-05
3.1262446e-05
4.9924171e-05
-8.4411829e-05
-3.5589532e-05
-1.1550669e-05
-0.00024923071
-6.2450983e-05
1.0607941e-05
-0.00041922979
-8.0884546e-05
7.0552201e-05
-0.00040089574
-6.0165698e-05
0.00011217709
-0.00022445308
3.0764408e-05
-9.4053835e-05
-7.8664489e-05
-0.00011206756
-6.8286399e-05
-9.3266845e-05
-3.7999366e-05
1.9913725e-05
0.0002673735
-2.7655359e-06
-6.6854579e-05
0.00035608495
0.00017143433
-0.00015614546
0.0001740684
-3.2421218e-05
-0.00018345752
5.9726764e-05
0.00010066196
8.5029412e-06
0.00021449849
0.00027979745
3.8624524e-05
4.9618302e-05
0.0001910984
4.5842138e-05
-5.0407023e-05
-2.8434806e-05
0.0001433126
-2.4392845e-06
-6.9566241e-05
-0.00016602952
-1.7275669e-05
-4.6695873e-05
-0.00039620137
-2.7553452e-05
-2.1130556e-05
-0.00039712159
-4.7688706e-05
-1.3243099e-05
-0.00022233063
-3.4795299e-05
-0.00011550504
6.2003937e-05
-4.4170194e-05
-0.00014339658
0.00013402541
-3.8047513e-05
0.00014322488
3.4699099e-05
9.3686925e-06
4.9064198e-05
0.00015743721
-9.412935e-05
-4.2560421e-05
-0.00018552435
2.8953857e-05
5.1343993e-08
-0.00045422221
-5.2572272e-05
4.2588645e-05
-0.00045435116
-5.2486398e-05
-4.8897735e-05
-0.00018618516
2.903672e-05
-0.00014330887
0.00015722818
-9.4289982e-05
0.00014329273
3.4748803e-05
9.3453439e-06
0.00011552359
0.00013399871
-3.8110603e-05
1.3252278e-05
6.2017007e-05
-4.4157514e-05
2.1125966e-05
-0.00022231137
-3.4793003e-05
4.6685649e-05
-0.00039710933
-4.7680128e-05
6.9554468e-05
-0.00039621137
-2.7553165e-05
2.8431606e-05
-0.00016605648
-1.7273719e-05
-0.00019109671
0.00014330049
-2.4366572e-06
-0.0002797929
4.5838661e-05
-5.0409316e-05
-0.00010065517
3.8625415e-05
4.9610348e-05
3.2428794e-05
8.5088952e-06
0.00021449207
-0.000183442
5.9725334e-05
-0.00016391348
-1.9544046e-05
-0.00013809561
-1.7314924e-05
-5.5021892e-05
-4.4449194e-05
8.1263812e-05
-9.0443556e-05
0.0003036032
-7.9026782e-05
0.00026224927
-0.00012467558
-3.3303418e-05
-0.00010064867
-0.00029210427
-0.00013832074
-0.00037211699
-0.0001423179
-0.00022442482
-8.568824e-05
-3.4420674e-05
-5.5978737e-05
0.00012457801
-0.00012429959
0.00037302036
-9.1005149e-05
0.00032599625
-0.00013850024
4.0007225e-07
-0.00012862604
-0.00032548955
-0.00012846155
-0.00037301503
-0.00013865968
-0.00012470352
-9.1083336e-05
3.433237e-05
-0.00012428709
0.00022437447
-5.6043384e-05
0.00037210225
-8.5710768e-05
0.00029211973
-0.00014232884
3.3333005e-05
-0.00013832259
-0.00026222501
-0.00010065334
-0.00030359865
-0.00012468284
-8.1266959e-05
-7.9031196e-05
5.5014549e-05
-9.0442853e-05
0.00013808631
-4.444635e-05
0.0001639037
-1.730851e-05
-1.9538307e-05
0.00010319698
-0.00010600742
-2.9866766e-05
2.2811561e-05
0.00010077534
-5.2419522e-05
-9.451446e-05
0.00011093263
-2.3465786e-05
-0.00020733331
0.00012020708
7.0957704e-06
-0.00020624858
3.9065518e-05
4.6504635e-06
-7.6180899e-05
-0.00012943433
2.6652152e-05
4.1390339e-05
-0.00014174787
0.00010157626
0.00012029325
-0.00012124425
0.00012612864
8.1876032e-05
1.0523095e-05
0.00012924244
-2.4683672e-05
0.0001262636
7.310644e-05
-0.00012025135
0.0001196846
1.586887e-05
-0.00023366145
0.00014417792
9.6462098e-06
-0.00027261298
4.7050697e-05
1.4267307e-05
-0.00014215886
-0.00019559539
7.8660657e-05
7.6666347e-08
-0.00017031811
7.3563614e-05
0.00014238105
-0.00017048198
7.3742184e-05
0.00027269581
-0.00019534686
7.8728191e-05
0.00023358794
4.7339848e-05
1.4269896e-05
0.00012014454
0.00014424053
9.7096489e-06
2.4593489e-05
0.00011968387
1.5925053e-05
-8.1946964e-05
0.00012630154
7.3065393e-05
-0.00012035137
1.0557463e-05
0.00012920731
-4.1439319e-05
-0.00012122889
0.00012610665
7.6149408e-05
-0.00014175895
0.00010157234
0.00020623594
-0.00012944818
2.6644282e-05
0.00020732863
3.9056548e-05
4.6504444e-06
9.4512996e-05
0.00012020734
7.0920567e-06
-2.2813088e-05
0.00011093341
-2.3466994e-05
-0.00010319811
0.00010077401
-5.2418668e-05
-0.00010600892
-2.9864159e-05
0.00024905908
-0.00037838249
-6.4128199e-06
0.00024635022
0.00011661355
-4.5387107e-05
-0.00014178684
0.00054809197
-4.6593613e-05
-0.00048249822
0.00052160644
2.015607e-05
-0.00038326684
4.9695463e-05
-3.6026052e-05
-8.3963949e-05
-0.00036001931
-1.697758e-05
9.570205e-05
-0.00038026039
0.00012754207
0.00027528543
-0.00036607561
0.00013325164
0.00034346422
-7.9853919e-05
0.00017683073
0.00019309307
0.00034149394
8.3942229e-05
-0.00014278175
0.00056320733
4.1560113e-05
-0.00043215346
0.00050480863
1.0208683e-05
-0.00039337466
-2.5711166e-05
8.4892939e-05
-0.00018417423
-0.00049710784
7.6157231e-05
-7.757278e-08
-0.00039423392
4.5518171e-05
0.00018409393
-0.00039462047
4.5674729e-05
0.00039342516
-0.00049672009
7.6297352e-05
0.0004322913
-2.5330478e-05
8.5013186e-05
0.00014281587
0.00050500756
1.0281701e-05
-0.0001930806
0.00056320802
4.1594459e-05
-0.00034342211
0.0003414939
8.3907181e-05
-0.00027526161
-7.9822599e-05
0.00017682679
-9.5700913e-05
-0.00036604329
0.00013325449
8.3962035e-05
-0.00038027789
0.0001275483
0.00038327102
-0.00036004367
-1.6973555e-05
0.00048251776
4.9661476e-05
-3.6015089e-05
0.00014180416
0.00052160887
2.0155265e-05
-0.00024633802
0.00054809752
-4.6592651e-05
-0.00024905842
0.00011662671
-4.538866e-05
-0.0003783847
-6.4091113e-06
-6.8479436e-05
-0.00023656569
0.00010073133
-5.7819688e-05
4.5945581e-05
0.00023144926
-7.8304074e-05
0.00048856725
7.7248408e-05
-7.3355351e-05
0.00045560703
2.3048019e-05
3.4970798e-05
-3.1401244e-05
-0.0001392962
-7.6197925e-05
-0.00011625655
-0.00010183441
-1.120012e-05
-0.00036155715
-0.00014386525
-5.3687078e-05
-0.00027343501
-0.00013102986
-7.5885712e-05
-8.7418375e-05
-3.26497e-05
-4.249815e-05
0.00024939177
2.3161417e-05
-6.5966324e-05
0.00055244028
6.5542722e-05
8.0563332e-05
0.00044997868
-4.0252083e-05
0.00021948362
-7.403345e-05
-6.2945113e-05
-1.3103797e-05
-0.00011088035
-0.00011817977
-3.5378287e-07
-0.00036585235
-0.00012468723
1.2750979e-05
-0.0003665137
-0.00012489257
-0.0002195105
-0.00011098936
-0.00011812199
-8.0486303e-05
-7.3876891e-05
-6.3103263e-05
6.6003065e-05
0.00045015236
-4.0225886e-05
4.2521799e-05
0.00055244763
6.5504096e-05
7.5891433e-05
0.00024938844
2.3146305e-05
5.3699751e-05
-8.7400934e-05
-3.2680952e-05
1.1216971e-05
-0.00027341792
-0.00013102712
7.6203e-05
-0.00036156733
-0.00014386228
-3.4989937e-05
-0.00011625668
-0.00010182964
7.333619e-05
-3.1428215e-05
-0.000139304
7.8305781e-05
0.00045559969
2.3040218e-05
5.782074e-05
0.00048857685
7.7240168e-05
6.8482413e-05
4.5955683e-05
0.00023144367
-0.00023656511
0.00010073123
-8.4384552e-05
-0.00015789308
6.5438704e-05
-0.00014104687
0.00017256237
0.00014454402
3.1840025e-06
0.00025219888
0.0001417558
0.00019617289
0.00023541438
-2.3203255e-05
5.1154843e-05
0.00017147207
-6.0294538e-05
-4.1079774e-05
6.9060841e-05
-0.00011035843
1.3637706e-05
-0.00036415454
-7.9673529e-05
-4.8236266e-05
-0.00020269178
-5.6557952e-05
-0.00023911199
0.00012174925
-5.3087193e-05
-0.0001872871
0.00010677529
4.6621387e-05
-1.6284271e-06
0.00027835696
5.0377135e-05
0.0002680263
0.00022863085
-3.8938219e-05
0.0001141613
0.00014739745
-0.00016169525
-3.3735231e-05
6.3140855e-05
2.829183e-06
-1.0881836e-07
-0.00037365143
-7.8399617e-05
3.3760182e-05
-0.00037456948
-7.829962e-05
-0.00011392395
6.2784869e-05
2.9466166e-06
-0.00026796483
0.00014760755
-0.00016173355
1.7250516e-06
0.00022871086
-3.8903035e-05
0.00018733892
0.00027838921
5.033396e-05
0.00023913479
0.00010678944
4.6645627e-05
4.8246777e-05
0.000121773
-5.3078907e-05
-1.3641033e-05
-0.00020267187
-5.6538348e-05
4.1082036e-05
-0.00036417348
-7.9670069e-05
-5.1147641e-05
6.9048676e-05
-0.00011034938
-0.00019618859
0.00017147511
-6.0299028e-05
-3.1948282e-06
0.00023540294
-2.3206334e-05
0.00014104459
0.0002522024
0.00014174537
8.4387885e-05
0.00017255688
0.00014454756
-0.00015788958
6.5437683e-05
-0.00026070899
8.3271859e-05
-0.00018943229
8.3970747e-05
-3.8045803e-05
5.6363205e-05
0.00012090986
-1.3984836e-05
0.00030393595
-9.0580784e-05
0.00034674166
-9.8420448e-05
-1.3554962e-05
-0.00010450659
-0.00029078921
-6.3778263e-05
-0.00026960274
-4.1755118e-05
-0.00022565808
-2.2857606e-05
-1.1838892e-05
8.5590328e-06
0.00017536111
-8.2868739e-05
0.0003321952
-0.0001004418
0.00037304693
-0.00011621112
6.4503323e-07
-0.00012987558
-0.00037270708
-0.00012967893
-0.0003323455
-0.0001162364
-0.00017540022
-0.00010042107
1.1841845e-05
-8.28183e-05
0.00022569287
8.494805e-06
0.00026963554
-2.2863984e-05
0.00029082887
-4.1749149e-05
1.3595887e-05
-6.3761468e-05
-0.00034672254
-0.00010450838
-0.00030393097
-9.8425729e-05
-0.00012090529
-9.0581767e-05
3.8042333e-05
-1.3987539e-05
0.00018943123
5.6367145e-05
0.00026070461
8.3974988e-05
8.3276713e-05
0.00012364686
-0.00011168892
-3.9993722e-05
0.00017937144
-7.3198878e-05
-3.4080291e-05
7.7098365e-05
7.5592303e-05
4.6551695e-06
-8.9682354e-05
0.00013773317
3.6933264e-05
-7.2177252e-05
-1.4310536e-05
1.8643359e-06
9.7481932e-05
-0.00018914595
4.5107937e-05
8.8783997e-05
6.965853e-05
4.2795493e-05
7.1714099e-05
0.00010112007
4.3209194e-05
6.7078409e-05
0.00012512556
9.4317493e-06
7.452424e-05
0.00010395199
-3.8101001e-05
4.2826642e-05
0.00014156149
-9.3324123e-05
-1.0413595e-06
0.00012225219
-6.9346759e-05
-5.1310351e-05
0.00014268027
-7.8099137e-05
-5.5080465e-05
0.00011540865
-3.2254253e-05
4.2814054e-07
4.3230092e-05
-2.3979516e-05
5.5155457e-05
4.4232806e-05
-2.4005308e-05
5.122718e-05
0.00011560178
-3.2223488e-05
1.0100884e-06
0.00014266819
-7.8135544e-05
-4.2880632e-05
0.00012227949
-6.9287352e-05
-7.4524825e-05
0.00014153419
-9.3293586e-05
-6.7076462e-05
0.00010394051
-3.8132085e-05
-7.1729604e-05
0.00012512495
9.4160243e-06
-8.8800131e-05
0.00010111316
4.3195846e-05
-9.7487476e-05
6.9651566e-05
4.2789244e-05
7.2182035e-05
-0.00018915896
4.510369e-05
8.9687451e-05
-1.4307967e-05
1.8622664e-06
-7.7091571e-05
0.00013773208
3.6929563e-05
-0.00017936929
7.5599167e-05
4.652323e-06
-0.00012365276
-7.3184582e-05
-3.4084637e-05
-0.00011169168
-3.999364e-05
0.00024121732
-0.00032297882
-3.6340245e-05
0.00039127762
-0.00027243282
3.7865347e-06
0.00024941173
0.00016681788
4.0467026e-06
-0.00021422073
0.00060863778
1.2883921e-05
-0.00018374646
-5.3995997e-05
-2.6814851e-05
8.7367865e-05
-0.00051500481
3.7766961e-05
0.0001778859
-2.658517e-05
0.00013326774
0.00022745174
0.00012263943
6.2166438e-05
0.00018825592
0.00036846844
-2.7316321e-05
0.00027661188
0.00014004112
-4.0502856e-05
0.00021823325
0.00035702787
-0.00011552764
-3.8588337e-05
0.00049207236
-0.0001027899
-0.00028955129
0.0004835166
-4.9804407e-06
-0.00017465595
3.1391438e-05
4.5279103e-05
-1.1983024e-07
-0.00010510351
1.9315648e-05
0.00017415137
-0.00010382349
1.9459823e-05
0.00028922162
3.1529478e-05
4.5299399e-05
3.8538677e-05
0.00048333424
-4.9699291e-06
-0.00021825503
0.00049215719
-0.00010280229
-0.00027665622
0.00035708891
-0.00011555907
-0.00018819033
0.00013987137
-4.0489555e-05
-0.00022740158
0.0003684756
-2.7312606e-05
-0.00017788729
0.0001226843
6.2169072e-05
-8.7371323e-05
-2.6585307e-05
0.00013326921
0.00018375235
-0.00051502486
3.7768682e-05
0.0002142336
-5.3993898e-05
-2.6810405e-05
-0.00024939039
0.00060863547
1.2875862e-05
-0.00039127728
0.00016685719
4.0362054e-06
-0.00024123033
-0.00027239887
3.7786739e-06
-0.00032298731
-3.6343819e-05
4.4553473e-05
-0.00031445296
4.7651993e-05
-4.8691549e-05
-9.4955964e-05
0.00014721743
-4.1281468e-05
8.4426012e-05
0.0001522302
2.8149752e-05
0.00055345194
8.802642e-06
2.0129958e-05
-5.6209944e-05
-0.00012906245
-0.00024131784
-0.00014661796
-0.00020877345
-9.3393617e-05
-0.00027478261
-4.3592025e-05
4.4165585e-05
-8.2154373e-05
-6.3795255e-05
5.2437336e-05
0.00026720493
6.0342054e-05
8.8924384e-05
3.6066408e-05
9.0649079e-05
0.00010146341
0.00026221562
0.00014781595
7.2470668e-05
0.00049246478
-1.1651762e-05
7.4623721e-05
0.00044391509
-2.5496652e-05
2.7977647e-05
-5.5735451e-05
1.5593186e-05
-1.2447282e-06
-0.00022434595
2.3777586e-05
-2.8249639e-05
-0.00022561142
2.390026e-05
-7.4402072e-05
-5.5855143e-05
1.5415056e-05
-7.2534193e-05
0.0004438077
-2.5444612e-05
-0.00010144958
0.00049252913
-1.1682433e-05
-8.8894793e-05
0.00026227413
0.00014776409
-5.2378174e-05
3.5880066e-05
9.0620998e-05
-4.4152628e-05
0.00026722379
6.0345328e-05
9.3445857e-05
-8.2186886e-05
-6.3754403e-05
0.00024134109
-0.00027475341
-4.3589403e-05
-2.0134804e-05
-0.00014660652
-0.00020877208
-2.8153404e-05
-5.6208611e-05
-0.00012907068
4.1270663e-05
0.00055345008
8.8015418e-06
4.867985e-05
8.4455465e-05
0.0001522327
-4.4543341e-05
-9.49572e-05
0.00014722517
-0.00031445013
4.7650698e-05
-2.1173704e-05
-0.00027752976
4.9689203e-05
-0.00010226138
0.00010010782
3.0567912e-05
-0.00013082555
0.00015468858
0.00010005742
0.00017194974
0.00023939652
-1.1923118e-05
-3.9455581e-05
0.00028448271
-0.00018958186
-0.00013331992
3.2307684e-05
-0.00019541973
-9.5646128e-05
-0.00027832221
-0.00011380771
-2.8477823e-05
-0.00014718235
-5.8698271e-05
5.6242172e-05
0.0001330434
-3.6456468e-06
-0.00011989887
0.00025563819
3.1906488e-06
3.4934492e-07
0.00011770892
7.463562e-05
0.00017091398
0.00028143895
1.5229657e-06
0.00034571613
0.00020059862
-9.3180941e-05
0.00013272313
0.00018446446
-2.4377728e-05
-1.1544113e-06
-0.00014937462
-1.9493409e-05
-0.00013353845
-0.00015211382
-1.9413181e-05
-0.00034563157
0.00018366958
-2.4485002e-05
-0.00017098033
0.00020061798
-9.3195073e-05
-2.7305076e-07
0.00028141142
1.5073905e-06
0.00011995472
0.00011778435
7.4595975e-05
-5.6405443e-05
0.00025575753
3.1283475e-06
2.8364389e-05
0.00013302629
-3.651213e-06
9.5643627e-05
-0.00014730166
-5.8702797e-05
0.00013330786
-0.00027828195
-0.00011380574
3.9438338e-05
3.2329364e-05
-0.00019541574
-0.00017196361
0.0002844758
-0.00018958149
0.000130808
0.00023939615
-1.192403e-05
0.00010227493
0.00015466213
0.00010007177
2.118297e-05
0.00010009899
3.0583309e-05
-0.00027752228
4.9692793e-05
-0.00031685268
0.00012259478
-0.00025115051
0.00011837641
-0.00013502116
9.4922439e-05
5.6880506e-05
3.3510024e-05
0.00031572102
-6.4938584e-05
0.00035068911
-0.00010108085
6.2278233e-05
-9.4417928e-05
-0.0001741236
2.5441219e-05
-0.00019018505
0.00010734973
-7.0269635e-05
0.00011286517
1.0762409e-05
4.5235905e-05
0.00015720759
5.2125033e-05
0.00026459286
-7.228448e-06
0.00031989109
1.2955099e-05
1.5728206e-06
3.9068064e-05
-0.00031915895
3.8939012e-05
-0.00026472506
1.2999277e-05
-0.00015731706
-7.2110823e-06
-1.0845039e-05
5.2121097e-05
7.0230355e-05
4.520377e-05
0.00019022662
0.00011289729
0.00017413726
0.0001073665
-6.2325037e-05
2.5399193e-05
-0.00035069271
-9.4422638e-05
-0.0003157036
-0.00010108547
-5.6871754e-05
-6.4937819e-05
0.00013502847
3.3508383e-05
0.0002511406
9.4917133e-05
0.00031684024
0.00011837433
0.00012259467
0.00013447184
-0.00014792487
-2.6144482e-05
0.00027671723
-0.00017060266
-6.9850135e-06
0.00026591338
5.8557787e-06
1.0719853e-05
0.00013754646
0.00014487104
2.3198624e-05
9.6491928e-05
2.8288417e-05
1.6509152e-05
2.9332217e-06
0.00014767452
-6.4822112e-06
-5.9907443e-05
0.00011834621
-1.197515e-05
-9.420873e-05
0.00012103558
-4.2597165e-05
-7.2505959e-05
9.3338831e-05
-0.00010401752
9.3267447e-05
-0.00012356827
-8.1238905e-05
0.00012429442
-2.8933895e-05
-9.5848458e-05
-5.0438922e-06
0.00010753944
-4.8356011e-05
-0.00014462852
0.00010859644
-4.8792309e-05
-0.00019459946
1.6335779e-05
1.4436201e-08
-0.00022096626
0.00019461584
-0.00022097791
0.00014458109
1.643288e-05
4.9790058e-06
0.00010860505
-4.8818707e-05
-0.00012436166
0.00010761018
-4.8361621e-05
-9.3364892e-05
-2.8876739e-05
-9.5841286e-05
7.2470328e-05
-0.00012365288
-8.1245424e-05
9.4194821e-05
9.3317557e-05
-0.00010403094
5.9900171e-05
0.00012102994
-4.261032e-05
-2.9332451e-06
0.00011834724
-1.198786e-05
-9.6488277e-05
0.00014767373
-6.4878631e-06
-0.00013754268
2.8298356e-05
1.6498392e-05
-0.00026590801
0.00014487274
2.3192443e-05
-0.00027671501
5.8615551e-06
1.0715129e-05
-0.00013447277
-0.000170601
-6.9871257e-06
-0.00014792396
-2.614557e-05
0.00018890057
-0.00035682166
-1.634402e-05
0.00043614952
-0.0004334578
1.9392722e-05
0.00049514218
-8.4010879e-05
3.4920698e-05
0.00016771845
0.00044163282
4.3545885e-05
0.00014947
-7.2959521e-05
9.2681535e-05
0.00019379821
4.5723349e-05
9.5389923e-05
1.208171e-05
0.00038565031
4.7680142e-05
-0.00017479614
0.00042266794
-5.258807e-05
-6.1772228e-05
0.00010288024
-0.00014988165
0.00024297696
-0.00037501299
-9.3807327e-05
0.00032674122
-0.00016107973
-6.7146075e-05
-1.7910345e-05
0.00041481929
-6.5418187e-05
-0.00042667596
0.00056982277
-5.7441159e-05
-0.00033228516
-3.2775924e-05
-1.5595425e-07
-0.00053377983
0.00033213824
-0.00053381229
0.00042665663
-3.2786111e-05
1.8040618e-05
0.00056968844
-5.7437315e-05
-0.00032664755
0.00041490432
-6.5408269e-05
-0.00024303448
-0.00016089467
-6.7154213e-05
6.1785171e-05
-0.00037518435
-9.3777727e-05
0.00017480996
0.00010284914
-0.00014986896
-1.2079425e-05
0.00042267812
-5.2589712e-05
-0.00019380345
0.00038566537
4.7675114e-05
-0.00014947908
4.5728281e-05
9.5389763e-05
-0.00016772656
-7.294216e-05
9.2677591e-05
-0.00049514291
0.00044162626
4.3538693e-05
-0.00043615063
-8.4003922e-05
3.490939e-05
-0.00018890224
-0.00043345771
1.9386985e-05
-0.00035682068
-1.6349349e-05
7.1935662e-05
-0.00040055029
1.9444959e-05
-0.0001356275
-0.0001387886
6.0111396e-05
-6.0514382e-05
-7.9218747e-05
7.2324954e-05
2.0016885e-05
0.00034568447
2.4219725e-05
-7.1586514e-05
-5.0316477e-05
-6.0102088e-05
-9.6558952e-05
-4.2278475e-05
-9.5799186e-05
-7.6174028e-06
0.00019816992
5.4946818e-05
0.00014510066
0.00012328776
8.2866873e-05
0.00031849101
-7.1400868e-05
6.1232814e-05
9.7578429e-05
-0.00011379439
5.034307e-05
-1.3581367e-05
-8.3190982e-05
0.000181087
-3.694629e-05
0.00036388539
6.2647055e-05
4.3261458e-05
0.0005063602
-4.2241828e-05
9.6974906e-05
-7.0896189e-05
-9.089249e-08
-0.00041293645
-9.6818574e-05
-0.00041318435
-4.3124858e-05
-7.1064779e-05
3.7076827e-05
0.00050616736
-4.2125229e-05
1.3777033e-05
0.00036393364
6.2588037e-05
-9.7421135e-05
-8.3113833e-05
0.00018118143
-0.00031846749
-0.00011384379
5.0326808e-05
-0.00014506655
-7.146651e-05
6.1260051e-05
7.6485123e-06
0.00012328641
8.2922263e-05
9.6547226e-05
0.00019823982
5.4937448e-05
7.1572309e-05
-4.2269736e-05
-9.5799142e-05
-2.002021e-05
-5.0316897e-05
-6.0103428e-05
6.0510651e-05
0.00034567296
2.4223966e-05
0.00013562407
-7.9217583e-05
7.2332937e-05
-7.1933498e-05
-0.00013879032
6.011534e-05
-0.00040054748
1.9443985e-05
5.5140047e-05
-0.00042208841
1.6087277e-05
-1.3363749e-05
-3.4042568e-05
-5.674324e-06
-0.00011105703
0.00011205326
6.4786991e-06
0.00016400538
6.8348683e-05
-9.6497399e-06
-5.5248413e-05
0.0001498524
-0.00017049693
-0.00021882743
8.499273e-05
-0.00015911192
-6.0749277e-06
-0.00010126839
-2.7121885e-05
0.00026369027
-0.00027048316
6.5307451e-05
0.00030093559
-0.00011802043
5.728594e-06
0.00011741215
8.2190309e-05
-9.2706049e-06
-0.00011909564
0.00020645004
2.1502395e-05
9.4350322e-06
0.00018487206
5.2005623e-05
0.0002199938
0.00023563513
-3.3014645e-05
4.3815576e-05
8.0904303e-05
-7.9873528e-08
-0.00038853441
-4.3740327e-05
-0.00038893709
-0.00021979673
8.0506611e-05
-9.3581453e-06
0.00023552234
-3.2988644e-05
0.00011924087
0.00018488015
5.1961863e-05
-0.00011737906
0.00020663115
2.1470935e-05
-0.00030094216
8.2153043e-05
-9.3053645e-06
-0.00026368512
-0.00011810214
5.7274019e-06
6.0739564e-06
-0.00027049669
6.5321254e-05
0.00021883871
-0.00010120889
-2.7121775e-05
5.5242636e-05
8.5016958e-05
-0.00015910635
-0.00016401059
0.00014984897
-0.00017049414
0.00011105007
6.8336083e-05
-9.6478254e-06
1.336344e-05
0.00011204871
6.4920982e-06
-5.5136783e-05
-3.4045235e-05
-5.6615704e-06
-0.00042208127
1.6089791e-05
-0.000353201
5.3707367e-05
-0.00031487979
4.6012627e-05
-0.00014086262
3.2958533e-05
-2.3352408e-05
-1.5651502e-05
0.00012424149
-6.2680082e-05
0.00022220517
-0.00011405179
0.00012424757
-9.7728715e-05
-8.605653e-05
-3.4737842e-05
-0.0002057522
0.00010902498
-0.00015983367
0.00014913696
-2.1696982e-05
0.00011354925
0.00010016884
0.00011513127
0.00025600557
7.2569951e-05
0.00034986496
3.9861102e-07
-0.00034959947
-0.00025609359
-0.00010031125
7.2528919e-05
2.1618938e-05
0.00011507106
0.00015990283
0.00011355103
0.00020579223
0.00014916094
8.6028231e-05
0.00010902838
-0.00012429791
-3.4771347e-05
-0.00022219957
-9.7729864e-05
-0.00012422244
-0.00011404564
2.3363797e-05
-6.2675094e-05
0.00014086061
-1.5652358e-05
0.0003148695
3.2956949e-05
0.0003531906
4.6007976e-05
5.3704003e-05
0.00015971496
-0.00018610626
-1.0010497e-09
0.00029876813
-0.00014820607
-7.5610688e-10
0.00026355873
4.7109546e-05
-9.1637672e-10
0.00012975856
0.00015897119
7.4151734e-10
3.1940128e-05
0.00011411134
3.3074892e-09
-9.9665958e-05
0.00012536839
3.0210238e-09
-0.00021442153
0.00010414517
3.5733473e-09
-0.00021622135
-3.9467991e-05
2.0044015e-09
-7.7362704e-05
-0.00024377468
-7.9801834e-09
6.3632269e-05
-0.00022278184
-1.6694601e-08
0.00023312943
-0.00026806513
-1.3797395e-08
0.00016233814
2.3615275e-05
1.0162235e-08
0.00011300044
2.2544473e-08
-0.00016235057
0.00011301332
-3.2993612e-09
-0.00023316306
2.3650092e-05
-7.209576e-09
-6.3654084e-05
-0.0002680749
-7.7701419e-09
7.7362956e-05
-0.00022281336
-1.3231031e-08
0.00021623096
-0.00024379714
-7.4155903e-09
0.00021441802
-3.945253e-05
-1.29564e-08
9.9663224e-05
0.00010414021
-4.7430986e-09
-3.1943291e-05
0.00012536803
-1.3388076e-09
-0.00012976259
0.00011411289
-7.9522122e-09
-0.00026356805
0.00015897166
-7.7892139e-10
-0.00029876674
4.708527e-05
7.230854e-09
-0.00015970495
-0.00014823015
1.2285272e-08
-0.00018610352
5.3246479e-09
0.00020657658
-0.00040902618
-6.8285467e-10
0.00047193208
-0.0003941682
-6.499339e-10
0.00057831475
-2.4349762e-05
-2.6581059e-09
0.00036191398
0.00041892052
-2.683456e-09
9.7583204e-05
0.00047112651
-2.8545571e-09
-0.0001973592
0.00051569731
3.4161272e-09
-0.00029832743
0.0002527702
2.3345215e-08
-0.00020752151
-0.00018288459
2.2606259e-08
-5.0660893e-05
-0.00055050825
-8.6908378e-09
8.6213472e-05
-0.00045344485
-1.8678989e-08
0.00032705921
-0.0005760287
-2.8237904e-08
0.00032070103
-3.5427119e-05
-1.7619227e-08
0.00037626526
-4.9529157e-09
-0.00032067841
0.00037625356
8.452638e-10
-0.00032703202
-3.5399868e-05
-4.7013012e-09
-8.6206184e-05
-0.00057604905
-5.8969786e-09
5.068193e-05
-0.00045347195
-7.2512854e-09
0.00020756278
-0.00055054676
-1.8071711e-10
0.00029837674
-0.00018284509
-1.1094666e-08
0.00019733984
0.00025285407
-1.8465314e-09
-9.7622275e-05
0.0005157201
-1.884153e-10
-0.00036193996
0.00047111358
-5.4168998e-09
-0.00057831563
0.00041888172
4.2907478e-09
-0.00047191212
-2.4418627e-05
9.7666122e-09
-0.00020655108
-0.00039421682
1.260413e-08
-0.00040901182
7.8650452e-09
1.1237473e-05
-0.0004008197
1.012492e-09
-0.00021196012
-0.00011085875
-4.6653486e-10
-6.8819857e-05
-9.5166836e-05
1.7655905e-09
7.3314759e-05
0.00030100758
-1.9415319e-09
5.3448824e-05
0.00043088667
3.6902797e-09
1.1501033e-05
0.00046184173
4.1848279e-09
0.00014819071
0.00017101459
1.2752109e-08
0.00014744569
-9.9288271e-05
1.5575713e-08
8.6643751e-05
-0.00042847208
-1.4069917e-09
-2.4212767e-05
-0.000292218
-2.7262655e-08
-0.00030523963
-0.00011385066
-6.4176593e-08
-0.00017953185
-9.8487072e-05
-7.7666522e-10
0.00015451735
-2.5768914e-08
0.00017960477
0.00015452119
2.3665474e-09
0.0003052571
-9.8464126e-05
-4.056535e-11
2.4238416e-05
-0.00011383066
-1.8278148e-08
-8.6609504e-05
-0.00029228317
-1.4029884e-08
-0.00014743324
-0.0004284763
1.3338313e-08
-0.00014818806
-9.920837e-05
4.0377347e-08
-1.1498334e-05
0.0001710924
9.3962288e-09
-5.3447791e-05
0.00046186554
4.8851262e-09
-7.3303839e-05
0.00043086386
2.3303528e-09
6.8850577e-05
0.00030095992
-8.6598876e-09
0.00021198252
-9.5196373e-05
-2.1273975e-08
-1.124526e-05
-0.0001108641
-9.6121915e-09
-0.00040081591
2.8118479e-09
3.6364127e-05
-0.00042109782
1.2695214e-09
-8.1012294e-05
8.4656569e-07
-3.2124609e-09
-0.00025830823
8.8609894e-05
-2.0920713e-09
-5.2851242e-05
8.5899963e-05
8.9382949e-10
2.4001217e-05
0.00018353146
5.8216541e-09
8.8409022e-05
0.00023832028
1.7388406e-09
5.7132645e-05
0.00017517687
-7.7849295e-09
1.0049612e-05
1.3115061e-05
-1.2842986e-08
-1.0765528e-05
-0.00040193936
1.1010912e-08
-6.3688111e-05
-0.00024856583
-1.8495483e-10
-0.00020713783
5.1035935e-05
6.5516517e-08
-0.00025220884
-1.458447e-06
4.8007146e-08
-0.00013073448
2.8342014e-08
0.00025227511
-0.00013075719
1.4606623e-08
0.00020710653
-1.3443928e-06
1.0708163e-08
6.3630279e-05
5.1103501e-05
1.3028056e-08
1.0710528e-05
-0.0002486548
-1.3972284e-08
-1.0097868e-05
-0.00040195193
1.1448623e-08
-5.7199109e-05
1.3217337e-05
-3.1961055e-09
-8.8408141e-05
0.00017518138
-1.7070849e-09
-2.3981308e-05
0.00023832571
6.6430457e-09
5.2867329e-05
0.00018351472
6.3619043e-09
0.0002583137
8.5870517e-05
-4.8066189e-09
8.10095e-05
8.8603399e-05
-3.4880761e-09
-3.6365883e-05
8.4673524e-07
2.9559926e-09
-0.00042109397
1.956496e-09
-0.00036739217
1.7175253e-09
-0.00032053545
2.4792177e-09
-0.00019896721
1.8473629e-10
-0.00012871965
9.0840392e-10
-7.8737159e-06
5.4514708e-09
0.00011639379
9.8472955e-10
0.00019384451
-2.5527473e-09
0.00017224501
-2.3273638e-08
-0.00012068932
1.994266e-08
-0.00022011052
-7.6702546e-09
-5.549113e-05
-3.4200316e-08
5.8182564e-05
-8.720699e-10
1.8034632e-08
-5.8230031e-05
1.7567727e-09
5.5499257e-05
-2.625277e-09
0.00022016471
-1.0912267e-08
0.00012066636
4.5067717e-09
-0.00017227863
2.1453236e-08
-0.00019382929
-3.3354296e-09
-0.00011637781
4.6452669e-11
7.8967253e-06
5.5301698e-09
0.0001287331
3.2461328e-09
0.00019896188
-1.0628968e-08
0.00032052848
-6.2692637e-09
0.00036738793
-4.7530691e-09
-2.0418143e-09
0.00015971844
-0.00018611094
2.6143641e-05
0.00029877238
-0.0001482079
6.9846176e-06
0.0002635651
4.7107671e-05
-1.0721815e-05
0.00012976734
0.00015897044
-2.3198332e-05
3.1954233e-05
0.00011411103
-1.6506129e-05
-9.9658112e-05
0.00012537195
6.4942296e-06
-0.00021440653
0.0001041407
1.1980044e-05
-0.00021622556
-3.9445266e-05
4.2597451e-05
-7.7330333e-05
-0.00024383596
0.00010402536
6.3681729e-05