/*--------------------------------*- C++ -*----------------------------------*\
| =========                 |                                                 |
| \\      /  F ield         | OpenFOAM: The Open Source CFD Toolbox           |
|  \\    /   O peration     | Version:  v2012                                 |
|   \\  /    A nd           | Website:  www.openfoam.com                      |
|    \\/     M anipulation  |                                                 |
\*---------------------------------------------------------------------------*/
FoamFile
{
    version     2.0;
    format      ascii;
    class       volVectorField;
    location    "40/bottomWater";
    object      U;
}
// * * * * * * * * * * * * * * * * * * * * * * * * * * * * * * * * * * * * * //

dimensions      [0 1 -1 0 0 0 0];


internalField   nonuniform List<vector> 
1460
(
(-0.00010413306 -0.01325378 -0.00072949793)
(-0.0016903702 -0.014276597 -1.7313338e-05)
(-0.0028997248 -0.012899388 4.9767053e-05)
(-0.0038773608 -0.01275857 0.00079472395)
(-0.0030346678 -0.011334692 0.0010942646)
(-0.0021591064 -0.012062068 0.00066316873)
(-0.0016597349 -0.010830259 0.00105435)
(0.00028506735 -0.010682891 0.0010945621)
(0.0017935964 -0.010309171 0.0016151792)
(0.0019205816 -0.010049671 0.0015314568)
(0.0016780168 -0.012993596 0.00066975377)
(-0.0012201269 -0.016119072 0.00031866885)
(-0.0028076458 -0.016007006 -0.00045084893)
(-0.0032489208 -0.01280117 -0.0007631313)
(-0.0019932435 -0.010578623 -0.00018031775)
(0.0019905665 -0.010580166 -0.00017894761)
(0.003249963 -0.012785044 -0.00075834256)
(0.0028105096 -0.01599826 -0.00044688509)
(0.0012225736 -0.016117347 0.00032059793)
(-0.0016774077 -0.012995201 0.00067099182)
(-0.0019203555 -0.010050045 0.0015316212)
(-0.0017939701 -0.010308816 0.001615182)
(-0.00028538872 -0.010682631 0.0010945836)
(0.0016594622 -0.010830102 0.0010543487)
(0.0021588875 -0.012061966 0.00066315271)
(0.0030345319 -0.011334614 0.0010942507)
(0.0038773098 -0.012758549 0.00079472318)
(0.0028997195 -0.012899341 4.9753653e-05)
(0.001690389 -0.01427645 -1.7362411e-05)
(0.00010415994 -0.013253733 -0.00072950963)
(0.0018766394 0.01429728 -0.001978056)
(-0.00053842845 0.01563465 -1.4079084e-05)
(-0.005282425 0.014215204 0.001148765)
(-0.0059391821 0.011399725 0.001414185)
(-0.0034873744 0.0045618032 0.0010964616)
(-0.00294315 0.0086544344 0.001129373)
(-0.0013335018 0.002391813 0.00088563343)
(0.00036159008 0.00057466177 0.00072684559)
(0.002886361 0.0029125544 0.0017020208)
(0.0021778429 0.0047687024 0.0014246575)
(0.0046733528 0.013591443 0.0022398551)
(-0.0025515204 0.017289081 0.00098252151)
(-0.0057336648 0.016300585 -5.0970924e-05)
(-0.0048263238 0.0094907669 -0.0008465378)
(-0.0015485756 -0.00090848252 -0.00064469155)
(0.0015445436 -0.00091387728 -0.00064257911)
(0.0048212295 0.0094605556 -0.00083658836)
(0.0057352321 0.016289497 -4.332222e-05)
(0.0025549231 0.017287363 0.00098520538)
(-0.0046735236 0.013592788 0.002239681)
(-0.002178493 0.004771469 0.001423938)
(-0.0028864263 0.0029124202 0.001701241)
(-0.00036184147 0.00057462484 0.00072668213)
(0.0013333883 0.0023914178 0.00088548566)
(0.0029431017 0.0086542459 0.001129259)
(0.0034873488 0.0045615705 0.0010963509)
(0.0059391746 0.011399654 0.0014141058)
(0.0052824098 0.014215159 0.0011486918)
(0.00053840126 0.015634542 -1.4099369e-05)
(-0.001876657 0.014297277 -0.0019780358)
(0.00051516358 -0.010055908 0.0024939174)
(0.001088761 0.0013808934 0.0016363365)
(-0.001537588 -0.00023982581 0.00032482116)
(0.0029797595 -0.012755477 -0.0018428093)
(-0.00042299777 -0.013223182 -0.0015078902)
(-0.0020987061 -0.011106298 0.0010466754)
(0.00018489203 -0.011203388 -0.00057807608)
(-0.00051923517 -0.011482367 -0.0011822886)
(0.00091895461 -0.010898566 -0.0004806187)
(-0.0025010184 -0.011876641 -0.0014950761)
(-0.0035187027 -0.0073041385 -0.00024960257)
(-0.0023564084 0.0012873436 0.0014546778)
(-0.00089004141 -0.012504475 0.0022853735)
(-0.00050129695 -0.012052594 0.0021354059)
(0.00068691814 -0.011924235 -0.0010179277)
(-0.00068517758 -0.011924647 -0.0010184724)
(0.0005034665 -0.012048555 0.0021300236)
(0.00087787334 -0.012522537 0.0022806643)
(0.0023563862 0.0012893834 0.0014532374)
(0.003514843 -0.0073021998 -0.00025143295)
(0.0024997832 -0.011876175 -0.0014961886)
(-0.00091913896 -0.010898391 -0.00048154049)
(0.00051897786 -0.011482094 -0.0011824324)
(-0.00018503079 -0.011203392 -0.0005781543)
(0.0020986 -0.011106164 0.0010466583)
(0.0004230017 -0.013223193 -0.0015078564)
(-0.002979845 -0.01275544 -0.0018427059)
(0.0015375611 -0.00023986132 0.00032472341)
(-0.0010886687 0.0013809739 0.0016363102)
(-0.0005150582 -0.010056044 0.0024939536)
(-0.0015569606 0.0037671028 0.00033772158)
(0.00082231641 0.0069858194 0.0032966259)
(0.0019692077 0.0062693709 0.00079755543)
(0.0043218795 0.008748003 -0.00096591765)
(0.00080165088 0.0097838259 -0.00039771143)
(-0.0014840273 0.0025819871 -0.00036936757)
(-5.0410874e-05 -0.0029325787 -0.0006282075)
(-0.00094017431 -0.003123257 -0.0015646008)
(0.0002103644 0.0015802127 -0.00064582456)
(-0.00044683605 0.0082794939 -0.0019171355)
(-0.0026444983 0.0082825661 -0.0018498956)
(-0.00041213218 0.006390648 0.00062973966)
(0.0033289422 0.010802276 -0.00083779777)
(-0.0018665006 0.0026914395 -0.00028750949)
(0.0010470798 -0.0041960256 -0.0010016798)
(-0.0010454768 -0.0041991993 -0.00099980777)
(0.0018659657 0.0026728893 -0.00029031046)
(-0.0033258881 0.010801416 -0.00084247319)
(0.0004087869 0.0063890024 0.00062827945)
(0.0026448192 0.0082813228 -0.0018514409)
(0.00044709742 0.0082795497 -0.0019174459)
(-0.00021044609 0.0015803242 -0.00064618645)
(0.00094010441 -0.0031230563 -0.0015647046)
(5.029827e-05 -0.0029328825 -0.0006282741)
(0.0014838315 0.0025813169 -0.00036954731)
(-0.00080159299 0.0097836716 -0.00039759426)
(-0.0043218574 0.0087478765 -0.00096598013)
(-0.001969151 0.0062692962 0.00079744083)
(-0.00082217168 0.0069857712 0.0032965568)
(0.0015569752 0.0037674795 0.00033776915)
(-0.0021732363 -0.0082837066 -0.0014581114)
(-0.0020222293 -0.0065234074 -0.0016691066)
(-0.0012834765 -0.0046726108 -0.0015333074)
(-0.00022354568 -0.006795646 -0.0020296591)
(0.0025685408 -0.0044395987 -0.0014580191)
(0.0043268705 -0.0066156194 -0.0022706672)
(0.0026440358 -0.0078000761 -0.0019438533)
(-0.003371752 -0.0077563872 -0.0027899019)
(-0.0044849705 -0.0071800695 -0.0027649474)
(-0.004177149 -0.0057978166 -0.0019352719)
(-0.0012885312 -0.0032643313 -0.0019537532)
(0.00021765773 -0.0049074699 -0.002506761)
(0.0034175839 -0.0048464439 -0.0014622046)
(0.0049740255 -0.0072344883 -0.0023336615)
(0.0038038532 -0.0082681387 -0.0021663855)
(-0.0037929216 -0.0082689671 -0.0021648663)
(-0.0049728865 -0.0072346041 -0.0023368762)
(-0.0034184917 -0.0048511173 -0.0014648875)
(-0.0002198269 -0.004903799 -0.0025067105)
(0.0012882235 -0.0032639432 -0.0019547399)
(0.004176587 -0.0057974021 -0.0019357441)
(0.0044850829 -0.0071796475 -0.002765285)
(0.003371993 -0.0077561966 -0.0027900902)
(-0.0026435438 -0.0078001108 -0.0019439944)
(-0.0043267739 -0.0066157055 -0.0022708276)
(-0.0025685357 -0.0044398695 -0.0014581183)
(0.00022346134 -0.0067956615 -0.002029646)
(0.0012833747 -0.0046725082 -0.0015332771)
(0.0020220941 -0.0065231179 -0.0016689573)
(0.0021731257 -0.0082836623 -0.0014580235)
(0.0015292517 -0.0085547604 -0.00041811465)
(0.00096636102 -0.012202665 -0.001147791)
(-0.00030486038 -0.015283901 -0.00099430348)
(-0.0022493167 -0.014671273 -0.00022172586)
(-0.0028872008 -0.014095632 0.00051689279)
(-0.0019853566 -0.011406213 0.00054388076)
(-0.00010567653 -0.01009199 0.0019958501)
(0.0012485828 -0.010155383 0.0022011707)
(0.0016070374 -0.013089386 0.0022818303)
(0.00040012835 -0.012766967 0.0020675334)
(-0.00091174672 -0.015054363 0.00110016)
(-0.0023198398 -0.01378657 0.0012095872)
(-0.0037118557 -0.012702043 0.0013727776)
(-0.0026486958 -0.010626042 0.0015340331)
(-0.0012101103 -0.010864919 0.0020673686)
(0.0012123833 -0.010861818 0.0020699273)
(0.0026515384 -0.010625274 0.0015361235)
(0.0037114588 -0.012701605 0.0013739565)
(0.0023183329 -0.013787297 0.0012104738)
(0.0009105165 -0.015053845 0.0011015715)
(-0.00040101062 -0.012765757 0.0020674495)
(-0.0016078173 -0.013088153 0.0022816218)
(-0.0012491936 -0.010155113 0.0022009725)
(0.00010502201 -0.010091769 0.0019958343)
(0.001985177 -0.011405952 0.00054374086)
(0.0028870745 -0.014095713 0.00051683605)
(0.0022492778 -0.014671212 -0.00022177285)
(0.00030485736 -0.015283831 -0.00099434811)
(-0.00096639382 -0.012202687 -0.0011477698)
(-0.0015292548 -0.0085547058 -0.00041805859)
(0.0016165467 0.0031257091 0.00093985843)
(0.0041578904 0.012987614 -0.0013354829)
(0.0020967217 0.016207224 -0.0010843504)
(-0.0058262651 0.015806155 0.0013805143)
(-0.0061561226 0.013608806 0.0012412786)
(-0.0026962084 0.0050717232 0.00096640819)
(0.00028442149 0.0032515672 0.0015282304)
(0.0022699863 0.0041074014 0.0015131622)
(0.0043346563 0.011735502 0.0035748296)
(0.0039129098 0.013998627 0.0035329782)
(0.0012104779 0.016108246 0.0030030746)
(-0.0049931469 0.015364876 0.0018781722)
(-0.0062468757 0.012395673 0.0018219819)
(-0.0027802248 0.0017174928 0.00043245226)
(-0.0021303999 0.0029261074 0.00093760031)
(0.0021281376 0.0029166903 0.00093572308)
(0.0027803843 0.0017261939 0.00043522019)
(0.0062487645 0.012404146 0.0018250876)
(0.0049938861 0.015367038 0.0018796474)
(-0.0012104134 0.016107784 0.0030037925)
(-0.0039124954 0.013998279 0.0035322152)
(-0.0043342382 0.011735383 0.0035747482)
(-0.0022697939 0.0041077698 0.0015132371)
(-0.00028451673 0.0032509494 0.0015283015)
(0.0026962339 0.0050709646 0.00096650531)
(0.0061562336 0.013608656 0.0012414513)
(0.0058264462 0.015806119 0.0013805573)
(-0.0020964254 0.016207186 -0.0010842533)
(-0.0041579054 0.012987625 -0.0013354009)
(-0.0016165096 0.0031256003 0.00093992824)
(-0.00031122964 -0.011191557 0.0033836435)
(-0.0016591837 -0.007567203 0.0043683142)
(0.00060453408 0.0044875773 -0.00036540597)
(-0.0029671563 0.003901482 0.00064340975)
(0.0014119083 -0.010869663 -0.0027387852)
(-0.00076913913 -0.012766784 -7.4386078e-05)
(-0.00076996996 -0.011368197 -0.001890104)
(0.00037528936 -0.01190009 -0.0021701174)
(-0.0016043563 -0.012529349 -0.0021733253)
(-0.00053913614 -0.00042744134 8.6828287e-05)
(-0.00018314264 0.0052007541 0.0016461978)
(-0.0018234174 0.0038378298 0.00019379402)
(0.0039682221 -0.012041393 -0.0014976959)
(0.0010098069 -0.013004733 -0.0011069483)
(-0.0011718838 -0.011461276 -0.0023218043)
(0.0011637343 -0.011461784 -0.0023272949)
(-0.0010084312 -0.013003175 -0.0011051978)
(-0.0039692151 -0.012038527 -0.0015024262)
(0.0018251034 0.0038420177 0.00019402553)
(0.00018280423 0.0052011306 0.0016461825)
(0.00053982475 -0.00042725206 8.6486887e-05)
(0.001604011 -0.012528619 -0.0021738727)
(-0.00037474635 -0.01189966 -0.0021703379)
(0.00076993711 -0.011368089 -0.0018900778)
(0.00076928867 -0.012766702 -7.4220454e-05)
(-0.0014124632 -0.010870872 -0.0027388558)
(0.002967221 0.0039015431 0.00064339193)
(-0.00060452031 0.0044877782 -0.00036543115)
(0.0016591868 -0.0075667295 0.0043680973)
(0.00031130039 -0.011191533 0.0033836074)
(-0.00056375033 0.0023199036 0.0016828158)
(-0.0019686646 0.008088386 0.0041458076)
(-0.0008738996 0.0074761524 0.0013348238)
(0.00089180936 0.0071612353 -0.00070877536)
(0.0034284722 0.0091274902 0.00026818447)
(-0.001859733 0.008002613 -0.0003946573)
(0.00070659873 -0.0016988203 -0.00060378463)
(-0.00019809061 0.001890089 -0.00039368171)
(-0.0014400257 0.0086810706 -0.00097189806)
(-0.003767622 0.0059653357 0.00040284304)
(-0.0011156078 0.0083251799 0.00060106993)
(0.0011183164 0.0070898015 -0.00024657883)
(0.0048023914 0.0086688756 -0.0030283758)
(-0.0017669484 0.0084161158 0.0012275933)
(0.001169303 -0.0016679378 -0.0011988255)
(-0.0011722428 -0.0016890574 -0.0011976343)
(0.0017706539 0.0084107485 0.0012332663)
(-0.0048013397 0.0086714247 -0.0030291615)
(-0.0011173956 0.0070906567 -0.00024587161)
(0.0011159472 0.0083250893 0.00060055125)
(0.0037681996 0.0059651436 0.00040382391)
(0.0014401269 0.0086809884 -0.00097140215)
(0.00019825875 0.0018902204 -0.00039322517)
(-0.00070684263 -0.0016992221 -0.00060370511)
(0.0018600268 0.0080025341 -0.00039440198)
(-0.0034286093 0.0091277486 0.00026814712)
(-0.00089196236 0.007161053 -0.00070877638)
(0.00087385884 0.0074762196 0.0013345927)
(0.0019686995 0.0080881336 0.0041456632)
(0.00056378868 0.0023199216 0.001682727)
(-0.0034347354 -0.0061257975 0.00081750227)
(-0.0029140422 -0.0017948671 0.0011211781)
(-0.0015709629 0.0012161068 5.7895476e-05)
(0.00045404932 0.0010916915 -0.0011738581)
(0.0028937925 -0.0027050438 -0.0015631023)
(0.0043816352 -0.0052356898 -0.0021188012)
(0.0037987243 -0.0078534405 -0.0020374249)
(-0.0040224939 -0.0070511343 -0.0024851698)
(-0.0033847094 -0.0040207486 -0.0022670916)
(-0.0035993744 -0.0019574481 -0.0015241814)
(-0.0016282441 0.0013895844 6.8332547e-06)
(0.0012284507 0.00088259585 -0.0020449049)
(0.0035132804 -0.0031030609 -0.002128298)
(0.0044097374 -0.005821113 -0.0026973502)
(0.0046604967 -0.0082309722 -0.0029973334)
(-0.0046455549 -0.008236245 -0.0029923333)
(-0.0044140894 -0.0058284744 -0.0026992264)
(-0.0035135113 -0.0030983726 -0.0021282296)
(-0.001228875 0.00088421092 -0.0020440169)
(0.0016287619 0.0013906231 5.5922982e-06)
(0.003599726 -0.0019567915 -0.0015246071)
(0.0033851864 -0.0040198817 -0.0022671223)
(0.0040229126 -0.0070506872 -0.0024848189)
(-0.0037982832 -0.0078535999 -0.0020374452)
(-0.0043816099 -0.0052360419 -0.0021188872)
(-0.0028936882 -0.0027051814 -0.0015631119)
(-0.00045404802 0.0010914432 -0.0011738496)
(0.0015708822 0.001216163 5.7979321e-05)
(0.0029140432 -0.0017948199 0.0011212486)
(0.0034346687 -0.006125736 0.00081761607)
(0.0013384099 -0.0099052657 -0.00082126995)
(0.0019461628 -0.010635105 -0.00093776928)
(0.0022995009 -0.013438343 -2.0662089e-05)
(-0.00025612586 -0.014704377 0.00049475611)
(-0.0021059631 -0.015605865 -0.00031899558)
(0.00051979468 -0.0093470169 0.00049210683)
(0.0016086838 -0.011724579 0.0015608934)
(0.00082545147 -0.013467549 0.0023056101)
(0.00090347594 -0.013978572 0.0024677348)
(0.00084866515 -0.015256476 0.00051980599)
(0.00087492577 -0.01356553 -0.00063042319)
(0.00032033162 -0.014354114 -0.00087996082)
(-0.00036025564 -0.013880912 -0.00091720891)
(-0.00089487583 -0.014036507 0.001081766)
(-0.00054360701 -0.013282832 0.00040563811)
(0.00055280031 -0.013259821 0.00040870952)
(0.00089066868 -0.014032941 0.0010824506)
(0.0003605548 -0.013879589 -0.00091824928)
(-0.00032161365 -0.01435412 -0.00087842927)
(-0.00087507418 -0.013567009 -0.00062987174)
(-0.00084855653 -0.015257229 0.00051861855)
(-0.00090355153 -0.013978311 0.0024673256)
(-0.00082569842 -0.013467375 0.0023051467)
(-0.0016088816 -0.01172436 0.0015608068)
(-0.00051970942 -0.0093469727 0.00049198381)
(0.0021059779 -0.015605632 -0.0003189328)
(0.0002562555 -0.014704332 0.00049470404)
(-0.0022994502 -0.01343837 -2.065533e-05)
(-0.0019461781 -0.010635297 -0.0009377556)
(-0.0013385327 -0.0099051717 -0.00082121518)
(0.0026236308 0.0042897837 -0.0011344086)
(0.0033242147 0.0065858431 -0.00018654451)
(0.0060461609 0.013767551 -0.00052381085)
(-0.0003339094 0.016195863 -0.00053556038)
(-0.0043016392 0.013538159 -0.0023027038)
(-0.00047739922 0.00068509269 -0.0016319395)
(0.0022767464 0.011944211 0.0029245302)
(0.0026692379 0.014251608 0.0035944504)
(0.0024846741 0.01519482 0.003222462)
(0.0027751799 0.01607059 -2.3663045e-05)
(0.0035323635 0.015096037 -0.00153236)
(0.0023023457 0.015461478 -0.001440324)
(-0.0034554296 0.015406562 0.0011407197)
(-0.0032501649 0.015069968 0.0019262884)
(-0.0013461573 0.012867641 0.00034239109)
(0.0013423651 0.012874577 0.00034930186)
(0.0032435672 0.015070265 0.0019286665)
(0.0034536048 0.015404971 0.0011418507)
(-0.0023019207 0.015462068 -0.0014390351)
(-0.0035334256 0.015096969 -0.0015319139)
(-0.0027748324 0.01607119 -2.4230637e-05)
(-0.0024835471 0.015194568 0.0032223208)
(-0.0026690983 0.01425131 0.00359441)
(-0.0022769174 0.011943892 0.0029246251)
(0.00047750855 0.00068456576 -0.0016319101)
(0.0043016111 0.013538021 -0.0023025241)
(0.00033426155 0.016195807 -0.00053562799)
(-0.0060460284 0.013767705 -0.00052388815)
(-0.003324343 0.0065866117 -0.00018669688)
(-0.0026237386 0.004289588 -0.001134357)
(0.0014884286 -0.010983596 0.00080084486)
(-0.00073700332 -0.012048253 0.004080468)
(-6.4886893e-05 -0.0064336001 0.002987475)
(-0.0013159654 0.0063481733 4.6132443e-05)
(0.002358635 -0.013799488 -0.0021598395)
(-0.0021855041 -0.012419958 -0.003971301)
(-0.0028911623 -0.011589779 -0.0031505574)
(0.0002037652 -0.008545318 -0.0022751049)
(0.00083415918 -0.00060649064 0.0012360642)
(0.00067102523 -0.0096434042 0.0010534676)
(0.0012102966 -0.00086062624 0.00086173925)
(0.0017917512 0.0035480559 -0.001320825)
(-0.00031026432 0.003224695 -0.00042401418)
(0.001982273 -0.012932788 -0.0026809907)
(-0.0011102439 -0.014096556 -0.0018683857)
(0.0010842702 -0.014076171 -0.0018681508)
(-0.0019669518 -0.012929328 -0.0026813778)
(0.00030450106 0.0032204286 -0.00042430147)
(-0.0017887761 0.0035501555 -0.0013202649)
(-0.0012122165 -0.00085942074 0.0008601369)
(-0.00066882213 -0.0096504874 0.0010531563)
(-0.00083459466 -0.00060600722 0.0012355602)
(-0.00020291705 -0.0085432936 -0.0022746636)
(0.0028916122 -0.011589473 -0.0031504627)
(0.0021856442 -0.012419994 -0.0039712427)
(-0.0023588695 -0.013799321 -0.002160084)
(0.0013161062 0.0063481402 4.5919337e-05)
(6.4416355e-05 -0.0064323185 0.0029872117)
(0.00073723843 -0.012048171 0.0040805005)
(-0.0014884595 -0.01098364 0.00080086479)
(-0.0012794867 -0.00046879036 0.0009316669)
(0.0005808215 0.0080793263 0.0015857494)
(-0.0030271984 0.0077664414 0.0034591696)
(0.00033771557 0.0075965927 -0.00020572981)
(0.0031337224 0.01102124 -0.0026586506)
(-0.003814565 0.0066109244 -0.0036206333)
(0.00027065075 0.0011800308 -0.0023820588)
(-0.0026238944 0.0049024385 -0.0019299018)
(0.0020529371 0.0065200745 -0.00057933605)
(-0.0009736906 0.0098740617 0.001195421)
(-0.0015798265 0.0066036873 0.0013901326)
(0.0015693489 0.0081811476 -0.0011609373)
(0.0031645716 0.0073601922 -0.0024919796)
(0.0043329368 0.010170844 -0.0011019522)
(-0.00031879461 0.005343818 -0.0018780258)
(0.00029179244 0.0052793674 -0.0018742698)
(-0.0043286216 0.010162888 -0.0011029085)
(-0.0031671878 0.0073609927 -0.0024930293)
(-0.0015681964 0.0081810193 -0.0011606087)
(0.0015806492 0.0066039765 0.001388811)
(0.00097359609 0.0098777077 0.0011948278)
(-0.0020561255 0.0065200812 -0.00057957778)
(0.0026243695 0.0048991789 -0.0019296136)
(-0.0002708883 0.0011807199 -0.0023820301)
(0.0038144649 0.0066113639 -0.0036205629)
(-0.0031339861 0.011021123 -0.0026587544)
(-0.00033778627 0.0075965821 -0.00020588719)
(0.0030269054 0.007765859 0.0034590843)
(-0.00058032883 0.0080792091 0.0015860108)
(0.0012792692 -0.00046861586 0.00093172198)
(-0.0041702686 -0.0067014206 0.0022277002)
(-0.0034382463 -0.0042609721 0.0021079862)
(-0.0026551983 -0.0020289105 0.0019867357)
(-0.001023821 0.00067753951 0.00071657055)
(0.0027435552 -0.00070106942 -0.0015715375)
(0.0045168949 -0.0051648019 -0.0017229668)
(0.0040221236 -0.0081891969 -0.0016509072)
(-0.0022541437 -0.0083453086 0.00027692456)
(-0.0024654107 -0.0016384464 0.00077410367)
(-0.0017144812 -0.00066802761 0.00089577458)
(-0.00042123226 -0.0021979715 0.00024440695)
(0.000810953 0.0017087273 -0.00077622128)
(0.0028502219 -0.00019696419 -0.0013846885)
(0.0039040649 -0.0032212323 -0.0013416711)
(0.0038749974 -0.00874831 -0.001362916)
(-0.0038400762 -0.0087571152 -0.0013621381)
(-0.003910336 -0.0032404041 -0.0013409172)
(-0.002851212 -0.00019692761 -0.0013842291)
(-0.00081234364 0.0017078803 -0.0007754451)
(0.00042011596 -0.0021957197 0.00024348379)
(0.0017145628 -0.0006674284 0.00089604821)
(0.0024662129 -0.0016390192 0.00077433587)
(0.0022535533 -0.0083452422 0.00027703179)
(-0.0040226582 -0.0081887763 -0.0016509747)
(-0.0045165198 -0.0051644402 -0.0017230958)
(-0.0027435474 -0.00070120568 -0.0015715829)
(0.0010240664 0.00067752473 0.00071646849)
(0.0026551067 -0.0020292596 0.0019866424)
(0.003438147 -0.0042611744 0.0021080275)
(0.0041700823 -0.0067014221 0.0022277575)
(0.0010948239 -0.010397519 -0.0005679788)
(0.0025639865 -0.011031109 -0.00022979581)
(0.0039809869 -0.013548136 0.00023588579)
(0.0025209784 -0.013198211 0.00076675698)
(0.0011318124 -0.012951828 0.00036001877)
(0.0010755463 -0.011665704 0.00098216328)
(-0.000966057 -0.014273163 0.00019787656)
(-0.00061473502 -0.01393846 -0.00058061727)
(-0.0019340686 -0.011453925 -0.0021732755)
(0.00033995012 -0.0095901673 -0.0018252858)
(0.001799435 -0.011973526 -0.002707448)
(0.0013102655 -0.013549331 -0.0015732512)
(-0.0014053772 -0.015477479 -0.0017888182)
(-0.0023989352 -0.014014132 -0.0021109856)
(-0.0022590916 -0.009737582 -0.001129704)
(0.0022593882 -0.0097379196 -0.0011332946)
(0.0023990746 -0.014011557 -0.0021107622)
(0.0014042505 -0.015476493 -0.001789091)
(-0.0013106022 -0.013548754 -0.001572876)
(-0.0018005992 -0.011975004 -0.0027072336)
(-0.00034097794 -0.0095892106 -0.0018253043)
(0.00193414 -0.011453702 -0.0021734764)
(0.00061443472 -0.013938583 -0.00058072798)
(0.0009660612 -0.014272917 0.00019767898)
(-0.0010755517 -0.011665724 0.00098211831)
(-0.0011317509 -0.012951828 0.0003598891)
(-0.0025209138 -0.013198117 0.00076665292)
(-0.0039809383 -0.013547985 0.0002357474)
(-0.0025639835 -0.011031008 -0.0002299856)
(-0.0010948488 -0.010397464 -0.00056804876)
(0.0018063218 0.0033750906 -0.00022680598)
(0.0033020957 0.003144241 0.00037423781)
(0.0068667521 0.012091909 0.00068400906)
(0.0048232782 0.014847555 0.0009748851)
(8.511944e-05 0.012151843 0.0012080523)
(0.0031424656 0.013403481 0.0028585107)
(0.0017806953 0.015352384 0.0022168606)
(-0.0013894235 0.01508456 -0.0014168206)
(-0.0034006117 0.012078142 -0.0043720557)
(0.0022082698 0.0034372458 -0.0016373247)
(0.0034431764 0.0094509068 -0.0026455323)
(0.0042504149 0.014402237 -0.0024237723)
(-0.0047406614 0.016343698 -0.0012748492)
(-0.0055420878 0.012829418 7.5312355e-05)
(-0.0022389908 -0.00012997638 0.00065806427)
(0.0022356056 -0.00013001042 0.00065778644)
(0.0055413536 0.012829873 7.3742079e-05)
(0.0047408967 0.01634289 -0.001275569)
(-0.0042471919 0.014403076 -0.0024243055)
(-0.0034443544 0.0094540975 -0.0026471508)
(-0.0022082218 0.0034329361 -0.0016363809)
(0.0034008099 0.01207756 -0.00437176)
(0.0013895904 0.015084589 -0.0014166382)
(-0.0017807927 0.015352179 0.0022169512)
(-0.0031424725 0.013403486 0.0028585427)
(-8.5321999e-05 0.012152152 0.0012080687)
(-0.0048232894 0.014847508 0.00097466254)
(-0.0068667872 0.01209194 0.00068368469)
(-0.003302081 0.0031442099 0.00037404369)
(-0.0018063694 0.0033750782 -0.00022700883)
(0.0010371433 -0.011016588 0.00087264285)
(0.00036011638 -0.012916038 0.0017190443)
(-0.003293746 -0.013008271 0.0024286986)
(0.0015272478 0.0021281955 0.0003535657)
(-0.00077577605 -0.012725338 -0.0029490038)
(-0.0015358121 -0.010701174 -0.0033856296)
(-0.00040416666 -0.00014629512 0.001501771)
(0.0001601201 0.0013476097 6.0388709e-05)
(0.003344387 -0.0071165896 0.00079375367)
(0.0040948531 -0.01140129 0.0017443594)
(-0.0015730242 -0.012056061 0.0042445662)
(0.0013875859 0.0017931606 0.00071499948)
(-0.0024207385 0.005056581 -0.00075654774)
(0.0032489982 -0.012711175 0.0030673293)
(-0.00050090342 -0.012075196 0.0025362882)
(0.00049931889 -0.012075984 0.0025392699)
(-0.0032446495 -0.012712162 0.0030624573)
(0.0024200354 0.0050529579 -0.00075428064)
(-0.0013845124 0.0017950377 0.00071309154)
(0.001574031 -0.012054853 0.0042445539)
(-0.0040933722 -0.011401454 0.0017437198)
(-0.0033448154 -0.0071172359 0.00079441724)
(-0.0001591906 0.001347906 6.1314765e-05)
(0.0004041254 -0.00014559394 0.0015016757)
(0.0015355932 -0.010701132 -0.0033856638)
(0.00077558864 -0.012725313 -0.0029490034)
(-0.0015271646 0.0021280001 0.00035372273)
(0.0032935709 -0.013008164 0.0024290857)
(-0.00036002846 -0.012916023 0.001719285)
(-0.0010371812 -0.011016569 0.0008725813)
(-0.0019639729 -0.0031189995 0.00098974238)
(0.0031277581 0.0075111225 -0.00031676972)
(-0.0035747308 0.0095194278 0.0005181895)
(0.0013784523 0.0060709224 -0.00030401516)
(0.0020098603 0.010200975 -0.0043806835)
(-0.0031617341 0.0086286582 -0.0039580039)
(-0.0019624431 0.0042948651 -0.0014985058)
(0.0018833061 0.00098330443 8.2446762e-05)
(0.0039843511 0.0038763421 0.00034053117)
(0.0039798166 0.0067098412 -0.0011159356)
(-0.0012404333 0.0084234153 0.0010851168)
(-0.0014728346 0.0066976903 0.0012113602)
(0.0018612448 0.0074545132 -0.0012292149)
(0.0024295368 0.0094071302 0.00010466096)
(-0.00081030226 -0.0025194207 0.0013044304)
(0.00080853249 -0.0025266961 0.0013031998)
(-0.0024253747 0.0094019423 0.00010180724)
(-0.001861338 0.0074527327 -0.0012283749)
(0.0014755 0.0066973443 0.0012106449)
(0.0012413195 0.0084249293 0.0010850654)
(-0.0039801027 0.0067082466 -0.001117174)
(-0.0039839892 0.003874461 0.00034072161)
(-0.0018835967 0.00098298265 8.2036846e-05)
(0.001962707 0.0042959619 -0.0014984873)
(0.0031617531 0.0086288956 -0.0039579365)
(-0.0020100011 0.010200925 -0.0043805618)
(-0.0013784477 0.00607083 -0.0003038783)
(0.0035745812 0.0095193753 0.00051875226)
(-0.0031276199 0.0075110686 -0.00031642259)
(0.0019639076 -0.0031188989 0.0009898015)
(-0.0044339164 -0.0083683404 0.0021496806)
(-0.0044251863 -0.0081208684 0.0020149029)
(-0.0029336768 -0.0052479886 0.0014166269)
(-0.0010233062 -0.0034555208 0.00035873806)
(0.00062514912 -0.0044989991 -0.0010940206)
(0.0021970995 -0.0052926801 -0.0021864876)
(0.0030610957 -0.0066062406 -0.0021028263)
(0.00027617482 -0.0080704659 0.0005190641)
(-0.0026214258 -0.0065565169 0.0029806217)
(-0.0023388683 -0.0035117871 0.00286837)
(-0.0012939328 -0.0010007345 0.0016386431)
(0.00059323649 -0.00010268726 0.0024811798)
(0.0021890392 0.00067624426 0.0010572275)
(0.0039887162 -0.00604759 0.0016960825)
(0.0044138505 -0.0079126985 0.0025588381)
(-0.0044045859 -0.0079172807 0.0025544885)
(-0.0039904676 -0.0060568825 0.0016967485)
(-0.0021902493 0.00067430441 0.0010574818)
(-0.0005956399 -0.00010218701 0.0024802902)
(0.0012941578 -0.00099618958 0.0016383332)
(0.002339985 -0.003511458 0.0028690674)
(0.0026217613 -0.0065567724 0.0029810092)
(-0.00027734484 -0.00807053 0.00051755666)
(-0.0030611931 -0.0066057565 -0.0021029297)
(-0.0021968343 -0.0052920887 -0.0021865128)
(-0.00062497939 -0.0044990821 -0.0010939325)
(0.0010233756 -0.0034558721 0.00035878696)
(0.0029335562 -0.0052481111 0.0014165821)
(0.0044250604 -0.0081208899 0.0020148044)
(0.0044337882 -0.0083682653 0.0021496229)
(0.0013839445 -0.010394234 -0.00042837906)
(0.0029597558 -0.01165994 -5.1614729e-05)
(0.0040358719 -0.013512239 0.00013845457)
(0.0025661543 -0.013045272 0.00019107147)
(0.00093349331 -0.01457862 0.00036217444)
(-0.00021783845 -0.014592557 -0.001146602)
(-0.002384581 -0.013273666 -0.00069387339)
(-0.0031297149 -0.011261695 -0.001061781)
(-0.0019487245 -0.0097677715 -0.0014677226)
(-0.00020279821 -0.01069913 -0.0013370318)
(0.0020478561 -0.010695109 -0.0006968695)
(0.0032428898 -0.012083857 -0.00038146268)
(0.0011645395 -0.013838881 -0.00018789912)
(-0.0011644974 -0.013838201 -0.00018865918)
(-0.0032433162 -0.012082838 -0.00038194093)
(-0.002048182 -0.010694747 -0.0006965992)
(0.00020253991 -0.010699182 -0.001337159)
(0.0019489605 -0.0097677079 -0.0014678903)
(0.003129735 -0.011262702 -0.0010621416)
(0.0023845114 -0.013274336 -0.00069411773)
(0.00021778162 -0.014592793 -0.0011467284)
(-0.00093350228 -0.014578526 0.00036189264)
(-0.0025662546 -0.01304482 0.00019096653)
(-0.0040359642 -0.013511638 0.00013849811)
(-0.0029596429 -0.011659531 -5.145657e-05)
(-0.0013838188 -0.010394361 -0.00042825775)
(0.0019828177 0.0019307733 -0.00038518173)
(0.0035144242 0.0046301767 0.00025256758)
(0.0075284528 0.013289313 0.00054245988)
(0.0065431384 0.014983209 0.0006797017)
(0.0031298229 0.015557902 0.0019626829)
(-0.00090230326 0.015809103 0.00091713765)
(-0.0041017068 0.014102526 -0.00025091652)
(-0.0032781083 0.0084633366 -0.00029954808)
(-0.0017004805 -0.00090122994 -0.00066925461)
(0.00063033268 0.00086046184 -0.0014998468)
(0.0017212666 -0.00082589584 0.00044498673)
(0.0054633789 0.011109309 7.2598568e-05)
(0.0033322519 0.014825925 -0.00071359345)
(-0.0033317993 0.014825511 -0.00071280434)
(-0.0054631708 0.01110937 7.3448221e-05)
(-0.0017209799 -0.00082664134 0.00044629824)
(-0.00063020706 0.00085934865 -0.0014996908)
(0.0017007708 -0.0009021191 -0.00066916272)
(0.0032788997 0.0084648097 -0.00029985296)
(0.0041019589 0.014103096 -0.00025128728)
(0.00090177644 0.015809335 0.00091705357)
(-0.0031302622 0.015557839 0.0019624942)
(-0.0065433809 0.014982763 0.00067957541)
(-0.0075282262 0.013287975 0.00054237199)
(-0.0035140445 0.0046288468 0.00025261973)
(-0.0019826762 0.0019310036 -0.00038506977)
(0.0010995314 -0.010986469 -0.00017163298)
(-0.00098224617 -0.013377538 0.00047258556)
(-0.0036866712 -0.012976236 0.00050707083)
(0.0016271722 0.0012048865 0.00051522667)
(0.00068809194 0.0026275031 0.00084380591)
(0.00029631419 0.0037970611 -3.672714e-05)
(0.0001153986 -0.0035933336 0.00040672177)
(0.0030823282 -0.011618845 0.0026308652)
(0.00091079532 -0.011832918 0.0012955981)
(0.0015603889 -0.011058179 0.00045006957)
(-0.0023986193 -0.012748179 0.0025312973)
(-0.0047098591 -0.011087466 0.001460495)
(0.00061814527 -4.0278929e-05 -0.00067241835)
(-0.00061719843 -4.0272482e-05 -0.00067051676)
(0.0047105063 -0.011086735 0.0014603739)
(0.0023986063 -0.012747888 0.0025330069)
(-0.0015596215 -0.011057751 0.00045008584)
(-0.00091065567 -0.011833055 0.0012958508)
(-0.0030823064 -0.011619389 0.002631896)
(-0.00011523017 -0.0035909046 0.00040656439)
(-0.00029641377 0.0037975975 -3.6627854e-05)
(-0.00068797302 0.0026271135 0.00084369043)
(-0.0016269859 0.0012039971 0.00051506928)
(0.0036873183 -0.012976987 0.00050690937)
(0.00098216723 -0.013377537 0.00047249424)
(-0.0010995895 -0.010986333 -0.00017156722)
(-0.0013896522 -0.0030766801 -0.00034748288)
(0.0020619177 0.0089317103 5.2633677e-05)
(-0.0042404441 0.0089163181 -0.00023051851)
(-0.0015643066 0.0058057852 -2.2114809e-05)
(4.6758689e-05 0.0075855269 -0.0014879986)
(0.00065462824 0.0074043586 -0.0015434567)
(0.0013051788 0.0070279536 0.00032603863)