/*--------------------------------*- C++ -*----------------------------------*\
| =========                 |                                                 |
| \\      /  F ield         | OpenFOAM: The Open Source CFD Toolbox           |
|  \\    /   O peration     | Version:  v2012                                 |
|   \\  /    A nd           | Website:  www.openfoam.com                      |
|    \\/     M anipulation  |                                                 |
\*---------------------------------------------------------------------------*/
FoamFile
{
    version     2.0;
    format      ascii;
    class       volScalarField;
    location    "800/leftSolid";
    object      T;
}
// * * * * * * * * * * * * * * * * * * * * * * * * * * * * * * * * * * * * * //

dimensions      [0 0 0 1 0 0 0];


internalField   nonuniform List<scalar> 
130
(
931.40581
931.3627
931.25987
931.07738
930.84418
930.57383
930.27055
929.95591
929.64035
929.33445
929.05959
928.83456
928.67615
931.35298
931.31444
931.22533
931.0774
930.8685
930.60626
930.33645
930.05323
929.75401
929.43683
929.12532
928.89368
928.73927
931.23242
931.19536
931.11335
930.97856
930.78624
930.54833
930.30619
930.05215
929.78118
929.4901
929.22027
928.99363
928.84086
931.02519
930.98971
930.91114
930.78449
930.60616
930.38442
930.15737
929.92086
929.6724
929.41213
929.17183
928.97414
928.8458
930.7396
930.70417
930.62477
930.49632
930.31398
930.09452
929.86716
929.62743
929.37133
929.11172
928.87314
928.68086
928.55392
930.41826
930.37625
930.28699
930.1459
929.95523
929.73511
929.49451
929.22787
928.93445
928.61137
928.33235
928.13053
928.00866
930.11606
930.06806
929.96499
929.8004
929.5754
929.32832
929.0623
928.77235
928.45115
928.11352
927.79803
927.59463
927.48467
929.85836
929.80054
929.67971
929.48728
929.2514
928.99805
928.72406
928.42518
928.10123
927.75863
927.39768
927.17328
927.05767
929.65432
929.58436
929.4335
929.23252
929.00124
928.74379
928.45838
928.15709
927.84244
927.5184
927.17892
926.94074
926.81619
929.53873
929.45889
929.29034
929.08141
928.84731
928.58349
928.30189
928.00542
927.69384
927.37981
927.06404
926.84179
926.72031
)
;

boundaryField
{
    minX
    {
        type            zeroGradient;
    }
    minZ
    {
        type            zeroGradient;
    }
    maxZ
    {
        type            zeroGradient;
    }
    leftSolid_to_bottomWater
    {
        type            compressible::turbulentTemperatureCoupledBaffleMixed;
        refValue        nonuniform List<scalar> 
130
(
974.00727
974.17798
974.19304
968.46335
964.44944
960.71154
955.07174
951.51209
948.96326
946.69921
945.76545
943.90568
935.12593
973.74781
973.87259
973.76155
973.66388
971.93366
964.73744
963.54523
962.61952
961.49339
956.86577
946.02766
945.94932
939.68537
973.76355
973.43452
973.32329
973.08105
971.41917
965.44688
965.02367
964.82583
964.71896
960.11809
958.16586
954.75519
947.9161
971.95812
971.71702
971.4503
971.4535
970.93139
966.21597
966.10411
966.49678
967.334
965.10072
964.0747
962.94283
959.83194
968.30778
968.43356
968.4624
968.81295
967.18089
963.54599
963.86013
964.62691
963.89023
963.88058
963.31706
962.64011
958.37969
964.33977
963.91908
963.56985
962.97114
961.95121
961.83617
962.35763
961.29555
960.27544
950.16918
946.41953
945.8088
942.79463
961.98829
961.8938
961.42543
959.68898
954.3858
953.6502
953.48804
952.71667
948.91779
943.91853
935.62771
938.45449
938.53163
961.69337
961.4273
961.37519
955.97398
953.20077
953.5252
953.73513
952.56281
950.48254
948.86935
931.29856
933.50582
933.43281
960.75125
960.10434
955.4472
954.31498
954.05197
953.76267
951.31938
950.11144
949.21231
949.87101
939.1085
935.94176
934.44848
959.83973
958.43471
952.17936
950.71604
950.94676
949.14822
948.44436
948.10862
946.59819
946.44569
937.46136
935.84258
932.79847
)
;
        refGradient     uniform 0;
        valueFraction   nonuniform List<scalar> 
130
(
0.0075140686
0.0075140686
0.0075140686
0.0075140686
0.0075140686
0.0075140686
0.0075140686
0.0075140686
0.0075140686
0.0075140686
0.0075140686
0.0075140686
0.0075140686
0.0075140686
0.0075140686
0.0075140686
0.0075140686
0.0075140686
0.0075140686
0.0075140686
0.0075140686
0.0075140686
0.0075140686
0.0075140686
0.0075140686
0.0075140686
0.0075140686
0.0075140686
0.0075140686
0.0075140686
0.0075140686
0.0075140686
0.0075140686
0.0075140686
0.0075140686
0.0075140686
0.0075140686
0.0075140686
0.0075140686
0.0075140686
0.0075140686
0.0075140686
0.0075140686
0.0075140686
0.0075140686
0.0075140686
0.0075140686
0.0075140686
0.0075140686
0.0075140686
0.0075140686
0.0075140686
0.0075140686
0.0075140686
0.0075140686
0.0075140686
0.0075140686
0.0075140686
0.0075140686
0.0075140686
0.0075140686
0.0075140686
0.0075140686
0.0075140686
0.0075140686
0.0075140686
0.0075140686
0.0075140686
0.0075140686
0.0075140686
0.0075140686
0.0075140686
0.0075140686
0.0075140686
0.0075140686
0.0075140686
0.0075140686
0.0075140686
0.0075140686
0.0075140686
0.0075140686
0.0075140686
0.0075140686
0.0075140686
0.0075140686
0.0075140686
0.0075140686
0.0075140686
0.0075140686
0.0075140686
0.0075140686
0.0075140686
0.0075140686
0.0075140686
0.0075140686
0.0075140686
0.0075140686
0.0075140686
0.0075140686
0.0075140686
0.0075140686
0.0075140686
0.0075140686
0.0075140686
0.0075140686
0.0075140686
0.0075140686
0.0075140686
0.0075140686
0.0075140686
0.0075140686
0.0075140686
0.0075140686
0.0075140686
0.0075140686
0.0075140686
0.0075140686
0.0075140686
0.0075140686
0.0075140686
0.0075140686
0.0075140686
0.0075140686
0.0075140686
0.0075140686
0.0075140686
0.0075140686
0.0075140686
0.0075140686
0.0075140686
)
;
        value           nonuniform List<scalar> 
130
(
931.7252
931.68371
931.58178
931.35764
931.09607
930.79981
930.45651
930.1175
929.78515
929.46451
929.1847
928.94737
928.72418
931.67084
931.63354
931.54427
931.39674
931.17643
930.86217
930.58551
930.29748
929.99205
929.64248
929.25184
929.02131
928.82097
931.55134
931.51209
931.42986
931.29427
931.09088
930.80997
930.56653
930.31293
930.04318
929.71969
929.43719
929.18655
928.98346
931.33218
931.29516
931.21517
931.08948
930.90854
930.65308
930.42691
930.19511
929.95478
929.67966
929.4334
929.22862
929.07779
931.02141
930.9872
930.90859
930.78371
930.59043
930.34531
930.122
929.88981
929.63009
929.37233
929.13125
928.93524
928.77718
930.67281
930.62794
930.53673
930.39219
930.19524
929.97586
929.74096
929.46835
929.16946
928.77288
928.46775
928.26281
928.11918
930.35532
930.30696
930.20116
930.02482
929.76164
929.51078
929.24547
928.9519
928.60459
928.23193
927.85645
927.67576
927.56719
930.09738
930.03798
929.91769
929.68618
929.43114
929.18205
928.91166
928.60621
928.26907
927.9169
927.42657
927.22041
927.10513
929.88782
929.81356
929.62885
929.42075
929.18918
928.93146
928.6298
928.32169
928.00264
927.68594
927.26805
927.00788
926.87309
929.76629
929.67655
929.46224
929.24379
929.01312
928.73772
928.45291
928.15612
927.83549
927.52265
927.14174
926.90907
926.76572
)
;
        Tnbr            T;
        thicknessLayers List<scalar> 0();
        kappaLayers     List<scalar> 0();
        kappaMethod     solidThermo;
        kappa           none;
        alphaAni        none;
        alpha           none;
        field           T;
    }
    leftSolid_to_heater
    {
        type            compressible::turbulentTemperatureCoupledBaffleMixed;
        refValue        nonuniform List<scalar> 10(729.11161 719.87064 700.35013 668.56057 622.22052 622.25685 668.75257 700.49162 719.98063 729.24038);
        refGradient     uniform 0;
        valueFraction   nonuniform List<scalar> 10(2.08329e-05 2.08329e-05 2.08329e-05 2.08329e-05 2.08329e-05 2.08329e-05 2.08329e-05 2.08329e-05 2.08329e-05 2.08329e-05);
        value           nonuniform List<scalar> 10(928.67156 928.73436 928.83536 928.83953 928.54668 928.0017 927.47879 927.05251 926.81143 926.71594);
        Tnbr            T;
        thicknessLayers List<scalar> 1(0.001);
        kappaLayers     List<scalar> 1(0.0005);
        kappaMethod     solidThermo;
        kappa           none;
        alphaAni        none;
        alpha           none;
        field           T;
    }
    leftSolid_to_topAir
    {
        type            compressible::turbulentTemperatureCoupledBaffleMixed;
        refValue        nonuniform List<scalar> 
130
(
325.65969
349.37961
370.84543
390.67796
409.39221
427.28864
444.46063
460.73951
475.83571
489.7045
502.21072
513.10134
521.81303
325.65102
349.11354
370.07828
389.16673
406.85657
423.38978
438.81467
453.05799
465.89506
476.95053
485.70246
491.52957
493.60237
325.64274
349.14295
370.16456
389.32716
407.11549
423.78587
439.45444
454.1359
467.74597
480.07082
490.70788
498.97116
503.61211
325.63412
349.1422
370.19627
389.42329
407.32859
424.20557
440.21698
455.45305
469.93836
483.60174
496.184
507.03739
514.85143
325.62171
349.12339
370.17764
389.41038
407.32746
424.22326
440.26129
455.52706
470.0288
483.64485
495.97944
506.12609
512.77802
325.60875
349.09818
370.14056
389.36114
407.26529
424.14695
440.16664
455.40505
469.86344
483.40017
495.57116
505.39354
511.64478
325.59745
349.07143
370.09308
389.28723
407.15726
423.99535
439.96159
455.14061
469.54187
483.07377
495.42869
505.88175
513.06322
325.58735
349.03615
370.00934
389.12379
406.86368
423.48536
439.09358
453.71088
467.24873
479.46769
489.92643
497.88119
502.00421
325.58249
348.98102
369.88484
388.91303
406.54178
423.01448
438.38924
452.58393
465.36827
476.36644
485.03563
490.71694
492.5353
325.58439
349.23374
370.63202
390.399
409.04941
426.88619
444.01561
460.28074
475.36869
489.23121
501.7244
512.58652
521.23756
)
;
        refGradient     uniform 0;
        valueFraction   nonuniform List<scalar> 
130
(
0.00032132529
0.00032132529
0.00032132529
0.00032132529
0.00032132529
0.00032132529
0.00032132529
0.00032132529
0.00032132529
0.00032132529
0.00032132529
0.00032132529
0.00032132529
0.00032132529
0.00032132529
0.00032132529
0.00032132529
0.00032132529
0.00032132529
0.00032132529
0.00032132529
0.00032132529
0.00032132529
0.00032132529
0.00032132529
0.00032132529
0.00032132529
0.00032132529
0.00032132529
0.00032132529
0.00032132529
0.00032132529
0.00032132529
0.00032132529
0.00032132529
0.00032132529
0.00032132529
0.00032132529
0.00032132529
0.00032132529
0.00032132529
0.00032132529
0.00032132529
0.00032132529
0.00032132529
0.00032132529
0.00032132529
0.00032132529
0.00032132529
0.00032132529
0.00032132529
0.00032132529
0.00032132529
0.00032132529
0.00032132529
0.00032132529
0.00032132529
0.00032132529
0.00032132529
0.00032132529
0.00032132529
0.00032132529
0.00032132529
0.00032132529
0.00032132529
0.00032132529
0.00032132529
0.00032132529
0.00032132529
0.00032132529
0.00032132529
0.00032132529
0.00032132529
0.00032132529
0.00032132529
0.00032132529
0.00032132529
0.00032132529
0.00032132529
0.00032132529
0.00032132529
0.00032132529
0.00032132529
0.00032132529
0.00032132529
0.00032132529
0.00032132529
0.00032132529
0.00032132529
0.00032132529
0.00032132529
0.00032132529
0.00032132529
0.00032132529
0.00032132529
0.00032132529
0.00032132529
0.00032132529
0.00032132529
0.00032132529
0.00032132529
0.00032132529
0.00032132529
0.00032132529
0.00032132529
0.00032132529
0.00032132529
0.00032132529
0.00032132529
0.00032132529
0.00032132529
0.00032132529
0.00032132529
0.00032132529
0.00032132529
0.00032132529
0.00032132529
0.00032132529
0.00032132529
0.00032132529
0.00032132529
0.00032132529
0.00032132529
0.00032132529
0.00032132529
0.00032132529
0.00032132529
0.00032132529
0.00032132529
0.00032132529
)
;
        value           nonuniform List<scalar> 
130
(
931.21044
931.17498
931.0791
930.90307
930.676
930.41163
930.11405
929.80475
929.49413
929.19277
928.92201
928.70054
928.54498
931.15765
931.12668
931.04434
930.9026
930.69948
930.44272
930.17803
929.8995
929.6045
929.29098
928.98235
928.75262
928.59889
931.03717
931.00767
930.93244
930.80385
930.61729
930.3849
930.14793
929.89871
929.63219
929.34514
929.07878
928.85479
928.70348
930.83008
930.80216
930.73038
930.60994
930.43738
930.22119
929.99937
929.76781
929.52406
929.26824
929.03201
928.83779
928.71193
930.54468
930.51681
930.44419
930.32193
930.14536
929.9314
929.70925
929.47448
929.22311
928.96793
928.73333
928.54429
928.41946
930.22358
930.18912
930.10665
929.97177
929.78686
929.57219
929.33679
929.07513
928.78645
928.46783
928.19278
927.99414
927.87428
929.92158
929.88112
929.78487
929.62655
929.40734
929.16565
928.90477
928.61979
928.30334
927.97016
927.65869
927.45865
927.35101
929.664
929.61371
929.49969
929.31353
929.08332
928.83532
928.56639
928.2723
927.95281
927.61423
927.25669
927.03488
926.92065
929.46005
929.39767
929.25358
929.05866
928.83306
928.58096
928.30055
928.0039
927.69346
927.37302
927.03634
926.80008
926.6762
929.34454
929.27238
929.11074
928.90813
928.68004
928.42198
928.14594
927.85476
927.5481
927.23859
926.92694
926.70832
926.58976
)
;
        Tnbr            T;
        thicknessLayers List<scalar> 0();
        kappaLayers     List<scalar> 0();
        kappaMethod     solidThermo;
        kappa           none;
        alphaAni        none;
        alpha           none;
        field           T;
    }
}


// ************************************************************************* //
