/*--------------------------------*- C++ -*----------------------------------*\
| =========                 |                                                 |
| \\      /  F ield         | OpenFOAM: The Open Source CFD Toolbox           |
|  \\    /   O peration     | Version:  v2012                                 |
|   \\  /    A nd           | Website:  www.openfoam.com                      |
|    \\/     M anipulation  |                                                 |
\*---------------------------------------------------------------------------*/
FoamFile
{
    version     2.0;
    format      ascii;
    class       volScalarField;
    location    "230/topAir";
    object      rho;
}
// * * * * * * * * * * * * * * * * * * * * * * * * * * * * * * * * * * * * * //

dimensions      [1 -3 0 0 0 0 0];


internalField   nonuniform List<scalar> 
1200
(
1.0869594
1.0279265
0.97974977
0.93917653
0.90400208
0.8728618
0.84492775
0.81978764
0.79770704
0.77836402
0.76155881
0.7472338
0.73559262
0.73189942
0.73078511
0.73241808
0.73655145
0.74244333
0.74909957
0.75564626
0.76151894
0.76643041
0.77026205
0.77295043
0.77442555
0.77458013
0.7732097
0.76987752
0.76368239
0.75358403
1.1569743
1.153872
1.1496407
1.1444855
1.1385602
1.1319834
1.1248652
1.1172817
1.1071425
1.0938089
1.0758189
1.0516921
1.0213247
0.98826331
0.95601392
0.92807518
0.90612985
0.89002442
0.87878982
0.87147822
0.86723701
0.86514331
0.86426038
0.86371003
0.86268751
0.86040475
0.85590762
0.84773502
0.83337659
0.81070818
1.1585833
1.1584795
1.1582867
1.1579861
1.1575615
1.156999
1.1562873
1.1554165
1.1543241
1.1529325
1.1510687
1.1465409
1.1338077
1.109034
1.0740437
1.0349145
0.99679311
0.96387616
0.93721426
0.91658045
0.90129643
0.89043176
0.88293862
0.87777571
0.87398373
0.87069573
0.86704596
0.86193933
0.85348284
0.838927
1.1586181
1.1586146
1.1586064
1.1585902
1.1585622
1.1585177
1.158451
1.1583556
1.1582218
1.1580352
1.1577661
1.1572601
1.1557936
1.1481538
1.1232074
1.0845427
1.0445248
1.008899
0.97867616
0.95363839
0.93343444
0.91760527
0.90550931
0.89637868
0.88942953
0.88392718
0.87918113
0.8744066
0.86835143
0.8589595
1.0869615
1.0285263
0.98135484
0.94209956
0.90855713
0.87941649
0.85390063
0.83157322
0.81226332
0.79601986
0.78301073
0.773518
0.76793365
0.77278925
0.78099466
0.79160434
0.80319831
0.81401654
0.8228224
0.82937905
0.83412059
0.83756214
0.84000017
0.8414435
0.84171782
0.84057348
0.8376013
0.83188345
0.8214375
0.80559232
1.1569762
1.1539318
1.1498601
1.1449966
1.1395247
1.133596
1.1273541
1.120956
1.1145639
1.1084027
1.1027019
1.0977546
1.0938634
1.0915007
1.0905785
1.090335
1.0896729
1.0873805
1.083106
1.0773584
1.0707363
1.0634355
1.0554316
1.0465879
1.036747
1.0258188
1.0137949
1.0008248
0.98667771
0.96174075
1.1585834
1.1584824
1.1582996
1.158022
1.1576405
1.1571492
1.1565461
1.1558339
1.1550196
1.154118
1.1531525
1.1521044
1.1508732
1.1494265
1.1473809
1.1426109
1.1334794
1.1185157
1.0993832
1.0795929
1.0614803
1.0442236
1.0274972
1.0113776
0.99580785
0.98082691
0.96517521
0.94853477
0.9307842
0.91127856
1.1586181
1.1586148
1.1586071
1.1585925
1.158568
1.1585305
1.1584764
1.1584018
1.1583027
1.1581745
1.1580104
1.1577873
1.1573759
1.1558387
1.1492385
1.1312436
1.1003444
1.0635307
1.0281707
0.99696472
0.97092302
0.95087195
0.93561412
0.92334225
0.91300951
0.90400178
0.89667389
0.89026734
0.88392924
0.8768666
1.0869507
1.0283941
0.98108635
0.94168232
0.90796305
0.87859831
0.85277044
0.82994083
0.80976501
0.79207406
0.77686916
0.76427444
0.7547131
0.75622612
0.76178302
0.77227925
0.78743669
0.80497024
0.82238887
0.83795684
0.85085933
0.8609873
0.86838924
0.87301508
0.87482498
0.87392158
0.87043859
0.86408406
0.85268134
0.8278595
1.1569756
1.1539201
1.1498288
1.1449408
1.1394389
1.1334691
1.1271598
1.1206351
1.1140259
1.1074894
1.1012274
1.0954998
1.0906713
1.0875244
1.086602
1.0881597
1.0907777
1.0918951
1.0903096
1.0859547
1.0793442
1.0708826
1.0605661
1.0482104
1.0338177
1.0176779
1.0000281
0.9812282
0.95986025
0.93197607
1.1585834
1.1584819
1.1582981
1.1580191
1.1576364
1.1571444
1.1565411
1.1558281
1.1550114
1.1541032
1.1531259
1.1521192
1.1511456
1.1503077
1.1496896
1.1487042
1.1436536
1.132332
1.1175814
1.1011151
1.0843976
1.0674061
1.0489021
1.0281546
1.0057736
0.9833402
0.96195492
0.94236465
0.9245212
0.90290045
1.1586181
1.1586148
1.158607
1.1585923
1.1585679
1.1585306
1.1584771
1.1584039
1.1583075
1.1581847
1.1580322
1.1578471
1.1576229
1.1573188
1.1566052
1.1529321
1.1353717
1.1046731
1.0742257
1.0386417
1.0054191
0.97893896
0.95890567
0.94339721
0.9308094
0.92013212
0.910973
0.90301292
0.89471803
0.88139062
1.0869356
1.0283325
0.98093899
0.94140837
0.9075001
0.8778425
0.85155435
0.82802058
0.8067908
0.78752724
0.76997166
0.7539661
0.7396646
0.73593368
0.73444024
0.73587966
0.73861941
0.74021916
0.74040641
0.74036236
0.74102041
0.74272347
0.74544776
0.74880269
0.75236932
0.75557538
0.75633986
0.75030806
0.7384695
0.72468689
1.1569751
1.1539151
1.1498107
1.1448973
1.1393515
1.1333077
1.1268748
1.1201451
1.1132013
1.1061281
1.0990271
1.0920471
1.0854711
1.0802141
1.0771363
1.0765825
1.0758782
1.0733788
1.0696575
1.0650636
1.0593303
1.0520614
1.0427343
1.0308919
1.0164735
0.99958042
0.98008327
0.95926667
0.9188885
0.8491316
1.1585834
1.1584817
1.1582971
1.1580164
1.1576302
1.157132
1.1565178
1.1557862
1.1549378
1.1539768
1.1529132
1.1517701
1.1506003
1.1495318
1.1487002
1.1464987
1.1355167
1.1205938
1.1086192
1.0967592
1.0823437
1.0644422
1.041939
1.0157001
0.98836394
0.96199966
0.93474431
0.91413177
0.89717699
0.85646802
1.1586181
1.1586147
1.1586069
1.1585922
1.1585675
1.1585297
1.1584752
1.1584004
1.1583012
1.1581735
1.158013
1.1578151
1.1575735
1.1572539
1.1563012
1.1469886
1.0989231
1.0477253
1.0324451
1.033186
1.0091361
0.98500704
0.9672172
0.95239344
0.93931818
0.92654506
0.90736392
0.88774863
0.87101694
0.84716861
1.0869317
1.0283139
0.98089749
0.94133727
0.90739103
0.87768372
0.85132924
0.82770723
0.8063568
0.78692718
0.76917662
0.75292771
0.73846149
0.73707131
0.73816986
0.7410396
0.74142633
0.73679585
0.72994699
0.72296563
0.7161794
0.70987584
0.70431062
0.6996882
0.69611648
0.69348448
0.69122621
0.68809308
0.68238277
0.67183745
1.156975
1.1539131
1.1498035
1.1448803
1.1393188
1.1332513
1.1267833
1.1200022
1.1129834
1.1058012
1.0985478
1.0912945
1.0843495
1.0791824
1.0765781
1.0754384
1.0720747
1.0671887
1.0599021
1.0494663
1.0380797
1.0263935
1.0129554
0.99508879
0.97099758
0.94086826
0.90531622
0.8643562
0.81712151
0.76099006
1.1585834
1.1584816
1.1582967
1.1580151
1.1576273
1.1571264
1.1565077
1.1557689
1.1549094
1.1539312
1.1528419
1.1516615
1.1504489
1.1493732
1.1484036
1.1416623
1.1263383
1.1158824
1.1088714
1.1009142
1.0886868
1.0693057
1.0416603
1.0086825
0.97642094
0.95212305
0.93509606
0.90883517
0.86701219
0.80618318
1.1586181
1.1586147
1.1586069
1.1585921
1.1585673
1.1585292
1.1584742
1.1583985
1.1582977
1.1581674
1.1580025
1.1577968
1.1575396
1.1571414
1.154939
1.1237704
1.0182943
0.99913025
0.99172189
0.98623924
0.97772896
0.96516378
0.95197647
0.938676
0.92541324
0.91218823
0.89927722
0.89180976
0.86501053
0.81841884
1.0869424
1.0283342
0.98092624
0.94137336
0.90743449
0.87773575
0.85139241
0.8277859
0.80645405
0.78704436
0.76930757
0.75305934
0.73862232
0.73746767
0.73891641
0.74185955
0.74215228
0.73745587
0.73056088
0.72352617
0.71667526
0.71029334
0.70463951
0.69992893
0.69628574
0.6935885
0.69125233
0.68799774
0.68211496
0.67134248
1.1569752
1.1539139
1.1498052
1.144883
1.139323
1.1332574
1.1267921
1.1200147
1.1130011
1.1058264
1.0985856
1.0914366
1.084738
1.0796923
1.0772438
1.0758291
1.0722858
1.0673083
1.0600133
1.0495867
1.0380985
1.0260609
1.0119559
0.99315332
0.96785778
0.93649854
0.90007145
0.85891288
0.81230953
0.75750252
1.1585834
1.1584816
1.1582967
1.1580153
1.1576275
1.1571267
1.1565082
1.1557697
1.1549106
1.1539331
1.1528452
1.1516702
1.150474
1.1494249
1.1483813
1.1403962
1.1257206
1.1155615
1.1087044
1.1009209
1.0889437
1.0700642
1.0432126
1.0112663
0.9798274
0.95559831
0.93716927
0.90830628
0.86440283
0.80255561
1.1586181
1.1586147
1.1586069
1.1585921
1.1585673
1.1585292
1.1584743
1.1583985
1.1582978
1.1581675
1.1580025
1.1577966
1.1575379
1.1571086
1.1543801
1.1169294
1.0181896
1.0000969
0.99296231
0.9875869
0.97984691
0.96772901
0.95453056
0.94087626
0.92701273
0.91302449
0.89891225
0.89078719
0.86147176
0.81140308
1.0869595
1.0283758
0.98099907
0.94148194
0.90758618
0.87794273
0.8516718
0.82815966
0.806953
0.78771771
0.7702049
0.75425816
0.740073
0.73653962
0.73538316
0.73716875
0.74003464
0.74146243
0.7413358
0.74100727
0.74140024
0.74284428
0.74534585
0.74857545
0.75220555
0.75556848
0.75639561
0.75028771
0.73832075
0.72431624
1.1569757
1.1539168
1.1498141
1.1449028
1.1393597
1.1333193
1.1268908
1.120167
1.113231
1.1061687
1.0990849
1.0921361
1.0856244
1.0804868
1.0775977
1.0771079
1.0762199
1.073464
1.0695603
1.0648656
1.0591051
1.0518738
1.0426478
1.030959
1.0166879
0.99982678
0.98018245
0.9591221
0.91845333
0.84867762
1.1585834
1.1584817
1.1582973
1.1580167
1.1576306
1.1571326
1.1565189
1.1557877
1.15494
1.15398
1.1529183
1.1517788
1.1506178
1.149568
1.1487331
1.1460403
1.1343556
1.1194893
1.1080031
1.0966797
1.0828224
1.0655297
1.0437759
1.0183233
0.99145761
0.96450361
0.93545356
0.91411729
0.89650024
0.85478141
1.1586181
1.1586147
1.1586069
1.1585922
1.1585675
1.1585297
1.1584753
1.1584005
1.1583013
1.1581737
1.1580132
1.1578153
1.1575732
1.1572415
1.1560986
1.1447109
1.0948161
1.0414694
1.0296126
1.0328668
1.0093674
0.98610295
0.96838318
0.95342753
0.94007403
0.92668191
0.90411441
0.88415033
0.86743601
0.84063621
1.0869812
1.0284466
0.98115694
0.94176913
0.90806471
0.87871507
0.85290202
0.83008828
0.8099277
0.79225146
0.77705865
0.76448087
0.75495469
0.75654821
0.7622772
0.77304755
0.78846066
0.80607988
0.82341479
0.83875365
0.85139053
0.86129672
0.86856416
0.87318507
0.87513844
0.87447981
0.87127703
0.8651969
0.85406026
0.82946081
1.1569764
1.1539222
1.1498328
1.1449472
1.1394482
1.1334819
1.1271769
1.1206575
1.1140548
1.1075269
1.1012766
1.095567
1.0907707
1.0876857
1.0868739
1.0885474
1.0911384
1.0920418
1.0902338
1.0857377
1.0790894
1.0706921
1.0605387
1.0484199
1.0342654
1.0182458
1.0005139
0.9814765
0.95969993
0.93121279
1.1585834
1.158482
1.1582982
1.1580194
1.1576368
1.1571451
1.1565422
1.1558296
1.1550135
1.1541062
1.1531302
1.1521257
1.1511571
1.1503297
1.1497228
1.1486221
1.1431133
1.1312575
1.116461
1.1002628
1.0839761
1.0674913
1.0495517
1.0293538
1.0073204
0.98475425
0.96275396
0.94258357
0.92410255
0.90116772
1.1586181
1.1586148
1.158607
1.1585923
1.1585679
1.1585306
1.1584771
1.1584039
1.1583076
1.1581848
1.1580324
1.1578472
1.1576229
1.157317
1.1565696
1.1524618
1.1336656
1.1017826
1.0725384
1.0379777
1.0054555
0.97931523
0.95939746
0.94388794
0.93124302
0.9204557
0.91115048
0.9031099
0.89437517
0.87856341
1.0869951
1.0285835
0.98142981
0.94218856
0.90865801
0.87952783
0.85401949
0.83169545
0.81238557
0.79614103
0.78313005
0.77363448
0.76804859
0.77291085
0.78116303
0.79189728
0.80368937
0.81470303
0.82364222
0.83024703
0.83495979
0.83831762
0.84064473
0.84198736
0.8422103
0.84108816
0.83821375
0.83266575
0.82244422
0.80659646
1.156977
1.1539341
1.1498643
1.1450031
1.1395339
1.1336082
1.1273695
1.1209749
1.1145863
1.1084294
1.1027332
1.0977906
1.0939064
1.0915597
1.0906749
1.0904963
1.0898873
1.0875703
1.0832104
1.0773602
1.070655
1.0633091
1.0553088
1.0465191
1.0367652
1.0259183
1.0139278
1.0009188
0.9866431
0.96240812
1.1585835
1.1584825
1.1582998
1.1580223
1.157641
1.1571499
1.1565471
1.1558352
1.1550212
1.1541201
1.153155
1.1521067
1.1508747
1.1494325
1.1473908
1.1426171
1.1334057
1.1182004
1.0988536
1.0789316
1.0608277
1.0436752
1.0270897
1.0110986
0.99562772
0.9807695
0.96521042
0.94862894
0.93096001
0.91161179
1.1586181
1.1586148
1.1586071
1.1585925
1.1585681
1.1585306
1.1584764
1.1584019
1.1583028
1.1581746
1.1580105
1.1577872
1.1573748
1.1558323
1.1492423
1.1313411
1.1006132
1.0639592
1.0287165
0.99754114
0.97146906
0.9513693
0.93607478
0.9237696
0.91339881
0.90432053
0.89695352
0.89054331
0.88424241
0.87727195
1.0869933
1.027984
0.97982358
0.93926132
0.9040929
0.87295342
0.84501483
0.81986531
0.79777404
0.77842079
0.76160719
0.74727684
0.73563451
0.73194227
0.73084415
0.73251732
0.7367199
0.74269935
0.74944389
0.75606371
0.76198523
0.76691894
0.77074697
0.77341534
0.77487097
0.77502179
0.7736716
0.77038788
0.76426989
0.75424767
1.1569751
1.1538743
1.149645
1.144492
1.138569
1.1319946
1.1248785
1.1172968
1.107153
1.0938038
1.0757769
1.0515938
1.0211644
0.9880699
0.9558416
0.92796966
0.90609807
0.89003349
0.87880559
0.87148779
0.86724711
0.86516854
0.86431885
0.86382573
0.8628903
0.86072337
0.85636403
0.84835786
0.83421276
0.81160118
1.1585833
1.1584796
1.1582869
1.1579864
1.157562
1.1569997
1.1562882
1.1554177
1.1543254
1.1529334
1.1510673
1.1465113
1.1337024
1.1088492
1.0738531
1.0348017
0.99678745
0.96396533
0.93735462
0.91673374
0.90144153
0.89056381
0.88306377
0.87790773
0.87414173
0.87090141
0.86732155
0.86231542
0.85401819
0.8396523
1.1586181
1.1586146
1.1586064
1.1585902
1.1585622
1.1585177
1.1584511
1.1583557
1.1582219
1.1580353
1.1577658
1.1572579
1.1557825
1.1480795
1.1231135
1.0845836
1.0447295
1.0092278
0.97906259
0.95402709
0.93379199
0.91791859
0.90577948
0.89661531
0.88964681
0.88414114
0.87940957
0.87467335
0.86870206
0.8594672
)
;

boundaryField
{
    maxY
    {
        type            calculated;
        value           nonuniform List<scalar> 
300
(
1.1586175
1.1586175
1.1586175
1.1586175
1.1586175
1.1586175
1.1586175
1.1586175
1.1586175
1.1586175
1.1586141
1.1586142
1.1586142
1.1586142
1.1586142
1.1586142
1.1586142
1.1586142
1.1586142
1.1586141
1.1586059
1.1586065
1.1586065
1.1586064
1.1586064
1.1586064
1.1586064
1.1586065
1.1586065
1.1586059
1.1585897
1.1585919
1.1585918
1.1585916
1.1585916
1.1585916
1.1585916
1.1585918
1.1585919
1.1585897
1.1585617
1.1585675
1.1585674
1.158567
1.1585668
1.1585668
1.158567
1.1585674
1.1585675
1.1585617
1.1585172
1.15853
1.1585301
1.1585292
1.1585287
1.1585287
1.1585292
1.1585301
1.1585301
1.1585172
1.1584505
1.1584759
1.1584765
1.1584747
1.1584737
1.1584737
1.1584748
1.1584766
1.1584759
1.1584506
1.1583551
1.1584013
1.1584033
1.1583999
1.158398
1.158398
1.1584
1.1584034
1.1584013
1.1583551
1.1582213
1.1583021
1.158307
1.1583007
1.1582972
1.1582973
1.1583008
1.1583071
1.1583022
1.1582213
1.1580347
1.1581739
1.1581841
1.158173
1.1581669
1.158167
1.1581731
1.1581843
1.158174
1.1580347
1.1577655
1.1580099
1.1580317
1.1580125
1.1580019
1.1580019
1.1580127
1.1580318
1.15801
1.1577653
1.1572595
1.1577868
1.1578466
1.1578145
1.1577962
1.1577961
1.1578148
1.1578467
1.1577867
1.1572574
1.155793
1.1573753
1.1576224
1.157573
1.1575391
1.1575373
1.1575726
1.1576224
1.1573743
1.155782
1.1481532
1.1558382
1.1573183
1.1572534
1.1571409
1.1571081
1.157241
1.1573165
1.1558317
1.148079
1.1232069
1.149238
1.1566046
1.1563007
1.1549385
1.1543796
1.1560981
1.1565691
1.1492418
1.123113
1.0845422
1.1312431
1.1529315
1.1469881
1.1237699
1.1169289
1.1447104
1.1524612
1.1313406
1.0845831
1.0445244
1.1003439
1.1353712
1.0989227
1.0182939
1.0181892
1.0948156
1.133665
1.1006127
1.044729
1.0088986
1.0635303
1.1046726
1.0477248
0.99912986
1.0000965
1.041469
1.1017821
1.0639588
1.0092274
0.97867579
1.0281703
1.0742252
1.0324447
0.99172151
0.99296192
1.0296121
1.0725379
1.0287161
0.97906222
0.95363804
0.99696433
1.0386413
1.0331856
0.98623885
0.98758651
1.0328663
1.0379773
0.99754075
0.95402673
0.9334341
0.97092265
1.0054187
1.0091357
0.97772859
0.97984653
1.009367
1.0054551
0.97146869
0.93379164
0.91760494
0.95087159
0.97893858
0.98500666
0.96516341
0.96772864
0.98610257
0.97931485
0.95136894
0.91791826
0.90550899
0.93561377
0.95890531
0.96721683
0.95197611
0.9545302
0.96838281
0.9593971
0.93607444
0.90577916
0.89637836
0.92334192
0.94339687
0.95239309
0.93867565
0.94087591
0.95342717
0.94388759
0.92376926
0.89661499
0.88942922
0.91300918
0.93080906
0.93931783
0.9254129
0.92701239
0.94007369
0.93124268
0.91339848
0.8896465
0.88392687
0.90400146
0.92013179
0.92654473
0.91218791
0.91302416
0.92668157
0.92045536
0.90432021
0.88414083
0.87918083
0.89667357
0.91097267
0.90736359
0.89927691
0.89891193
0.90411409
0.91115016
0.8969532
0.87940927
0.8744063
0.89026703
0.9030126
0.88774832
0.89180945
0.89078688
0.88415002
0.90310958
0.890543
0.87467305
0.86835114
0.88392894
0.89471772
0.87101664
0.86501024
0.86147147
0.86743572
0.89437486
0.88424211
0.86870177
0.85895921
0.8768663
0.88139032
0.84716833
0.81841858
0.81140282
0.84063593
0.87856311
0.87727164
0.85946691
)
;
    }
    minX
    {
        type            calculated;
        value           nonuniform List<scalar> 
40
(
1.1586221
1.1586211
1.15862
1.158619
1.1586221
1.1586211
1.15862
1.158619
1.1586221
1.1586211
1.15862
1.158619
1.1586221
1.1586211
1.15862
1.158619
1.1586221
1.1586211
1.15862
1.158619
1.1586221
1.1586211
1.15862
1.158619
1.1586221
1.1586211
1.15862
1.158619
1.1586221
1.1586211
1.15862
1.158619
1.1586221
1.1586211
1.15862
1.158619
1.1586221
1.1586211
1.15862
1.158619
)
;
    }
    maxX
    {
        type            calculated;
        value           nonuniform List<scalar> 
40
(
0.7536423
0.81079824
0.83899888
0.8589986
0.80565388
0.96183094
0.91124243
0.8768755
0.82799269
0.93205921
0.90297179
0.88157512
0.72481919
0.84898127
0.85648038
0.84847339
0.67192205
0.76089234
0.8060588
0.81987121
0.67131525
0.75711818
0.80218922
0.81274376
0.72429172
0.84831727
0.85483204
0.84224269
0.82958143
0.93128579
0.90133959
0.87899467
0.80662307
0.96248264
0.91157288
0.87725767
0.75427972
0.81165413
0.83969245
0.85948009
)
;
    }
    minZ
    {
        type            calculated;
        value           nonuniform List<scalar> 
120
(
1.0869594
1.1569743
1.1585833
1.1586181
1.0279265
1.153872
1.1584795
1.1586146
0.97974977
1.1496407
1.1582867
1.1586064
0.93917653
1.1444855
1.1579861
1.1585902
0.90400208
1.1385602
1.1575615
1.1585622
0.8728618
1.1319834
1.156999
1.1585177
0.84492775
1.1248652
1.1562873
1.158451
0.81978764
1.1172817
1.1554165
1.1583556
0.79770704
1.1071425
1.1543241
1.1582218
0.77836402
1.0938089
1.1529325
1.1580352
0.76155881
1.0758189
1.1510687
1.1577661
0.7472338
1.0516921
1.1465409
1.1572601
0.73559262
1.0213247
1.1338077
1.1557936
0.73189942
0.98826331
1.109034
1.1481538
0.73078511
0.95601392
1.0740437
1.1232074
0.73241808
0.92807518
1.0349145
1.0845427
0.73655145
0.90612985
0.99679311
1.0445248
0.74244333
0.89002442
0.96387616
1.008899
0.74909957
0.87878982
0.93721426
0.97867616
0.75564626
0.87147822
0.91658045
0.95363839
0.76151894
0.86723701
0.90129643
0.93343444
0.76643041
0.86514331
0.89043176
0.91760527
0.77026205
0.86426038
0.88293862
0.90550931
0.77295043
0.86371003
0.87777571
0.89637868
0.77442555
0.86268751
0.87398373
0.88942953
0.77458013
0.86040475
0.87069573
0.88392718
0.7732097
0.85590762
0.86704596
0.87918113
0.76987752
0.84773502
0.86193933
0.8744066
0.76368239
0.83337659
0.85348284
0.86835143
0.75358403
0.81070818
0.838927
0.8589595
)
;
    }
    maxZ
    {
        type            calculated;
        value           nonuniform List<scalar> 
120
(
1.0869933
1.1569751
1.1585833
1.1586181
1.027984
1.1538743
1.1584796
1.1586146
0.97982358
1.149645
1.1582869
1.1586064
0.93926132
1.144492
1.1579864
1.1585902
0.9040929
1.138569
1.157562
1.1585622
0.87295342
1.1319946
1.1569997
1.1585177
0.84501483
1.1248785
1.1562882
1.1584511
0.81986531
1.1172968
1.1554177
1.1583557
0.79777404
1.107153
1.1543254
1.1582219
0.77842079
1.0938038
1.1529334
1.1580353
0.76160719
1.0757769
1.1510673
1.1577658
0.74727684
1.0515938
1.1465113
1.1572579
0.73563451
1.0211644
1.1337024
1.1557825
0.73194227
0.9880699
1.1088492
1.1480795
0.73084415
0.9558416
1.0738531
1.1231135
0.73251732
0.92796966
1.0348017
1.0845836
0.7367199
0.90609807
0.99678745
1.0447295
0.74269935
0.89003349
0.96396533
1.0092278
0.74944389
0.87880559
0.93735462
0.97906259
0.75606371
0.87148779
0.91673374
0.95402709
0.76198523
0.86724711
0.90144153
0.93379199
0.76691894
0.86516854
0.89056381
0.91791859
0.77074697
0.86431885
0.88306377
0.90577948
0.77341534
0.86382573
0.87790773
0.89661531
0.77487097
0.8628903
0.87414173
0.88964681
0.77502179
0.86072337
0.87090141
0.88414114
0.7736716
0.85636403
0.86732155
0.87940957
0.77038788
0.84835786
0.86231542
0.87467335
0.76426989
0.83421276
0.85401819
0.86870206
0.75424767
0.81160118
0.8396523
0.8594672
)
;
    }
    topAir_to_rightSolid
    {
        type            calculated;
        value           nonuniform List<scalar> 
130
(
0.49379338
0.48910709
0.48432754
0.47968676
0.47534395
0.47145302
0.46806296
0.46518727
0.46282517
0.46095755
0.45956696
0.45864283
0.45817974
0.49726374
0.49170558
0.48619372
0.4809923
0.47624687
0.47207107
0.4684848
0.46547567
0.46302434
0.46109803
0.45967103
0.45872528
0.45825254
0.50445262
0.49683523
0.48971154
0.48335755
0.47783368
0.47313326
0.46919738
0.46595709
0.46334899
0.46132091
0.45983399
0.4588573
0.45836876
0.51571868
0.50404893
0.49425195
0.48621435
0.47964744
0.47429193
0.46994745
0.46645078
0.46367976
0.46154728
0.45999351
0.45897773
0.45847462
0.52984992
0.51121771
0.49814614
0.48845006
0.48099063
0.47512823
0.47048545
0.46680683
0.46392769
0.46172375
0.46012359
0.45908014
0.45856503
0.52994622
0.51132962
0.49825962
0.48856091
0.48109896
0.47523857
0.47059007
0.4668982
0.46399889
0.46177733
0.46016514
0.45911299
0.4585918
0.5158957
0.50430426
0.49453714
0.48650661
0.47993194
0.47456782
0.47020415
0.46667739
0.46386661
0.46169178
0.46010447
0.45906516
0.45854995
0.50458122
0.49704831
0.48998723
0.4836768
0.47818165
0.47348331
0.46953057
0.46625671
0.46360013
0.4615121
0.45997733
0.45896816
0.45846506
0.49728863
0.4918053
0.48636231
0.48123253
0.4765627
0.47241939
0.46882223
0.46577955
0.46327217
0.46127892
0.45980299
0.45883087
0.45834785
0.49372651
0.48911023
0.48440682
0.47985422
0.47561213
0.47177157
0.46837778
0.46546956
0.46305324
0.46112272
0.45968866
0.45874063
0.45826847
)
;
    }
    topAir_to_heater
    {
        type            calculated;
        value           nonuniform List<scalar> 
40
(
0.50539871
0.50410303
0.50159539
0.49806673
0.51135732
0.50980512
0.50675994
0.50244918
0.52443006
0.52230689
0.51804712
0.51189309
0.54733698
0.54441984
0.53819748
0.52844098
0.58488404
0.58194608
0.57408018
0.5587123
0.58484062
0.58191365
0.57407908
0.55875801
0.54715374
0.54427861
0.5381457
0.52850291
0.52419503
0.52210448
0.51794042
0.51190814
0.51112707
0.50960441
0.50662425
0.50239291
0.50517406
0.5039106
0.50143632
0.49794693
)
;
    }
    topAir_to_leftSolid
    {
        type            calculated;
        value           nonuniform List<scalar> 
130
(
0.44307402
0.44308783
0.44312423
0.44318492
0.44326928
0.44337638
0.44350731
0.44366263
0.44383042
0.44398888
0.44412932
0.44423988
0.44430659
0.4430224
0.44303633
0.44307174
0.4431326
0.44321855
0.44332796
0.44346311
0.44362336
0.44380866
0.443987
0.44414439
0.44426632
0.44433598
0.44295558
0.44297167
0.44300966
0.44307589
0.44317156
0.44328983
0.44344177
0.44362231
0.44381815
0.44401169
0.44418913
0.44432266
0.4443949
0.4428952
0.44291816
0.44296309
0.44304311
0.44315582
0.4432934
0.44346012
0.44365666
0.44387487
0.44407856
0.44425398
0.44438793
0.44447291
0.4428732
0.44290156
0.44296049
0.44305078
0.44317285
0.44332364
0.44350424
0.44371718
0.44395844
0.44418024
0.4443703
0.44451631
0.44460211
0.44291677
0.4429518
0.44301324
0.44310116
0.44322232
0.44337517
0.44356254
0.4437899
0.44402848
0.44423957
0.44441597
0.44454846
0.44462765
0.44299298
0.44302437
0.44307814
0.44315257
0.44326323
0.44340778
0.44358548
0.4437964
0.4440012
0.44418246
0.44433238
0.44443576
0.44449166
0.44308094
0.44309786
0.4431451
0.44322004
0.44331982
0.44344559
0.44359513
0.44376426
0.44392982
0.44408281
0.44421057
0.44428704
0.4443278
0.4431606
0.44317433
0.44321349
0.44327602
0.44336289
0.44346997
0.44358705
0.44371881
0.44386189
0.44400372
0.4441266
0.44420828
0.4442502
0.44321373
0.44322595
0.44326037
0.44331426
0.44338424
0.44346748
0.44356545
0.4436828
0.44381528
0.44394669
0.44406389
0.44415528
0.44420822
)
;
    }
}


// ************************************************************************* //
