/*--------------------------------*- C++ -*----------------------------------*\
| =========                 |                                                 |
| \\      /  F ield         | OpenFOAM: The Open Source CFD Toolbox           |
|  \\    /   O peration     | Version:  v2012                                 |
|   \\  /    A nd           | Website:  www.openfoam.com                      |
|    \\/     M anipulation  |                                                 |
\*---------------------------------------------------------------------------*/
FoamFile
{
    version     2.0;
    format      ascii;
    class       volScalarField;
    location    "230/topAir";
    object      T;
}
// * * * * * * * * * * * * * * * * * * * * * * * * * * * * * * * * * * * * * //

dimensions      [0 0 0 1 0 0 0];


internalField   nonuniform List<scalar> 
1200
(
319.77883
338.14344
354.7708
370.0972
384.49756
398.21492
411.38024
423.99587
435.7321
446.56042
456.41459
465.16438
472.52586
474.91024
475.63438
474.57392
471.9107
468.16571
464.00574
459.98573
456.43841
453.51344
451.25745
449.68794
448.83137
448.74179
449.53713
451.48281
455.14532
461.24448
300.427
301.23472
302.34343
303.7053
305.28585
307.05955
309.00264
311.09997
313.94902
317.77607
323.08998
330.50195
340.32888
351.71425
363.57868
374.52384
383.59432
390.53565
395.52832
398.84675
400.7973
401.76725
402.17769
402.43395
402.91094
403.97991
406.10251
410.01754
417.08183
428.74396
300.0095
300.03639
300.08632
300.16422
300.27432
300.42032
300.60522
300.83179
301.11646
301.47992
301.96808
303.16058
306.56521
313.41328
323.62371
335.85964
348.70424
360.6127
370.87142
379.22038
385.65113
390.35668
393.66947
395.98496
397.70303
399.20488
400.8853
403.26038
407.25597
414.32209
300.00023
300.00112
300.00325
300.00744
300.01469
300.02622
300.04349
300.06821
300.10287
300.15121
300.221
300.35227
300.73336
302.73444
309.45817
320.49057
332.76922
344.51983
355.15908
364.48378
372.37295
378.79658
383.85662
387.76664
390.79628
393.22894
395.3517
397.51044
400.28235
404.65907
319.77822
337.94625
354.19055
368.9489
382.56988
395.24684
407.05741
417.98674
427.92351
436.65564
443.91034
449.35807
452.62576
449.78181
445.05624
439.09125
432.75307
427.0018
422.43201
419.09248
416.71015
414.99787
413.79337
413.08359
412.94895
413.51113
414.97844
417.83073
423.14414
431.46695
300.42651
301.21912
302.28576
303.56974
305.02745
306.62273
308.32043
310.08023
311.85858
313.59208
315.21331
316.6339
317.76023
318.44807
318.71734
318.78851
318.98223
319.65468
320.91621
322.62824
324.62358
326.8522
329.33091
332.11377
335.26621
338.83783
342.85654
347.29977
352.27937
361.4136
300.00947
300.03563
300.08298
300.15491
300.25384
300.38131
300.53794
300.72314
300.93516
301.17025
301.4224
301.69661
302.01935
302.39951
302.93863
304.20327
306.65398
310.75646
316.16452
321.9602
327.45399
332.86545
338.2841
343.67573
349.04922
354.38052
360.12731
366.44514
373.43344
381.42666
300.00023
300.00108
300.00308
300.00686
300.01318
300.02289
300.03692
300.05624
300.08192
300.11513
300.15766
300.21549
300.32221
300.72161
302.4487
307.2598
315.88809
326.82242
338.06223
348.64392
357.99511
365.54417
371.50541
376.44298
380.70328
384.49672
387.63894
390.42848
393.22799
396.39521
319.7814
337.98969
354.28748
369.11238
382.8202
395.61491
407.59689
418.80886
429.24375
438.83089
447.4197
454.79286
460.55455
459.63309
456.28025
450.07883
441.41522
431.80048
422.65471
414.80242
408.51232
403.7069
400.2658
398.14491
397.32119
397.7319
399.32338
402.26002
407.63935
419.86165
300.42666
301.22218
302.29398
303.58453
305.05041
306.65708
308.37358
310.16903
312.00919
313.85069
315.63535
317.28559
318.69025
319.61243
319.88374
319.42582
318.65915
318.33303
318.79593
320.07438
322.03467
324.57923
327.73654
331.59971
336.21619
341.54839
347.57648
354.23587
362.12169
372.95613
300.00947
300.03576
300.08337
300.15566
300.25491
300.38257
300.53926
300.72465
300.93729
301.17411
301.42935
301.69275
301.9479
302.16784
302.3303
302.58963
303.92592
306.96473
311.01625
315.66724
320.5337
325.6361
331.38076
338.06779
345.59067
353.47479
361.3329
368.84445
375.96322
384.96598
300.00023
300.00109
300.0031
300.00689
300.01322
300.02288
300.03674
300.0557
300.08066
300.11249
300.152
300.19998
300.25812
300.33702
300.52234
301.47976
306.14263
314.65026
323.56858
334.65409
345.71224
355.06371
362.48164
368.44046
373.42308
377.75631
381.55436
384.91778
388.48634
394.36059
319.78583
338.00993
354.3407
369.21979
383.01549
395.95552
408.17898
419.78012
430.82615
441.3645
451.42773
461.01086
469.92455
472.30689
473.26729
472.34155
470.5895
469.57246
469.45369
469.48162
469.06469
467.98912
466.27882
464.1897
461.98918
460.02886
459.56387
463.25834
470.68493
479.63676
300.42679
301.22348
302.29873
303.59607
305.07383
306.70074
308.45157
310.30472
312.24031
314.23694
316.26726
318.28876
320.21701
321.77538
322.69481
322.8608
323.07215
323.82443
324.951
326.35259
328.11889
330.3859
333.34115
337.17042
341.95307
347.73214
354.6497
362.34578
378.26812
409.34317
300.00948
300.03582
300.08362
300.15637
300.25651
300.38579
300.5453
300.73555
300.95647
301.20711
301.48496
301.78419
302.091
302.37181
302.59071
303.17174
306.10381
310.18016
313.53055
316.92097
321.14197
326.54283
333.59532
342.21318
351.67812
361.31611
371.85139
380.23618
387.42185
405.83649
300.00023
300.00109
300.00311
300.00693
300.01332
300.02311
300.03721
300.0566
300.0823
300.11539
300.15698
300.20829
300.27093
300.35387
300.60134
303.04197
316.29663
331.7527
336.66264
336.42121
344.43886
352.87636
359.36676
364.96021
370.04045
375.14174
383.07202
391.53622
399.05739
410.29112
319.78699
338.01605
354.35569
369.24768
383.06153
396.02716
408.28691
419.93903
431.05803
441.70105
451.89434
461.64665
470.69016
471.57791
470.8761
469.05259
468.80792
471.75419
476.1805
480.77876
485.33442
489.64408
493.51307
496.77341
499.3223
501.21738
502.85487
505.14455
509.3717
517.36694
300.42683
301.22399
302.30061
303.60057
305.08258
306.71601
308.47662
310.34432
312.30144
314.32983
316.40527
318.50824
320.54821
322.083
322.86213
323.20428
324.21835
325.70274
327.94187
331.20288
334.83583
338.64816
343.14072
349.30175
357.96819
369.43136
383.93904
402.1331
425.37889
456.75531
300.00948
300.03584
300.08374
300.1567
300.25725
300.38725
300.54793
300.74005
300.96387
301.21899
301.5036
301.81265
302.13076
302.41353
302.66885
304.45604
308.59822
311.48979
313.45923
315.72486
319.27086
325.05763
333.68459
344.59403
355.97964
365.06413
371.71152
382.45217
400.90093
431.15016
300.00023
300.00109
300.00311
300.00696
300.01338
300.02324
300.03747
300.05709
300.08319
300.11695
300.15971
300.21304
300.27974
300.38306
300.95587
309.30311
341.34111
347.88826
350.48706
352.43547
355.50312
360.13132
365.12007
370.2936
375.60055
381.04606
386.51678
389.75324
401.82835
424.70404
319.78384
338.00938
354.3453
369.23352
383.04318
396.00368
408.25661
419.89913
431.00605
441.63529
451.81742
461.56596
470.58766
471.32446
470.40036
468.53416
468.34935
471.33197
475.78036
480.40628
484.99862
489.35628
493.28273
496.60255
499.20092
501.14221
502.83587
505.21455
509.57169
517.74838
300.42676
301.22378
302.30018
303.59985
305.08146
306.71434
308.47421
310.34085
312.29646
314.32267
316.39439
318.4668
320.43342
321.93088
322.6626
323.08689
324.15453
325.66623
327.90745
331.1649
334.82977
338.75794
343.47965
349.98247
359.12947
371.15514
386.17627
404.6816
427.89877
458.85822
300.00948
300.03584
300.08372
300.15667
300.2572
300.38716
300.54779
300.73984
300.96355
301.2185
301.50274
301.81036
302.12418
302.39992
302.67474
304.79405
308.76754
311.57939
313.50646
315.72294
319.19554
324.82722
333.18806
343.71361
354.74205
363.73649
370.88922
382.67486
402.11112
433.09897
300.00023
300.00109
300.00311
300.00696
300.01338
300.02323
300.03747
300.05708
300.08318
300.11694
300.15971
300.21308
300.28019
300.39159
301.10159
311.19756
341.37619
347.55201
350.04923
351.95454
354.7347
359.17669
364.1431
369.42766
374.95248
380.69705
386.67371
390.20065
403.47899
428.37623
319.7788
337.99573
354.31899
369.19094
382.97916
395.91032
408.12269
419.70962
430.73955
441.25778
451.29103
460.83235
469.66522
471.91833
472.66046
471.51557
469.68955
468.78509
468.86515
469.07302
468.82439
467.91302
466.34257
464.33061
462.08977
460.03306
459.53
463.2709
470.77976
479.8822
300.42664
301.22303
302.29784
303.5946
305.07163
306.69761
308.4472
310.29866
312.23196
314.2254
316.25065
318.2628
320.17178
321.69416
322.55663
322.70333
322.96958
323.79874
324.98054
326.41328
328.18866
330.44485
333.36882
337.14847
341.88097
347.64646
354.61381
362.4004
378.44734
409.56214
300.00948
300.0358
300.08359
300.15631
300.2564
300.38562
300.54504
300.73516
300.9559
301.20626
301.48364
301.78189
302.08641
302.36227
302.58204
303.29298
306.41714
310.48621
313.70488
316.94394
320.99999
326.20955
333.00824
341.33166
350.58077
360.3781
371.56946
380.2422
387.71431
406.63727
300.00023
300.00109
300.00311
300.00693
300.01332
300.0231
300.0372
300.05658
300.08227
300.11534
300.15693
300.20823
300.27103
300.35708
300.65401
303.64495
317.48318
333.74547
337.58882
336.5252
344.35995
352.48419
358.93406
364.56438
369.74292
375.08634
384.44884
393.12969
400.70477
413.47941
319.77243
337.97245
354.26199
369.07835
382.77734
395.56234
407.53401
418.73447
429.15753
438.73263
447.31059
454.67006
460.40717
459.43741
455.98445
449.63152
440.84196
431.20607
422.12811
414.40837
408.25744
403.56187
400.18519
398.06739
397.17887
397.47801
398.93911
401.74263
406.98119
419.05109
300.42646
301.22163
302.29293
303.58283
305.04792
306.65361
308.36891
310.16284
312.00108
313.84006
315.62127
317.26612
318.66119
319.56503
319.80371
319.31204
318.55381
318.29027
318.81812
320.13834
322.11071
324.637
327.74501
331.53344
336.07066
341.35788
347.40769
354.14625
362.18218
373.26183
300.00947
300.03575
300.08334
300.15559
300.25479
300.38238
300.53898
300.72426
300.93674
301.17333
301.42823
301.69103
301.9449
302.16206
302.32156
302.61126
304.06958
307.2563
311.32838
315.91178
320.65833
325.61013
331.17565
337.67395
345.05999
352.96722
361.03302
368.75878
376.13354
385.70617
300.00023
300.00109
300.00309
300.00689
300.01321
300.02287
300.03672
300.05568
300.08063
300.11246
300.15196
300.19995
300.25813
300.3375
300.53156
301.60279
306.60338
315.47574
324.07763
334.86815
345.69971
354.92729
362.29583
368.24891
373.2492
377.62352
381.48004
384.87645
388.63527
395.62965
319.76835
337.92746
354.16349
368.91405
382.52741
395.1968
407.00076
417.92531
427.85911
436.58919
443.8427
449.29041
452.55802
449.71105
444.96031
438.92882
432.48866
426.642
422.01154
418.65433
416.29132
414.62388
413.4761
412.81677
412.70748
413.25809
414.67523
417.43818
422.62619
430.92981
300.42629
301.21852
302.28464
303.56801
305.02499
306.61945
308.31623
310.07502
311.85231
313.58452
315.20437
316.6235
317.74776
318.43087
318.68917
318.74138
318.91947
319.59891
320.88528
322.62771
324.64824
326.89106
329.36923
332.13558
335.26033
338.80499
342.8116
347.26713
352.29173
361.16298
300.00946
300.03562
300.08294
300.15484
300.25372
300.38113
300.53769
300.7228
300.93472
301.1697
301.42175
301.69602
302.01898
302.39791
302.93602
304.20162
306.67393
310.84407
316.3169
322.15753
327.65544
333.04034
338.4183
343.77058
349.11237
354.40127
360.11417
366.40876
373.36292
381.28724
300.00023
300.00108
300.00308
300.00686
300.01318
300.02288
300.0369
300.05622
300.08189
300.11511
300.15763
300.21551
300.32249
300.72329
302.44768
307.23331
315.81093
326.69079
337.88286
348.44246
357.79389
365.35307
371.32258
376.26883
380.54102
384.36119
387.5181
390.30749
393.08873
396.21206
319.76886
338.12455
354.74407
370.06379
384.45894
398.17312
411.33785
423.9557
435.69551
446.52785
456.3856
465.13759
472.49896
474.88244
475.59596
474.50963
471.8028
468.00432
463.79257
459.73176
456.1591
453.22455
450.97354
449.41762
448.57337
448.48607
449.26875
451.18371
454.79545
460.83864
300.42678
301.23412
302.34231
303.70358
305.28349
307.05652
308.99898
311.09576
313.94604
317.77755
323.10258
330.53285
340.3823
351.7831
363.64423
374.56642
383.60778
390.53167
395.52122
398.84237
400.79263
401.75553
402.15049
402.38005
402.81625
403.83037
405.88607
409.71652
416.66376
428.27221
300.0095
300.03637
300.08628
300.16415
300.2742
300.42014
300.60498
300.83148
301.11612
301.47968
301.96844
303.16839
306.59369
313.46553
323.68113
335.89624
348.70622
360.57934
370.81589
379.15697
385.58905
390.2988
393.61368
395.92542
397.63115
399.11059
400.75792
403.0845
407.00068
413.96419
300.00023
300.00112
300.00325
300.00744
300.01468
300.02621
300.04347
300.06819
300.10285
300.15121
300.22107
300.35283
300.73625
302.75402
309.48402
320.47847
332.70403
344.4076
355.0189
364.33528
372.23037
378.66728
383.74213
387.6643
390.70083
393.13378
395.249
397.38921
400.12079
404.42003
)
;

boundaryField
{
    maxY
    {
        type            zeroGradient;
    }
    minX
    {
        type            fixedValue;
        value           uniform 300;
    }
    maxX
    {
        type            inletOutlet;
        inletValue      uniform 300;
        value           nonuniform List<scalar> 
40
(
461.20884
428.69634
414.2866
404.64064
431.43399
361.37966
381.44177
396.39119
419.79411
372.92283
384.93554
394.27804
479.54925
409.41565
405.83064
409.66017
517.30185
456.81401
431.21671
423.95169
517.76944
459.09118
433.29681
427.6696
479.89848
409.73611
406.61319
412.69074
418.99016
373.23254
385.63261
395.43552
430.9156
361.13497
381.30349
396.2185
460.81908
428.24428
413.94441
404.41395
)
;
    }
    minZ
    {
        type            zeroGradient;
    }
    maxZ
    {
        type            zeroGradient;
    }
    topAir_to_rightSolid
    {
        type            compressible::turbulentTemperatureCoupledBaffleMixed;
        refValue        nonuniform List<scalar> 
130
(
703.98681
710.7347
717.75128
724.69781
731.32103
737.35859
742.70063
747.29301
751.1077
754.15121
756.43297
757.95626
758.72053
699.08599
706.99135
715.00894
722.74321
729.94667
736.40513
742.04357
746.8415
750.79591
753.93255
756.27252
757.83028
758.60953
689.11993
699.69046
709.87315
719.20857
727.52585
734.75596
740.92124
746.07479
750.27486
753.57328
756.00949
757.61721
758.4209
674.05066
689.65982
703.33311
714.96251
724.75355
732.93941
739.7172
745.26417
749.71949
753.18422
755.72764
757.39812
758.22653
656.06882
679.98447
697.83008
711.68409
722.72225
731.64029
738.86065
744.68359
749.30547
752.88236
755.50046
757.21667
758.06489
655.94971
679.83574
697.67123
711.52269
722.55956
731.47043
738.6964
744.53785
749.19047
752.79497
755.43218
757.16239
758.02048
673.81957
689.31076
702.92756
714.53299
724.32385
732.5132
739.31322
744.90217
749.4174
752.94843
755.54529
757.25377
758.10184
688.94445
699.39062
709.47378
718.73385
726.99637
734.21267
740.3954
745.59532
749.86843
753.26117
755.77402
757.43439
758.26181
699.0511
706.84811
714.76119
722.38249
729.46294
735.86217
741.50948
746.35424
750.39427
753.63694
756.05558
757.65602
758.45193
704.08223
710.73021
717.63387
724.44494
730.90868
736.8607
742.20143
746.8398
750.73775
753.88112
756.23277
757.79474
758.57371
)
;
        refGradient     uniform 0;
        valueFraction   uniform 0.99967867;
        value           nonuniform List<scalar> 
130
(
703.91103
710.65543
717.66846
724.61161
731.23176
737.26666
742.60648
747.19711
751.01054
754.05333
756.33498
757.85895
758.62493
698.99857
706.89992
714.91386
722.64488
729.84547
736.30147
741.93787
746.73422
750.68754
753.82363
756.16377
757.72273
758.5044
689.03725
699.60144
709.77834
719.10874
727.4218
734.64848
740.8111
745.96273
750.16158
753.45945
755.89582
757.50475
758.31209
673.98495
689.58906
703.25796
714.88349
724.67104
732.85372
739.62865
745.17313
749.62639
753.08985
755.63364
757.30595
758.13698
656.00959
679.91898
697.76033
711.61136
722.64735
731.56377
738.78286
744.60474
749.22574
752.802
755.41999
757.137
757.98753
655.89039
679.77017
697.60141
711.4499
722.48463
731.3939
738.61861
744.45902
749.11077
752.71465
755.35178
757.08284
757.94328
673.75369
689.23992
702.85241
714.45404
724.24146
732.42767
739.22487
744.8113
749.32442
752.85416
755.45141
757.16171
758.01245
688.86164
699.30153
709.37898
718.63409
726.89245
734.10535
740.28541
745.48337
749.7552
753.14732
755.66027
757.32178
758.1528
698.96357
706.75659
714.66605
722.28414
729.36178
735.75858
741.40387
746.24703
750.28595
753.52803
755.94678
757.54837
758.34668
704.00637
710.65086
717.551
724.35874
730.81945
736.76883
742.10735
746.74397
750.64063
753.78324
756.13475
757.69738
758.47803
)
;
        Tnbr            T;
        thicknessLayers List<scalar> 0();
        kappaLayers     List<scalar> 0();
        kappaMethod     fluidThermo;
        kappa           none;
        alphaAni        none;
        alpha           none;
        field           T;
    }
    topAir_to_heater
    {
        type            compressible::turbulentTemperatureCoupledBaffleMixed;
        refValue        nonuniform List<scalar> 
40
(
687.81578
689.5838
693.03234
697.9442
679.80731
681.87907
685.97934
691.86793
662.85464
665.5508
671.02666
679.09833
635.10287
638.5064
645.89053
657.81883
594.32245
597.32388
605.51092
622.17024
594.36667
597.35733
605.51225
622.11948
635.31573
638.67231
645.95295
657.74203
663.15197
665.80899
671.16507
679.07854
680.11364
682.14773
686.16316
691.94552
688.12173
689.8472
693.25226
698.1122
)
;
        refGradient     uniform 0;
        valueFraction   uniform 0.99967867;
        value           nonuniform List<scalar> 
40
(
687.74737
689.51505
692.96215
697.87157
679.7334
681.80297
685.90001
691.78467
662.78934
665.48356
670.95567
679.02195
635.05055
638.4533
645.83476
657.75867
594.28301
597.28325
605.46707
622.12096
594.32713
597.31654
605.46823
622.07007
635.26322
638.61896
645.8969
657.6816
663.08652
665.74156
671.09389
679.00199
680.03961
682.07152
686.08372
691.86216
688.05321
689.77836
693.18198
698.03948
)
;
        Tnbr            T;
        thicknessLayers List<scalar> 0();
        kappaLayers     List<scalar> 0();
        kappaMethod     fluidThermo;
        kappa           none;
        alphaAni        none;
        alpha           none;
        field           T;
    }
    topAir_to_leftSolid
    {
        type            compressible::turbulentTemperatureCoupledBaffleMixed;
        refValue        nonuniform List<scalar> 
130
(
784.63854
784.60815
784.53831
784.42591
784.27193
784.07802
783.84227
783.56374
783.26366
782.98057
782.72975
782.53207
782.41217
784.72997
784.69941
784.63144
784.51891
784.36234
784.16465
783.9218
783.63505
783.3046
782.98708
782.70721
782.49059
782.36683
784.84837
784.81396
784.74139
784.61927
784.44543
784.23198
783.95936
783.63665
783.28742
782.94284
782.62723
782.38961
782.26055
784.95537
784.90878
784.82388
784.6773
784.47324
784.22555
783.92673
783.57565
783.1868
782.82409
782.51169
782.27268
782.1202
784.99436
784.93821
784.82849
784.66371
784.44309
784.17203
783.8487
783.4687
783.03927
782.64477
782.30666
782.04649
781.89264
784.91715
784.84917
784.73503
784.57449
784.35552
784.08089
783.74566
783.34031
782.91575
782.54024
782.22628
781.98996
781.84774
784.78209
784.7206
784.62007
784.48346
784.28314
784.02325
783.70517
783.3289
782.96395
782.64098
782.37363
782.18853
782.08728
784.62629
784.59044
784.50151
784.36406
784.18307
783.9565
783.6883
783.38595
783.09037
782.81745
782.58949
782.4524
782.37874
784.48522
784.45504
784.38048
784.26505
784.10697
783.91351
783.70276
783.46647
783.21066
782.9576
782.7386
782.59287
782.51795
784.39117
784.36362
784.29733
784.19702
784.06858
783.91694
783.73952
783.52813
783.29039
783.05501
782.84511
782.68116
782.58547
)
;
        refGradient     uniform 0;
        valueFraction   uniform 0.99967867;
        value           nonuniform List<scalar> 
130
(
784.48917
784.46468
784.40022
784.29277
784.14347
783.95404
783.72258
783.4482
783.15199
782.87247
782.62489
782.43009
782.3126
784.58057
784.55586
784.49313
784.38537
784.23323
784.03968
783.8007
783.51755
783.1904
782.8758
782.59835
782.38355
782.26088
784.69893
784.67038
784.60308
784.48576
784.31638
784.1071
783.83843
783.51942
783.17365
782.83227
782.51952
782.28434
782.15717
784.8059
784.76518
784.68556
784.5438
784.34424
784.10079
783.80599
783.45875
783.07358
782.71437
782.4053
782.16945
782.01988
784.84488
784.7946
784.69017
784.53022
784.31411
784.04731
783.72802
783.35189
782.92617
782.53521
782.20049
781.94354
781.79264
784.76769
784.70558
784.59674
784.44103
784.22656
783.95619
783.625
783.22353
782.80267
782.4307
782.12011
781.887
781.74772
784.63267
784.57706
784.4818
784.35002
784.15419
783.89854
783.58448
783.21206
782.85077
782.53129
782.26724
782.08527
781.98689
784.47692
784.44693
784.36327
784.23062
784.05409
783.83169
783.56744
783.26878
782.97664
782.70689
782.48176
782.34707
782.27528
784.3359
784.31156
784.24224
784.13159
783.97793
783.78861
783.58171
783.34901
783.09648
782.84631
782.62971
782.48577
782.41193
784.24188
784.22023
784.1593
784.06395
783.94018
783.79299
783.61986
783.41258
783.1787
782.94687
782.74021
782.57912
782.48583
)
;
        Tnbr            T;
        thicknessLayers List<scalar> 0();
        kappaLayers     List<scalar> 0();
        kappaMethod     fluidThermo;
        kappa           none;
        alphaAni        none;
        alpha           none;
        field           T;
    }
}


// ************************************************************************* //
