/*--------------------------------*- C++ -*----------------------------------*\
| =========                 |                                                 |
| \\      /  F ield         | OpenFOAM: The Open Source CFD Toolbox           |
|  \\    /   O peration     | Version:  v2012                                 |
|   \\  /    A nd           | Website:  www.openfoam.com                      |
|    \\/     M anipulation  |                                                 |
\*---------------------------------------------------------------------------*/
FoamFile
{
    version     2.0;
    format      ascii;
    class       volScalarField;
    location    "400/leftSolid";
    object      T;
}
// * * * * * * * * * * * * * * * * * * * * * * * * * * * * * * * * * * * * * //

dimensions      [0 0 0 1 0 0 0];


internalField   nonuniform List<scalar> 
130
(
882.70623
882.6299
882.51031
882.3612
882.18023
881.96501
881.72376
881.47242
881.21637
880.97287
880.75509
880.60372
880.52325
882.67567
882.60799
882.49497
882.34889
882.16759
881.94544
881.7024
881.44032
881.17136
880.90547
880.66456
880.49195
880.3976
882.58904
882.53728
882.43835
882.28619
882.10019
881.88077
881.61965
881.33679
881.04446
880.75168
880.47411
880.24746
880.12501
882.45557
882.40374
882.30146
882.14868
881.9567
881.72611
881.45945
881.1507
880.83168
880.50807
880.2003
879.93291
879.76723
882.33861
882.27801
882.16113
881.99237
881.78009
881.53336
881.25767
880.95146
880.60506
880.24949
879.91801
879.63855
879.46105
882.29546
882.22786
882.09784
881.90165
881.6537
881.38628
881.09674
880.77774
880.42381
880.02996
879.67455
879.38035
879.20626
882.2495
882.18369
882.05387
881.85936
881.59371
881.30002
880.99097
880.65711
880.29147
879.89553
879.54001
879.26834
879.11133
882.18349
882.12089
881.99883
881.81694
881.57574
881.27936
880.95523
880.62383
880.26936
879.88908
879.55959
879.30563
879.16094
882.09582
882.03945
881.92735
881.75776
881.52965
881.24371
880.91017
880.57431
880.22443
879.85866
879.54067
879.27838
879.13127
882.02016
881.97031
881.86639
881.70642
881.48778
881.20893
880.87274
880.52074
880.17551
879.82761
879.51756
879.28135
879.16076
)
;

boundaryField
{
    minX
    {
        type            zeroGradient;
    }
    minZ
    {
        type            zeroGradient;
    }
    maxZ
    {
        type            zeroGradient;
    }
    leftSolid_to_bottomWater
    {
        type            compressible::turbulentTemperatureCoupledBaffleMixed;
        refValue        nonuniform List<scalar> 
130
(
965.54623
961.19809
959.92345
960.09057
959.8585
958.37177
956.55207
955.98454
954.11198
953.07027
949.81974
949.85464
949.63827
967.04479
963.69985
962.43063
963.19631
963.65984
960.74268
960.93053
959.95006
959.10404
956.82554
952.32697
952.11024
951.47072
967.01375
966.44666
967.11711
965.05453
965.0163
966.28564
963.31213
961.99093
960.90589
959.28972
955.18287
948.71709
947.78264
966.66777
965.82762
965.48308
964.71434
965.24478
965.34431
965.96904
960.82115
959.71912
957.75386
955.17904
948.12094
940.59994
967.62764
965.89643
964.21624
963.21484
962.85586
962.69858
963.07905
963.86091
958.68343
955.64007
953.13964
948.88077
942.24546
973.19576
971.3409
970.20265
966.90033
962.40484
962.39195
962.81061
962.71095
962.59683
953.13713
949.56581
942.28958
937.53496
974.98426
973.85722
972.76654
972.15789
965.43949
962.47062
962.41396
961.57424
959.75243
951.5976
945.4194
941.99679
938.42694
976.42977
975.0098
974.05591
973.24412
972.64008
968.87843
965.96818
966.95051
966.5177
958.02935
955.16609
952.07942
949.35854
975.9208
974.75271
974.00118
973.3637
972.74479
971.34683
966.24359
966.95936
966.00282
958.46229
956.37852
947.97831
942.74204
973.34196
972.79943
972.31876
972.0444
971.80823
971.20829
966.65448
963.14204
963.1169
958.26644
953.14915
947.36417
947.04153
)
;
        refGradient     uniform 0;
        valueFraction   nonuniform List<scalar> 
130
(
0.0075140686
0.0075140686
0.0075140686
0.0075140686
0.0075140686
0.0075140686
0.0075140686
0.0075140686
0.0075140686
0.0075140686
0.0075140686
0.0075140686
0.0075140686
0.0075140686
0.0075140686
0.0075140686
0.0075140686
0.0075140686
0.0075140686
0.0075140686
0.0075140686
0.0075140686
0.0075140686
0.0075140686
0.0075140686
0.0075140686
0.0075140686
0.0075140686
0.0075140686
0.0075140686
0.0075140686
0.0075140686
0.0075140686
0.0075140686
0.0075140686
0.0075140686
0.0075140686
0.0075140686
0.0075140686
0.0075140686
0.0075140686
0.0075140686
0.0075140686
0.0075140686
0.0075140686
0.0075140686
0.0075140686
0.0075140686
0.0075140686
0.0075140686
0.0075140686
0.0075140686
0.0075140686
0.0075140686
0.0075140686
0.0075140686
0.0075140686
0.0075140686
0.0075140686
0.0075140686
0.0075140686
0.0075140686
0.0075140686
0.0075140686
0.0075140686
0.0075140686
0.0075140686
0.0075140686
0.0075140686
0.0075140686
0.0075140686
0.0075140686
0.0075140686
0.0075140686
0.0075140686
0.0075140686
0.0075140686
0.0075140686
0.0075140686
0.0075140686
0.0075140686
0.0075140686
0.0075140686
0.0075140686
0.0075140686
0.0075140686
0.0075140686
0.0075140686
0.0075140686
0.0075140686
0.0075140686
0.0075140686
0.0075140686
0.0075140686
0.0075140686
0.0075140686
0.0075140686
0.0075140686
0.0075140686
0.0075140686
0.0075140686
0.0075140686
0.0075140686
0.0075140686
0.0075140686
0.0075140686
0.0075140686
0.0075140686
0.0075140686
0.0075140686
0.0075140686
0.0075140686
0.0075140686
0.0075140686
0.0075140686
0.0075140686
0.0075140686
0.0075140686
0.0075140686
0.0075140686
0.0075140686
0.0075140686
0.0075140686
0.0075140686
0.0075140686
0.0075140686
0.0075140686
0.0075140686
0.0075140686
0.0075140686
)
;
        value           nonuniform List<scalar> 
130
(
883.3252
883.21675
883.0884
882.94159
882.7602
882.53544
882.28229
882.02854
881.76034
881.51083
881.27024
881.12026
881.03877
883.30604
883.21372
883.09193
882.95263
882.77614
882.53372
882.29387
882.02635
881.75303
881.47199
881.19911
881.02618
880.92775
883.21969
883.16404
883.07088
882.90429
882.71934
882.51106
882.22954
881.93884
881.64052
881.33776
881.03139
880.75787
880.62933
883.08445
883.0267
882.92259
882.76515
882.57853
882.35036
882.09033
881.74522
881.42029
881.08429
880.75942
880.44095
880.22003
882.97539
882.90225
882.77365
882.59862
882.38518
882.13905
881.86822
881.57018
881.1875
880.81168
880.46384
880.15439
879.92831
882.97429
882.89326
882.75566
882.53611
882.25622
881.99069
881.70643
881.38907
881.03693
880.57492
880.19531
879.8486
879.64006
882.94203
882.86824
882.73118
882.53355
882.2194
881.90559
881.59843
881.26075
880.88416
880.4299
880.03062
879.73527
879.55262
882.88725
882.81445
882.68614
882.49951
882.25556
881.93311
881.58953
881.268
880.91294
880.47177
880.12326
879.84804
879.68401
882.7963
882.73159
882.61469
882.44157
882.21051
881.91619
881.54678
881.21882
880.86439
880.44474
880.11355
879.79016
879.6049
882.70178
882.64824
882.54149
882.38066
882.16188
881.88059
881.51267
881.1369
880.79409
880.41241
880.06632
879.78857
879.66654
)
;
        Tnbr            T;
        thicknessLayers List<scalar> 0();
        kappaLayers     List<scalar> 0();
        kappaMethod     solidThermo;
        kappa           none;
        alphaAni        none;
        alpha           none;
        field           T;
    }
    leftSolid_to_heater
    {
        type            compressible::turbulentTemperatureCoupledBaffleMixed;
        refValue        nonuniform List<scalar> 10(731.04642 721.74596 702.10594 670.11623 623.3644 623.12267 669.2165 700.63203 719.87808 729.03983);
        refGradient     uniform 0;
        valueFraction   nonuniform List<scalar> 10(2.08329e-05 2.08329e-05 2.08329e-05 2.08329e-05 2.08329e-05 2.08329e-05 2.08329e-05 2.08329e-05 2.08329e-05 2.08329e-05);
        value           nonuniform List<scalar> 10(880.5163 880.39037 880.11721 879.75853 879.45118 879.19641 879.10251 879.15279 879.12357 879.15332);
        Tnbr            T;
        thicknessLayers List<scalar> 1(0.001);
        kappaLayers     List<scalar> 1(0.0005);
        kappaMethod     solidThermo;
        kappa           none;
        alphaAni        none;
        alpha           none;
        field           T;
    }
    leftSolid_to_topAir
    {
        type            compressible::turbulentTemperatureCoupledBaffleMixed;
        refValue        nonuniform List<scalar> 
130
(
323.71112
345.65052
365.50302
383.82913
401.09849
417.59662
433.44187
448.52374
462.51779
475.39263
487.03731
497.24759
505.58225
323.70406
345.40617
364.79649
382.43653
398.76248
414.00424
428.22572
441.37203
453.25662
463.57724
471.90305
477.73783
480.48622
323.69777
345.43688
364.8818
382.59137
399.0089
414.37556
428.79944
442.31718
454.87377
466.31349
476.35552
484.5506
490.04613
323.69216
345.44016
364.91536
382.68255
399.20202
414.7466
429.4727
443.47408
456.80304
469.45278
481.32037
492.10056
500.90685
323.68667
345.43375
364.91284
382.68804
399.22028
414.7844
429.5391
443.58068
456.9511
469.62158
481.42463
491.89482
499.87688
323.68496
345.43038
364.90769
382.68026
399.20846
414.76699
429.51276
443.53723
456.86782
469.43685
480.98214
490.85622
497.93251
323.68391
345.42382
364.8906
382.64815
399.15522
414.68462
429.39228
443.36797
456.6526
469.21355
480.88946
491.24939
499.27416
323.68138
345.40457
364.83341
382.52586
398.92371
414.26677
428.66221
442.14433
454.65409
466.02211
475.9334
483.85775
488.80389
323.68061
345.361
364.73039
382.34833
398.64924
413.86194
428.05016
441.16169
453.01234
463.30017
471.58855
477.34662
479.89077
323.68333
345.59707
365.42504
383.72556
400.96641
417.43247
433.24441
448.29874
462.26663
475.117
486.73908
496.92468
505.2182
)
;
        refGradient     uniform 0;
        valueFraction   nonuniform List<scalar> 
130
(
0.00032132529
0.00032132529
0.00032132529
0.00032132529
0.00032132529
0.00032132529
0.00032132529
0.00032132529
0.00032132529
0.00032132529
0.00032132529
0.00032132529
0.00032132529
0.00032132529
0.00032132529
0.00032132529
0.00032132529
0.00032132529
0.00032132529
0.00032132529
0.00032132529
0.00032132529
0.00032132529
0.00032132529
0.00032132529
0.00032132529
0.00032132529
0.00032132529
0.00032132529
0.00032132529
0.00032132529
0.00032132529
0.00032132529
0.00032132529
0.00032132529
0.00032132529
0.00032132529
0.00032132529
0.00032132529
0.00032132529
0.00032132529
0.00032132529
0.00032132529
0.00032132529
0.00032132529
0.00032132529
0.00032132529
0.00032132529
0.00032132529
0.00032132529
0.00032132529
0.00032132529
0.00032132529
0.00032132529
0.00032132529
0.00032132529
0.00032132529
0.00032132529
0.00032132529
0.00032132529
0.00032132529
0.00032132529
0.00032132529
0.00032132529
0.00032132529
0.00032132529
0.00032132529
0.00032132529
0.00032132529
0.00032132529
0.00032132529
0.00032132529
0.00032132529
0.00032132529
0.00032132529
0.00032132529
0.00032132529
0.00032132529
0.00032132529
0.00032132529
0.00032132529
0.00032132529
0.00032132529
0.00032132529
0.00032132529
0.00032132529
0.00032132529
0.00032132529
0.00032132529
0.00032132529
0.00032132529
0.00032132529
0.00032132529
0.00032132529
0.00032132529
0.00032132529
0.00032132529
0.00032132529
0.00032132529
0.00032132529
0.00032132529
0.00032132529
0.00032132529
0.00032132529
0.00032132529
0.00032132529
0.00032132529
0.00032132529
0.00032132529
0.00032132529
0.00032132529
0.00032132529
0.00032132529
0.00032132529
0.00032132529
0.00032132529
0.00032132529
0.00032132529
0.00032132529
0.00032132529
0.00032132529
0.00032132529
0.00032132529
0.00032132529
0.00032132529
0.00032132529
0.00032132529
0.00032132529
0.00032132529
0.00032132529
)
;
        value           nonuniform List<scalar> 
130
(
882.52309
882.45382
882.34056
882.19731
882.02191
881.81207
881.57595
881.32951
881.07803
880.83874
880.62475
880.47669
880.39893
882.49244
882.43175
882.32491
882.18447
882.00844
881.79124
881.55281
881.29499
881.02991
880.76739
880.52926
880.35859
880.26517
882.4057
882.36093
882.26826
882.12177
881.94105
881.72658
881.47016
881.1917
880.90346
880.61442
880.34014
880.11621
879.99558
882.2721
882.22728
882.13128
881.98422
881.79755
881.57196
881.31005
881.0059
880.69125
880.37175
880.06782
879.80393
879.64116
882.15499
882.10141
881.99085
881.82784
881.62088
881.37916
881.10823
880.80662
880.46465
880.11321
879.78557
879.50948
879.33454
882.11173
882.05114
881.92741
881.73698
881.4944
881.23204
880.94729
880.63289
880.28334
879.89362
879.542
879.25102
879.07923
882.0657
882.00689
881.88335
881.6946
881.43433
881.1457
880.84147
880.51219
880.15093
879.75913
879.40747
879.13922
878.98483
881.99959
881.94399
881.82821
881.65205
881.41617
881.12479
880.80537
880.47841
880.12807
879.7516
879.42542
879.17411
879.03108
881.91183
881.86245
881.75662
881.59274
881.36992
881.08894
880.76003
880.42848
880.08254
879.72023
879.40507
879.14476
878.99861
881.83614
881.79336
881.69585
881.54181
881.32877
881.05528
880.72424
880.37716
880.03654
879.69293
879.38681
879.15409
879.03629
)
;
        Tnbr            T;
        thicknessLayers List<scalar> 0();
        kappaLayers     List<scalar> 0();
        kappaMethod     solidThermo;
        kappa           none;
        alphaAni        none;
        alpha           none;
        field           T;
    }
}


// ************************************************************************* //
