/*--------------------------------*- C++ -*----------------------------------*\
| =========                 |                                                 |
| \\      /  F ield         | OpenFOAM: The Open Source CFD Toolbox           |
|  \\    /   O peration     | Version:  v2012                                 |
|   \\  /    A nd           | Website:  www.openfoam.com                      |
|    \\/     M anipulation  |                                                 |
\*---------------------------------------------------------------------------*/
FoamFile
{
    version     2.0;
    format      ascii;
    class       volScalarField;
    location    "770/heater";
    object      T;
}
// * * * * * * * * * * * * * * * * * * * * * * * * * * * * * * * * * * * * * //

dimensions      [0 0 0 1 0 0 0];


internalField   nonuniform List<scalar> 
80
(
729.79856
731.80793
735.75318
741.42756
720.39734
722.75051
727.42511
734.22287
700.61329
703.72336
709.98913
719.26019
668.69262
672.61625
681.06847
694.71867
345.27731
342.48855
342.45109
345.04618
421.37109
417.94856
418.03906
421.43551
486.36906
483.51631
484.08781
487.63769
541.59607
539.90029
541.69255
545.99002
587.36167
587.57731
592.07489
599.41595
622.29595
625.86783
635.20403
654.06268
345.25804
342.49246
342.45763
345.05406
421.39048
417.98347
418.06697
421.43272
486.44851
483.58355
484.14026
487.64144
541.74627
540.01417
541.78669
546.05269
587.53029
587.71555
592.19895
599.54122
622.45187
626.01238
635.33391
654.1803
669.15809
673.06441
681.4661
695.0186
701.02321
704.13518
710.38537
719.59112
720.63019
723.02633
727.73801
734.51795
729.98222
732.01506
735.9993
741.71033
)
;

boundaryField
{
    minY
    {
        type            fixedValue;
        value           uniform 300;
    }
    minZ
    {
        type            zeroGradient;
    }
    maxZ
    {
        type            zeroGradient;
    }
    heater_to_topAir
    {
        type            compressible::turbulentTemperatureCoupledBaffleMixed;
        refValue        nonuniform List<scalar> 
40
(
520.47599
517.08056
511.27229
503.87167
483.14385
470.85667
458.026
446.89405
494.10747
482.99004
471.33268
460.38174
509.04354
505.66834
504.76523
505.63819
506.40232
504.29835
505.31664
507.3191
506.38382
503.42375
503.67999
505.66963
508.8243
504.46304
502.43827
502.31991
493.83836
482.17486
469.75896
458.21378
482.88793
470.60931
457.644
446.26148
520.14896
516.73493
510.84919
503.30958
)
;
        refGradient     uniform 0;
        valueFraction   nonuniform List<scalar> 
40
(
0.00032132529
0.00032132529
0.00032132529
0.00032132529
0.00032132529
0.00032132529
0.00032132529
0.00032132529
0.00032132529
0.00032132529
0.00032132529
0.00032132529
0.00032132529
0.00032132529
0.00032132529
0.00032132529
0.00032132529
0.00032132529
0.00032132529
0.00032132529
0.00032132529
0.00032132529
0.00032132529
0.00032132529
0.00032132529
0.00032132529
0.00032132529
0.00032132529
0.00032132529
0.00032132529
0.00032132529
0.00032132529
0.00032132529
0.00032132529
0.00032132529
0.00032132529
0.00032132529
0.00032132529
0.00032132529
0.00032132529
)
;
        value           nonuniform List<scalar> 
40
(
729.73161
731.73924
735.68153
741.35182
720.32131
722.66974
727.33899
734.13108
700.54712
703.65265
709.91282
719.17752
668.64154
672.56288
681.01219
694.65837
622.25896
625.82903
635.16259
654.01589
622.41485
625.97326
635.2919
654.13292
669.1069
673.01057
681.40892
694.95707
700.95692
704.06415
710.30836
719.50748
720.55396
722.94537
727.65144
734.42561
729.91488
731.94597
735.92716
741.63401
)
;
        Tnbr            T;
        thicknessLayers List<scalar> 0();
        kappaLayers     List<scalar> 0();
        kappaMethod     solidThermo;
        kappa           none;
        alphaAni        none;
        alpha           none;
        field           T;
    }
    heater_to_rightSolid
    {
        type            compressible::turbulentTemperatureCoupledBaffleMixed;
        refValue        nonuniform List<scalar> 10(748.43943 742.56952 730.80803 713.32758 692.7606 692.88886 713.55224 731.06801 742.83524 748.71152);
        refGradient     uniform 0;
        valueFraction   nonuniform List<scalar> 10(0.49999997 0.49999997 0.49999997 0.49999997 0.49999997 0.49999997 0.49999997 0.49999997 0.49999997 0.49999997);
        value           nonuniform List<scalar> 10(744.93379 738.39646 725.03436 704.02335 673.41182 673.53475 704.28562 725.32974 738.67673 745.21106);
        Tnbr            T;
        thicknessLayers List<scalar> 0();
        kappaLayers     List<scalar> 0();
        kappaMethod     solidThermo;
        kappa           none;
        alphaAni        none;
        alpha           none;
        field           T;
    }
    heater_to_leftSolid
    {
        type            compressible::turbulentTemperatureCoupledBaffleMixed;
        refValue        nonuniform List<scalar> 10(927.69013 927.4966 927.14246 926.68857 926.28881 926.09895 926.03539 926.00901 926.09907 926.17493);
        refGradient     uniform 0;
        valueFraction   nonuniform List<scalar> 10(2.0832898e-05 2.0832898e-05 2.0832898e-05 2.0832898e-05 2.0832898e-05 2.0832898e-05 2.0832898e-05 2.0832898e-05 2.0832898e-05 2.0832898e-05);
        value           nonuniform List<scalar> 10(729.803 720.40186 700.61819 668.69822 622.30253 622.45847 669.16377 701.02818 720.63463 729.98639);
        Tnbr            T;
        thicknessLayers List<scalar> 1(0.001);
        kappaLayers     List<scalar> 1(0.0005);
        kappaMethod     solidThermo;
        kappa           none;
        alphaAni        none;
        alpha           none;
        field           T;
    }
    heater_to_bottomWater
    {
        type            compressible::turbulentTemperatureCoupledBaffleMixed;
        refValue        nonuniform List<scalar> 
92
(
941.40839
936.83212
927.56563
921.86097
943.53834
933.31915
917.22737
921.05389
924.81782
922.19597
916.09587
912.94954
932.04989
918.16728
915.74971
914.57738
924.66944
913.81094
911.2946
910.901
923.94024
914.77689
909.49336
908.63514
914.27228
910.2261
907.62833
907.2125
911.87611
911.87611
908.03831
908.03831
906.82378
906.82378
907.46486
907.46486
937.36849
897.85253
934.01945
900.6429
925.60514
898.73633
918.49076
895.89385
922.20147
888.03365
936.97935
919.34972
919.51196
915.91998
902.20163
909.00157
934.81162
922.28561
922.1757
918.16241
897.11168
912.17955
930.95936
925.56048
923.34245
919.72145
891.24827
912.62037
925.77898
926.56523
924.27912
922.6293
894.259
913.56716
927.93972
928.07267
925.38871
923.69329
896.74137
913.26167
928.07267
925.38871
923.69329
913.26167
928.78519
927.52054
925.73841
919.04144
934.91263
931.47678
925.21304
924.96884
940.4475
935.75514
929.02037
930.58514
)
;
        refGradient     uniform 0;
        valueFraction   nonuniform List<scalar> 
92
(
0.0075140686
0.0075140686
0.0075140686
0.0075140686
0.0075140686
0.0075140686
0.0075140686
0.0075140686
0.0075140686
0.0075140686
0.0075140686
0.0075140686
0.0075140686
0.0075140686
0.0075140686
0.0075140686
0.0075140686
0.0075140686
0.0075140686
0.0075140686
0.0075140686
0.0075140686
0.0075140686
0.0075140686
0.0075140686
0.0075140686
0.0075140686
0.0075140686
0.0075140686
0.0075140686
0.0075140686
0.0075140686
0.0075140686
0.0075140686
0.0075140686
0.0075140686
0.0075140679
0.0075140679
0.0075140679
0.0075140679
0.0075140679
0.0075140679
0.0075140679
0.0075140679
0.0075140679
0.0075140679
0.0075140679
0.0075140686
0.0075140686
0.0075140686
0.0075140679
0.0075140686
0.0075140679
0.0075140686
0.0075140686
0.0075140686
0.0075140679
0.0075140686
0.0075140679
0.0075140686
0.0075140686
0.0075140686
0.0075140679
0.0075140686
0.0075140679
0.0075140686
0.0075140686
0.0075140686
0.0075140679
0.0075140686
0.0075140679
0.0075140686
0.0075140686
0.0075140686
0.0075140679
0.0075140686
0.0075140686
0.0075140686
0.0075140686
0.0075140686
0.0075140686
0.0075140686
0.0075140686
0.0075140686
0.0075140686
0.0075140686
0.0075140686
0.0075140686
0.0075140686
0.0075140686
0.0075140686
0.0075140686
)
;
        value           nonuniform List<scalar> 
92
(
731.38892
733.3488
737.19495
742.78394
722.07424
724.33291
728.85173
735.62726
702.29816
705.36519
711.5382
720.71609
349.68651
346.81431
346.75892
349.32565
425.15327
421.6747
421.74549
425.1134
489.65754
486.75712
487.28448
490.80116
544.3967
542.68317
544.44238
548.70441
670.52014
589.80031
674.3855
589.98551
682.76518
594.44017
696.31771
601.73094
349.72648
349.19998
425.22353
425.03632
489.67005
490.72678
544.4284
548.61936
589.87789
601.58493
349.7044
349.57193
346.82829
346.76669
349.24047
349.29157
425.24866
425.15454
421.77218
421.82481
425.00701
425.12023
489.78903
489.74846
486.88819
487.41339
490.67426
490.83485
544.63235
544.63826
542.90184
544.64856
548.6693
548.81438
590.08844
590.08944
590.25311
594.69007
601.77465
601.89878
671.10391
674.96073
683.28656
696.65888
702.73491
705.814
712.00385
721.09014
722.24048
724.59279
729.22206
735.94929
731.56376
733.54606
737.44988
743.12983
)
;
        Tnbr            T;
        thicknessLayers List<scalar> 0();
        kappaLayers     List<scalar> 0();
        kappaMethod     solidThermo;
        kappa           none;
        alphaAni        none;
        alpha           none;
        field           T;
    }
}


// ************************************************************************* //
