/*--------------------------------*- C++ -*----------------------------------*\
| =========                 |                                                 |
| \\      /  F ield         | OpenFOAM: The Open Source CFD Toolbox           |
|  \\    /   O peration     | Version:  v2012                                 |
|   \\  /    A nd           | Website:  www.openfoam.com                      |
|    \\/     M anipulation  |                                                 |
\*---------------------------------------------------------------------------*/
FoamFile
{
    version     2.0;
    format      ascii;
    class       volScalarField;
    location    "400/rightSolid";
    object      T;
}
// * * * * * * * * * * * * * * * * * * * * * * * * * * * * * * * * * * * * * //

dimensions      [0 0 0 1 0 0 0];


internalField   nonuniform List<scalar> 
130
(
750.34142
758.36521
766.71163
774.95984
782.78954
789.98522
796.41571
802.00451
806.70196
810.47067
813.29913
815.18559
816.12973
744.51763
753.86632
763.37324
772.54841
781.07866
788.7859
795.5745
801.40516
806.27118
810.15702
813.06328
814.99651
815.96247
732.76563
745.16476
757.166
768.21447
778.09205
786.73741
794.16538
800.42683
805.57674
809.66306
812.7021
814.71504
815.71853
715.18207
733.35738
749.38117
763.09704
774.71153
784.48935
792.65866
799.40734
804.87932
809.17795
812.36737
814.47102
815.51752
694.41211
722.05409
742.83849
759.11213
772.18655
782.83428
791.55516
798.6738
804.39271
808.84089
812.13001
814.29616
815.37133
694.03863
721.64137
742.43312
758.74041
771.86244
782.5701
791.34227
798.50594
804.25814
808.72532
812.02422
814.20311
815.28605
714.14521
732.27033
748.31547
762.10878
773.8329
783.72582
792.01073
798.87412
804.44873
808.80694
812.04436
814.18841
815.25586
731.22471
743.62382
755.67728
766.8346
776.84493
785.62721
793.18884
799.5776
804.8409
809.01695
812.1483
814.2288
815.26741
742.62658
751.99731
761.5791
770.88997
779.5787
787.43459
794.36442
800.32574
805.30907
809.31565
812.33128
814.33781
815.34169
748.3123
756.36261
764.78033
773.15408
781.16285
788.51946
795.09178
800.80913
805.63689
809.54307
812.47853
814.43681
815.41379
)
;

boundaryField
{
    maxX
    {
        type            zeroGradient;
    }
    minZ
    {
        type            zeroGradient;
    }
    maxZ
    {
        type            zeroGradient;
    }
    rightSolid_to_bottomWater
    {
        type            compressible::turbulentTemperatureCoupledBaffleMixed;
        refValue        nonuniform List<scalar> 
130
(
946.34567
948.28785
948.90608
949.61501
949.32055
948.29858
947.79209
948.81681
950.58968
950.91547
950.81438
950.74857
950.71486
946.09191
948.47855
949.43593
949.52789
948.5821
948.35983
947.89587
947.27506
949.66798
950.4439
950.6483
950.63707
950.52309
942.6225
945.74732
947.25668
946.70411
947.22627
947.43804
946.79509
946.48991
946.47303
949.33389
949.98905
950.05975
949.97144
934.62068
945.00679
945.79383
945.67109
945.1939
945.72404
945.40674
944.84941
945.04993
946.97961
950.56022
951.18321
951.59289
931.6944
941.35914
941.25393
940.76045
941.67797
940.34999
940.62161
943.55636
947.25872
947.31606
951.20458
952.50066
952.79577
922.95321
929.72524
932.45558
934.82511
937.35363
940.62265
942.30911
946.4921
950.23343
949.79912
951.63724
953.52312
954.16355
925.98532
928.61202
931.10077
934.82071
938.84701
941.27562
943.18553
946.06507
951.79556
950.70078
953.08799
954.83149
955.34387
934.1802
935.38864
937.05727
940.93734
943.8862
945.26718
945.48513
946.34052
947.5859
947.74951
951.97043
953.92039
954.6696
935.48515
935.62923
936.6815
942.99557
946.09077
945.50604
945.84217
945.81827
946.08708
949.08327
953.00428
953.67972
954.36246
940.82244
940.24984
939.4109
939.36549
947.33209
947.33093
946.5123
945.88552
947.49145
952.71007
953.64137
954.42692
953.85267
)
;
        refGradient     uniform 0;
        valueFraction   nonuniform List<scalar> 
130
(
0.0075140686
0.0075140686
0.0075140686
0.0075140686
0.0075140686
0.0075140686
0.0075140686
0.0075140686
0.0075140686
0.0075140686
0.0075140686
0.0075140686
0.0075140686
0.0075140686
0.0075140686
0.0075140686
0.0075140686
0.0075140686
0.0075140686
0.0075140686
0.0075140686
0.0075140686
0.0075140686
0.0075140686
0.0075140686
0.0075140686
0.0075140686
0.0075140686
0.0075140686
0.0075140686
0.0075140686
0.0075140686
0.0075140686
0.0075140686
0.0075140686
0.0075140686
0.0075140686
0.0075140686
0.0075140686
0.0075140686
0.0075140686
0.0075140686
0.0075140686
0.0075140686
0.0075140686
0.0075140686
0.0075140686
0.0075140686
0.0075140686
0.0075140686
0.0075140686
0.0075140686
0.0075140686
0.0075140686
0.0075140686
0.0075140686
0.0075140686
0.0075140686
0.0075140686
0.0075140686
0.0075140686
0.0075140686
0.0075140686
0.0075140686
0.0075140686
0.0075140686
0.0075140686
0.0075140686
0.0075140686
0.0075140686
0.0075140686
0.0075140686
0.0075140686
0.0075140686
0.0075140686
0.0075140686
0.0075140686
0.0075140686
0.0075140686
0.0075140686
0.0075140686
0.0075140686
0.0075140686
0.0075140686
0.0075140686
0.0075140686
0.0075140686
0.0075140686
0.0075140686
0.0075140686
0.0075140686
0.0075140686
0.0075140686
0.0075140686
0.0075140686
0.0075140686
0.0075140686
0.0075140686
0.0075140686
0.0075140686
0.0075140686
0.0075140686
0.0075140686
0.0075140686
0.0075140686
0.0075140686
0.0075140686
0.0075140686
0.0075140686
0.0075140686
0.0075140686
0.0075140686
0.0075140686
0.0075140686
0.0075140686
0.0075140686
0.0075140686
0.0075140686
0.0075140686
0.0075140686
0.0075140686
0.0075140686
0.0075140686
0.0075140686
0.0075140686
0.0075140686
0.0075140686
0.0075140686
0.0075140686
0.0075140686
)
;
        value           nonuniform List<scalar> 
130
(
751.81304
759.79109
768.07939
776.27089
784.0395
791.1734
797.55172
803.10618
807.78162
811.52444
814.33086
816.20265
817.13944
746.03113
755.32746
764.77009
773.87696
782.33596
789.98358
796.71763
802.49976
807.34714
811.20959
814.09552
816.01412
816.97197
734.34138
746.67078
758.59314
769.5544
779.36163
787.94357
795.31084
801.52289
806.63392
810.71098
813.73207
815.7304
816.72567
716.82984
734.94657
750.85584
764.46768
775.99126
785.69953
793.80501
800.49872
805.93102
810.21178
813.40412
815.49662
816.53831
696.19401
723.70082
744.32819
760.47578
773.45876
784.01642
792.67374
799.76087
805.46455
809.8797
813.17331
815.33292
816.40222
695.75769
723.20379
743.85971
760.06216
773.10449
783.7562
792.47505
799.61626
805.35328
809.78359
813.07151
815.24819
816.32779
715.73583
733.74441
749.68758
763.40509
775.07129
784.90808
793.14502
799.97841
805.55413
809.87134
813.10237
815.24341
816.30667
732.7485
745.06346
757.03883
768.14137
778.09855
786.82517
794.33157
800.6787
805.91175
810.05762
813.19715
815.27664
816.31306
744.07441
753.37578
762.89346
772.1817
780.82832
788.62075
795.50098
801.41728
806.36515
810.3641
813.38648
815.38298
816.38442
749.75737
757.74285
766.091
774.40148
782.40987
789.71114
796.22787
801.89752
806.70105
810.61705
813.53739
815.48681
816.45212
)
;
        Tnbr            T;
        thicknessLayers List<scalar> 0();
        kappaLayers     List<scalar> 0();
        kappaMethod     solidThermo;
        kappa           none;
        alphaAni        none;
        alpha           none;
        field           T;
    }
    rightSolid_to_topAir
    {
        type            compressible::turbulentTemperatureCoupledBaffleMixed;
        refValue        nonuniform List<scalar> 
130
(
489.4338
483.1273
477.52022
472.91654
469.39882
466.93469
465.457
464.90966
465.27709
466.62356
469.17816
473.48911
480.29471
437.17365
431.67296
428.17105
426.06274
424.88775
424.39125
424.49401
425.21756
426.64243
428.9402
432.55669
438.54667
447.72171
443.06086
433.84823
426.25545
420.21206
415.61683
412.43294
410.67653
410.33775
411.32552
413.49247
416.83988
422.21023
433.17223
491.59031
491.73516
490.995
488.99573
485.80984
481.8036
477.48164
473.29369
469.76481
468.12877
470.82188
480.01466
490.65123
496.03499
500.42148
504.92491
509.20975
512.97525
515.9851
518.10639
519.34116
519.89393
520.33996
521.76
525.63145
533.54787
499.66143
503.92757
508.44929
512.90645
516.99651
520.45835
523.11641
524.94265
526.15586
527.34908
529.54188
534.16013
543.21689
496.34168
498.03791
498.79117
498.21458
496.27558
493.22606
489.46947
485.56554
482.49855
481.91497
485.48726
491.45757
502.03798
444.35478
436.10189
428.97331
422.94614
418.05135
414.43397
412.27136
411.65493
412.53839
414.79353
418.43675
424.62471
435.63779
434.89451
429.72068
426.58499
424.80435
423.88345
423.5632
423.76972
424.53946
425.99439
428.32094
431.88987
437.75483
447.88564
488.4468
482.17357
476.66271
472.19931
468.84793
466.56083
465.26146
464.89167
465.44521
466.99488
469.75735
474.28336
481.49218
)
;
        refGradient     uniform 0;
        valueFraction   nonuniform List<scalar> 
130
(
0.00032132529
0.00032132529
0.00032132529
0.00032132529
0.00032132529
0.00032132529
0.00032132529
0.00032132529
0.00032132529
0.00032132529
0.00032132529
0.00032132529
0.00032132529
0.00032132529
0.00032132529
0.00032132529
0.00032132529
0.00032132529
0.00032132529
0.00032132529
0.00032132529
0.00032132529
0.00032132529
0.00032132529
0.00032132529
0.00032132529
0.00032132529
0.00032132529
0.00032132529
0.00032132529
0.00032132529
0.00032132529
0.00032132529
0.00032132529
0.00032132529
0.00032132529
0.00032132529
0.00032132529
0.00032132529
0.00032132529
0.00032132529
0.00032132529
0.00032132529
0.00032132529
0.00032132529
0.00032132529
0.00032132529
0.00032132529
0.00032132529
0.00032132529
0.00032132529
0.00032132529
0.00032132529
0.00032132529
0.00032132529
0.00032132529
0.00032132529
0.00032132529
0.00032132529
0.00032132529
0.00032132529
0.00032132529
0.00032132529
0.00032132529
0.00032132529
0.00032132529
0.00032132529
0.00032132529
0.00032132529
0.00032132529
0.00032132529
0.00032132529
0.00032132529
0.00032132529
0.00032132529
0.00032132529
0.00032132529
0.00032132529
0.00032132529
0.00032132529
0.00032132529
0.00032132529
0.00032132529
0.00032132529
0.00032132529
0.00032132529
0.00032132529
0.00032132529
0.00032132529
0.00032132529
0.00032132529
0.00032132529
0.00032132529
0.00032132529
0.00032132529
0.00032132529
0.00032132529
0.00032132529
0.00032132529
0.00032132529
0.00032132529
0.00032132529
0.00032132529
0.00032132529
0.00032132529
0.00032132529
0.00032132529
0.00032132529
0.00032132529
0.00032132529
0.00032132529
0.00032132529
0.00032132529
0.00032132529
0.00032132529
0.00032132529
0.00032132529
0.00032132529
0.00032132529
0.00032132529
0.00032132529
0.00032132529
0.00032132529
0.00032132529
0.00032132529
0.00032132529
0.00032132529
0.00032132529
0.00032132529
0.00032132529
)
;
        value           nonuniform List<scalar> 
130
(
750.25641
758.27555
766.61743
774.86146
782.68747
789.88001
796.30791
801.89469
806.59071
810.35863
813.18698
815.07421
816.02024
744.41772
753.7616
763.26428
772.43578
780.96287
788.66743
795.45382
801.2828
806.14765
810.03296
812.93942
814.87394
815.84254
732.6714
745.06354
757.05845
768.10139
777.97426
786.61577
794.04073
800.30001
805.44852
809.53417
812.57327
814.58728
815.59395
715.10911
733.27857
749.29694
763.00772
774.6174
784.39073
792.55596
799.30106
804.77008
809.06673
812.25597
814.36187
815.41143
694.3473
721.98172
742.76082
759.03055
772.10189
782.74708
791.46577
798.58244
804.29962
808.74647
812.03498
814.20167
815.27903
693.97515
721.57026
742.35667
758.66004
771.77908
782.48435
791.25447
798.41636
804.16704
808.63313
811.93166
814.11133
815.19682
714.07406
732.19382
748.23393
762.02252
773.74217
783.63088
791.91186
798.77172
804.34349
808.70008
811.93761
814.08289
815.15338
731.1313
743.5237
755.57094
766.72264
776.72809
785.50634
793.06479
799.45125
804.71309
808.88849
812.02
814.10178
815.14358
742.52637
751.89239
761.47008
770.77727
779.46283
787.31606
794.24368
800.20328
805.18544
809.19144
812.2072
814.21494
815.22172
748.22732
756.273
764.68623
773.05584
781.0609
788.41435
794.98409
800.69945
805.52582
809.4312
812.36654
814.3256
815.30457
)
;
        Tnbr            T;
        thicknessLayers List<scalar> 0();
        kappaLayers     List<scalar> 0();
        kappaMethod     solidThermo;
        kappa           none;
        alphaAni        none;
        alpha           none;
        field           T;
    }
    rightSolid_to_heater
    {
        type            compressible::turbulentTemperatureCoupledBaffleMixed;
        refValue        nonuniform List<scalar> 10(743.15231 736.00915 721.06738 696.39861 655.47541 655.18299 695.42522 719.54345 734.1185 741.11628);
        refGradient     uniform 0;
        valueFraction   nonuniform List<scalar> 10(0.50000003 0.50000003 0.50000003 0.50000003 0.50000003 0.50000003 0.50000003 0.50000003 0.50000003 0.50000003);
        value           nonuniform List<scalar> 10(746.74628 740.26281 726.91594 705.78978 674.94323 674.6103 704.78463 725.38346 738.37188 744.71355);
        Tnbr            T;
        thicknessLayers List<scalar> 0();
        kappaLayers     List<scalar> 0();
        kappaMethod     solidThermo;
        kappa           none;
        alphaAni        none;
        alpha           none;
        field           T;
    }
}


// ************************************************************************* //
