/*--------------------------------*- C++ -*----------------------------------*\
| =========                 |                                                 |
| \\      /  F ield         | OpenFOAM: The Open Source CFD Toolbox           |
|  \\    /   O peration     | Version:  v2012                                 |
|   \\  /    A nd           | Website:  www.openfoam.com                      |
|    \\/     M anipulation  |                                                 |
\*---------------------------------------------------------------------------*/
FoamFile
{
    version     2.0;
    format      ascii;
    class       volScalarField;
    location    "620/rightSolid";
    object      T;
}
// * * * * * * * * * * * * * * * * * * * * * * * * * * * * * * * * * * * * * //

dimensions      [0 0 0 1 0 0 0];


internalField   nonuniform List<scalar> 
130
(
752.67747
760.79767
769.2871
777.68797
785.66729
792.99251
799.52608
805.16443
809.86021
813.61721
816.42801
818.29374
819.22161
746.85775
756.31727
765.95069
775.26234
783.93828
791.78198
798.67988
804.57389
809.4469
813.32211
816.21133
818.12871
819.09057
735.18257
747.68099
759.80419
770.98408
780.98779
789.75314
797.29302
803.62712
808.80293
812.88079
815.90511
817.90608
818.89914
717.72997
735.97565
752.11094
765.95684
777.70075
787.59445
795.8636
802.68379
808.19068
812.48474
815.64468
817.72532
818.75618
697.07815
724.90379
745.84489
762.25526
775.44045
786.17654
794.9572
802.10341
807.83008
812.26109
815.50498
817.63361
818.68887
697.15062
724.99068
745.93249
762.33447
775.50965
786.23772
795.00322
802.13206
807.84286
812.26996
815.51216
817.63881
818.69325
717.89389
736.1561
752.27893
766.09917
777.81399
787.68191
795.9213
802.71654
808.20799
812.49773
815.6561
817.73525
818.76792
735.42296
747.88237
759.95772
771.096
781.06467
789.79741
797.30245
803.61831
808.7929
812.87396
815.90211
817.9061
818.90396
747.15928
756.53936
766.09348
775.34433
783.9649
791.76087
798.62747
804.51104
809.395
813.28065
816.1821
818.11261
819.07689
752.98448
761.03219
769.41456
777.72161
785.63239
792.91653
799.4256
805.06014
809.77326
813.54529
816.37096
818.25674
819.20134
)
;

boundaryField
{
    maxX
    {
        type            zeroGradient;
    }
    minZ
    {
        type            zeroGradient;
    }
    maxZ
    {
        type            zeroGradient;
    }
    rightSolid_to_bottomWater
    {
        type            compressible::turbulentTemperatureCoupledBaffleMixed;
        refValue        nonuniform List<scalar> 
130
(
926.92062
926.0079
929.96608
932.0081
933.3617
933.16557
934.86383
934.53182
931.55011
931.20016
930.78861
929.99837
928.8087
922.42289
928.78468
928.94119
927.62632
928.41992
931.55371
933.0343
933.00105
930.61364
929.9892
929.23703
928.25274
929.7057
922.90916
926.15353
927.68735
927.20458
925.97673
925.76603
929.21793
929.71033
928.46191
928.08855
928.33263
928.92153
927.91772
924.19553
920.71858
919.43023
919.39253
920.12584
921.41188
923.17458
924.60421
926.06112
926.98992
927.37137
927.75681
927.03158
915.38907
917.73396
917.36261
918.22054
919.17119
918.99023
919.54647
920.83261
925.52115
926.31513
926.70728
927.05903
927.17398
917.52288
921.19152
921.9458
922.54194
923.00712
923.6872
923.22658
923.21435
925.20898
926.28867
926.63739
926.53876
926.4925
924.55525
924.31209
924.02869
923.74826
923.33412
924.39393
924.4023
924.56893
925.08805
926.14086
926.40894
926.2619
926.10183
926.142
925.68333
926.26721
926.35903
926.20911
926.09962
926.21707
926.28538
926.09903
925.97981
926.18587
926.24112
926.02615
929.5882
927.60684
925.82287
926.58941
926.94013
926.98639
927.2569
927.20845
927.10565
926.34512
925.94994
926.10383
925.92969
928.76651
927.89642
926.21457
925.82365
926.12327
926.37878
927.55253
927.46243
927.04129
926.66549
925.75585
925.84119
926.04876
)
;
        refGradient     uniform 0;
        valueFraction   nonuniform List<scalar> 
130
(
0.0075140686
0.0075140686
0.0075140686
0.0075140686
0.0075140686
0.0075140686
0.0075140686
0.0075140686
0.0075140686
0.0075140686
0.0075140686
0.0075140686
0.0075140686
0.0075140686
0.0075140686
0.0075140686
0.0075140686
0.0075140686
0.0075140686
0.0075140686
0.0075140686
0.0075140686
0.0075140686
0.0075140686
0.0075140686
0.0075140686
0.0075140686
0.0075140686
0.0075140686
0.0075140686
0.0075140686
0.0075140686
0.0075140686
0.0075140686
0.0075140686
0.0075140686
0.0075140686
0.0075140686
0.0075140686
0.0075140686
0.0075140686
0.0075140686
0.0075140686
0.0075140686
0.0075140686
0.0075140686
0.0075140686
0.0075140686
0.0075140686
0.0075140686
0.0075140686
0.0075140686
0.0075140686
0.0075140686
0.0075140686
0.0075140686
0.0075140686
0.0075140686
0.0075140686
0.0075140686
0.0075140686
0.0075140686
0.0075140686
0.0075140686
0.0075140686
0.0075140686
0.0075140686
0.0075140686
0.0075140686
0.0075140686
0.0075140686
0.0075140686
0.0075140686
0.0075140686
0.0075140686
0.0075140686
0.0075140686
0.0075140686
0.0075140686
0.0075140686
0.0075140686
0.0075140686
0.0075140686
0.0075140686
0.0075140686
0.0075140686
0.0075140686
0.0075140686
0.0075140686
0.0075140686
0.0075140686
0.0075140686
0.0075140686
0.0075140686
0.0075140686
0.0075140686
0.0075140686
0.0075140686
0.0075140686
0.0075140686
0.0075140686
0.0075140686
0.0075140686
0.0075140686
0.0075140686
0.0075140686
0.0075140686
0.0075140686
0.0075140686
0.0075140686
0.0075140686
0.0075140686
0.0075140686
0.0075140686
0.0075140686
0.0075140686
0.0075140686
0.0075140686
0.0075140686
0.0075140686
0.0075140686
0.0075140686
0.0075140686
0.0075140686
0.0075140686
0.0075140686
0.0075140686
0.0075140686
0.0075140686
0.0075140686
)
;
        value           nonuniform List<scalar> 
130
(
753.98693
762.0392
770.4946
778.8477
786.77721
794.04585
800.54306
806.13654
810.77462
814.50076
817.28733
819.13308
820.04499
748.17713
757.61332
767.17554
776.40737
785.0241
792.83232
799.68949
805.53895
810.35739
814.19878
817.06063
818.95619
819.92173
736.59324
749.02214
761.06584
772.15814
782.07748
790.77534
798.28444
804.57461
809.70212
813.74651
816.74994
818.74029
819.71834
719.28136
737.36384
753.36831
767.10996
778.77115
788.60016
796.82038
803.60006
809.07649
813.34522
816.48427
818.55217
819.56984
698.71854
726.35278
747.13381
763.42736
776.52062
787.17469
795.89357
802.99576
808.71459
813.11823
816.34067
818.45594
819.50414
698.80663
726.46509
747.25522
763.53845
776.61813
787.27073
795.96691
803.04208
808.72495
813.12688
816.34733
818.45725
819.50342
719.44694
737.57012
753.56967
767.28397
778.90767
788.70941
796.88696
803.63239
809.08646
813.35186
816.4885
818.55092
819.57464
736.85624
749.21857
761.2076
772.2629
782.15554
790.82185
798.27138
804.54029
809.67459
813.72408
816.73102
818.72036
819.70911
748.5303
757.82501
767.29395
776.48105
785.03949
792.77723
799.59427
805.43326
810.27974
814.13047
817.00714
818.92429
819.88002
754.30559
762.2863
770.59305
778.83473
786.68832
793.91964
800.38862
805.98014
810.65467
814.39553
817.19312
819.06536
820.00442
)
;
        Tnbr            T;
        thicknessLayers List<scalar> 0();
        kappaLayers     List<scalar> 0();
        kappaMethod     solidThermo;
        kappa           none;
        alphaAni        none;
        alpha           none;
        field           T;
    }
    rightSolid_to_topAir
    {
        type            compressible::turbulentTemperatureCoupledBaffleMixed;
        refValue        nonuniform List<scalar> 
130
(
494.97559
487.7332
481.47336
476.45991
472.7319
470.2154
468.80374
468.40508
468.98267
470.59456
473.45946
478.12559
485.46224
437.57574
432.12934
428.88361
427.10033
426.26275
426.10153
426.52212
427.52757
429.2077
431.75189
435.56314
441.66738
451.77276
449.48401
440.94377
433.49271
427.11606
421.87703
417.95107
415.53519
414.73284
415.49625
417.71266
421.38324
427.41731
437.66223
504.5371
505.39089
505.01165
503.04918
499.57125
494.90082
489.45802
483.80666
478.92784
476.50234
478.51281
485.5811
496.18906
508.8287
512.74098
516.85888
520.80699
524.22264
526.79101
528.30176
528.7331
528.37384
527.96067
528.69575
532.13777
540.01708
507.9235
511.69482
515.58592
519.19165
522.15137
524.20172
525.2134
525.24397
524.62935
524.11574
524.86148
528.30406
535.99579
501.96227
502.06695
500.71563
497.64746
493.19164
487.99232
482.59146
477.40116
473.12389
471.1643
473.54371
481.6026
492.38916
447.8787
439.15516
431.63429
425.32766
420.32606
416.79236
414.8411
414.44501
415.44217
417.65951
421.1234
426.72873
436.85521
437.53884
431.94982
428.5329
426.57358
425.59779
425.38345
425.86524
427.02014
428.86956
431.53477
435.41323
441.56176
451.38023
494.80341
487.44095
481.04985
475.90033
472.0471
469.43766
467.98204
467.58674
468.19292
469.82689
472.68645
477.30828
484.49519
)
;
        refGradient     uniform 0;
        valueFraction   nonuniform List<scalar> 
130
(
0.00032132529
0.00032132529
0.00032132529
0.00032132529
0.00032132529
0.00032132529
0.00032132529
0.00032132529
0.00032132529
0.00032132529
0.00032132529
0.00032132529
0.00032132529
0.00032132529
0.00032132529
0.00032132529
0.00032132529
0.00032132529
0.00032132529
0.00032132529
0.00032132529
0.00032132529
0.00032132529
0.00032132529
0.00032132529
0.00032132529
0.00032132529
0.00032132529
0.00032132529
0.00032132529
0.00032132529
0.00032132529
0.00032132529
0.00032132529
0.00032132529
0.00032132529
0.00032132529
0.00032132529
0.00032132529
0.00032132529
0.00032132529
0.00032132529
0.00032132529
0.00032132529
0.00032132529
0.00032132529
0.00032132529
0.00032132529
0.00032132529
0.00032132529
0.00032132529
0.00032132529
0.00032132529
0.00032132529
0.00032132529
0.00032132529
0.00032132529
0.00032132529
0.00032132529
0.00032132529
0.00032132529
0.00032132529
0.00032132529
0.00032132529
0.00032132529
0.00032132529
0.00032132529
0.00032132529
0.00032132529
0.00032132529
0.00032132529
0.00032132529
0.00032132529
0.00032132529
0.00032132529
0.00032132529
0.00032132529
0.00032132529
0.00032132529
0.00032132529
0.00032132529
0.00032132529
0.00032132529
0.00032132529
0.00032132529
0.00032132529
0.00032132529
0.00032132529
0.00032132529
0.00032132529
0.00032132529
0.00032132529
0.00032132529
0.00032132529
0.00032132529
0.00032132529
0.00032132529
0.00032132529
0.00032132529
0.00032132529
0.00032132529
0.00032132529
0.00032132529
0.00032132529
0.00032132529
0.00032132529
0.00032132529
0.00032132529
0.00032132529
0.00032132529
0.00032132529
0.00032132529
0.00032132529
0.00032132529
0.00032132529
0.00032132529
0.00032132529
0.00032132529
0.00032132529
0.00032132529
0.00032132529
0.00032132529
0.00032132529
0.00032132529
0.00032132529
0.00032132529
0.00032132529
0.00032132529
0.00032132529
0.00032132529
)
;
        value           nonuniform List<scalar> 
130
(
752.59485
760.71005
769.19477
777.59133
785.56687
792.88886
799.41986
805.05625
809.7507
813.50701
816.31781
818.18442
819.1143
746.75854
756.21322
765.84252
775.15063
783.82352
791.66457
798.56036
804.45278
809.32476
813.19953
816.08904
818.00774
818.97253
735.09085
747.58252
759.6995
770.8738
780.87263
789.63387
797.17048
803.50225
808.67662
812.75386
815.77838
817.78064
818.77666
717.66146
735.90158
752.03166
765.87255
777.61159
787.5006
795.76531
802.58148
808.085
812.37686
815.53642
817.61866
818.6526
697.01765
724.83567
745.77144
762.17784
775.3599
786.09337
794.87172
802.01578
807.74045
812.16987
815.41293
817.54198
818.59943
697.08993
724.92229
745.85863
762.25651
775.42842
786.15372
794.91674
802.04329
807.75205
812.17754
815.41893
817.546
818.60258
717.82469
736.08109
752.1983
766.01313
777.72276
787.58585
795.82087
802.61225
808.10054
812.38826
815.54637
817.62744
818.66325
735.33077
747.78337
759.85245
770.98514
780.949
789.67781
797.17982
803.49351
808.66675
812.7472
815.77549
817.78063
818.78142
747.06003
756.4353
765.98526
775.23252
783.85001
791.64341
798.50797
804.39001
809.27298
813.15823
816.05999
817.99185
818.95897
752.90179
760.94456
769.32219
777.6249
785.5319
792.81285
799.31936
804.95196
809.66375
813.43509
816.26076
818.14741
819.09401
)
;
        Tnbr            T;
        thicknessLayers List<scalar> 0();
        kappaLayers     List<scalar> 0();
        kappaMethod     solidThermo;
        kappa           none;
        alphaAni        none;
        alpha           none;
        field           T;
    }
    rightSolid_to_heater
    {
        type            compressible::turbulentTemperatureCoupledBaffleMixed;
        refValue        nonuniform List<scalar> 10(745.41308 738.2799 723.40822 698.84695 657.84898 657.89113 698.97203 723.64491 738.60482 745.76503);
        refGradient     uniform 0;
        valueFraction   nonuniform List<scalar> 10(0.50000003 0.50000003 0.50000003 0.50000003 0.50000003 0.50000003 0.50000003 0.50000003 0.50000003 0.50000003);
        value           nonuniform List<scalar> 10(749.04537 742.56891 729.29544 708.28846 677.46356 677.52093 708.43305 729.53404 742.88217 749.37489);
        Tnbr            T;
        thicknessLayers List<scalar> 0();
        kappaLayers     List<scalar> 0();
        kappaMethod     solidThermo;
        kappa           none;
        alphaAni        none;
        alpha           none;
        field           T;
    }
}


// ************************************************************************* //
