/*--------------------------------*- C++ -*----------------------------------*\
| =========                 |                                                 |
| \\      /  F ield         | OpenFOAM: The Open Source CFD Toolbox           |
|  \\    /   O peration     | Version:  v2012                                 |
|   \\  /    A nd           | Website:  www.openfoam.com                      |
|    \\/     M anipulation  |                                                 |
\*---------------------------------------------------------------------------*/
FoamFile
{
    version     2.0;
    format      ascii;
    class       volScalarField;
    location    "670/leftSolid";
    object      T;
}
// * * * * * * * * * * * * * * * * * * * * * * * * * * * * * * * * * * * * * //

dimensions      [0 0 0 1 0 0 0];


internalField   nonuniform List<scalar> 
130
(
924.37712
924.32305
924.20574
924.02043
923.76664
923.47827
923.19263
922.89158
922.58985
922.29607
922.03362
921.82634
921.71089
924.46576
924.40986
924.28669
924.09383
923.82618
923.54356
923.25477
922.94987
922.64414
922.34691
922.06822
921.84662
921.72516
924.60894
924.55082
924.42615
924.22849
923.95092
923.67003
923.37562
923.06584
922.75229
922.45427
922.16912
921.95184
921.82317
924.74154
924.68644
924.56751
924.37644
924.10289
923.81823
923.52529
923.21586
922.89088
922.57821
922.28287
922.06513
921.92611
924.84633
924.79598
924.68598
924.50759
924.24585
923.96665
923.67671
923.36848
923.04778
922.72666
922.4278
922.21149
922.07282
924.93744
924.89041
924.78755
924.62655
924.42088
924.18041
923.90796
923.61776
923.31113
922.98663
922.69143
922.47103
922.32183
925.02033
924.97127
924.86441
924.72198
924.54646
924.33626
924.09718
923.83862
923.57138
923.3073
923.05781
922.83802
922.65771
925.09739
925.04329
924.93096
924.79578
924.63437
924.44438
924.22963
923.99321
923.7618
923.54311
923.3502
923.19014
923.07457
925.15684
925.09549
924.97586
924.8359
924.67975
924.50248
924.30808
924.09981
923.88801
923.70262
923.54789
923.42783
923.35599
925.18563
925.11643
925.00029
924.85432
924.70043
924.5342
924.35505
924.166
923.97699
923.80654
923.66831
923.55379
923.49985
)
;

boundaryField
{
    minX
    {
        type            zeroGradient;
    }
    minZ
    {
        type            zeroGradient;
    }
    maxZ
    {
        type            zeroGradient;
    }
    leftSolid_to_bottomWater
    {
        type            compressible::turbulentTemperatureCoupledBaffleMixed;
        refValue        nonuniform List<scalar> 
130
(
964.52162
964.54802
964.64645
964.69817
961.85236
955.86589
955.56198
952.72607
950.39238
946.63895
943.26285
939.24258
937.31577
965.81677
965.99616
965.5004
965.47405
959.38601
956.46853
955.58259
952.89739
950.48692
947.83756
941.79558
936.2934
935.01731
968.40826
968.08693
967.66049
967.07635
958.02115
957.88406
956.5096
953.98431
950.71682
949.98596
943.08816
940.56298
937.29959
968.4492
968.25644
968.01535
967.76973
959.59527
958.14645
958.03296
956.81078
951.84102
949.3274
941.68863
940.35844
934.39614
967.18134
967.11495
967.01
966.94567
957.20146
954.64044
954.42308
952.13993
949.38779
945.75327
937.4133
936.76595
931.75665
966.4746
966.4654
966.12123
963.03764
961.44344
960.57437
958.53245
956.89503
955.01267
946.69068
939.2439
938.42029
932.48118
966.14331
965.72894
962.26378
961.3202
961.19847
960.48569
959.74741
958.22173
956.43474
954.92496
952.1681
948.15156
931.88586
966.41699
965.44185
960.77255
960.55122
960.22806
959.43939
958.67206
955.06338
954.30026
952.82353
952.5639
952.4656
948.66348
967.15625
965.4012
959.7607
958.5614
958.33328
957.16657
956.25784
954.87895
951.43809
951.05548
950.87193
950.57224
950.01903
967.36088
963.28717
960.18098
957.20724
957.00061
956.71054
956.08137
954.94908
953.23835
951.85306
952.04486
947.39604
949.28905
)
;
        refGradient     uniform 0;
        valueFraction   nonuniform List<scalar> 
130
(
0.0075140686
0.0075140686
0.0075140686
0.0075140686
0.0075140686
0.0075140686
0.0075140686
0.0075140686
0.0075140686
0.0075140686
0.0075140686
0.0075140686
0.0075140686
0.0075140686
0.0075140686
0.0075140686
0.0075140686
0.0075140686
0.0075140686
0.0075140686
0.0075140686
0.0075140686
0.0075140686
0.0075140686
0.0075140686
0.0075140686
0.0075140686
0.0075140686
0.0075140686
0.0075140686
0.0075140686
0.0075140686
0.0075140686
0.0075140686
0.0075140686
0.0075140686
0.0075140686
0.0075140686
0.0075140686
0.0075140686
0.0075140686
0.0075140686
0.0075140686
0.0075140686
0.0075140686
0.0075140686
0.0075140686
0.0075140686
0.0075140686
0.0075140686
0.0075140686
0.0075140686
0.0075140686
0.0075140686
0.0075140686
0.0075140686
0.0075140686
0.0075140686
0.0075140686
0.0075140686
0.0075140686
0.0075140686
0.0075140686
0.0075140686
0.0075140686
0.0075140686
0.0075140686
0.0075140686
0.0075140686
0.0075140686
0.0075140686
0.0075140686
0.0075140686
0.0075140686
0.0075140686
0.0075140686
0.0075140686
0.0075140686
0.0075140686
0.0075140686
0.0075140686
0.0075140686
0.0075140686
0.0075140686
0.0075140686
0.0075140686
0.0075140686
0.0075140686
0.0075140686
0.0075140686
0.0075140686
0.0075140686
0.0075140686
0.0075140686
0.0075140686
0.0075140686
0.0075140686
0.0075140686
0.0075140686
0.0075140686
0.0075140686
0.0075140686
0.0075140686
0.0075140686
0.0075140686
0.0075140686
0.0075140686
0.0075140686
0.0075140686
0.0075140686
0.0075140686
0.0075140686
0.0075140686
0.0075140686
0.0075140686
0.0075140686
0.0075140686
0.0075140686
0.0075140686
0.0075140686
0.0075140686
0.0075140686
0.0075140686
0.0075140686
0.0075140686
0.0075140686
0.0075140686
0.0075140686
0.0075140686
0.0075140686
)
;
        value           nonuniform List<scalar> 
130
(
924.67785
924.62438
924.50865
924.32508
924.05175
923.72064
923.43494
923.11488
922.79794
922.47822
922.19244
921.95654
921.82749
924.77559
924.72144
924.59545
924.40379
924.09234
923.79002
923.49681
923.17405
922.85256
922.53771
922.2158
921.95453
921.82439
924.9372
924.87709
924.75013
924.54955
924.20603
923.92625
923.62374
923.29733
922.96163
922.66042
922.32565
922.09103
921.93882
925.06915
925.01301
924.89315
924.70166
924.36875
924.07532
923.78372
923.46744
923.10761
922.77846
922.42799
922.20194
922.01918
925.16365
925.11317
925.00322
924.8257
924.49275
924.19637
923.90692
923.58386
923.2449
922.89891
922.53973
922.32023
922.14499
925.24878
925.20204
925.09737
924.91446
924.69841
924.45321
924.1674
923.86708
923.54861
923.16402
922.81512
922.59021
922.39751
925.32859
925.27682
925.14475
924.99631
924.82119
924.60719
924.36432
924.09624
923.81757
923.54414
923.27582
923.02749
922.72625
925.40718
925.3462
925.19965
925.06383
924.9012
924.7067
924.48778
924.22602
923.99061
923.76246
923.56903
923.40939
923.26601
925.47178
925.39774
925.23666
925.08873
924.93204
924.74733
924.54756
924.33049
924.0944
923.90754
923.7526
923.6312
923.55575
925.50193
925.40268
925.26411
925.09687
924.94256
924.77539
924.59287
924.39674
924.1963
924.01672
923.88102
923.73248
923.69316
)
;
        Tnbr            T;
        thicknessLayers List<scalar> 0();
        kappaLayers     List<scalar> 0();
        kappaMethod     solidThermo;
        kappa           none;
        alphaAni        none;
        alpha           none;
        field           T;
    }
    leftSolid_to_heater
    {
        type            compressible::turbulentTemperatureCoupledBaffleMixed;
        refValue        nonuniform List<scalar> 10(732.17821 723.02553 703.56925 671.71901 624.96873 624.99933 671.83804 703.91203 723.56391 732.86461);
        refGradient     uniform 0;
        valueFraction   nonuniform List<scalar> 10(2.08329e-05 2.08329e-05 2.08329e-05 2.08329e-05 2.08329e-05 2.08329e-05 2.08329e-05 2.08329e-05 2.08329e-05 2.08329e-05);
        value           nonuniform List<scalar> 10(921.70628 921.72037 921.81797 921.92026 922.06603 922.31497 922.65168 923.06916 923.35124 923.4954);
        Tnbr            T;
        thicknessLayers List<scalar> 1(0.001);
        kappaLayers     List<scalar> 1(0.0005);
        kappaMethod     solidThermo;
        kappa           none;
        alphaAni        none;
        alpha           none;
        field           T;
    }
    leftSolid_to_topAir
    {
        type            compressible::turbulentTemperatureCoupledBaffleMixed;
        refValue        nonuniform List<scalar> 
130
(
325.37681
348.8377
370.06794
389.67978
408.18165
425.87489
442.86831
459.01091
473.98471
487.74314
500.14445
510.92709
519.52033
325.37403
348.58444
369.32131
388.19669
405.68097
422.01718
437.26557
451.34405
464.02398
474.93733
483.54678
489.19813
491.03243
325.37664
348.63507
369.43862
388.39773
405.99085
422.47355
437.95047
452.44705
465.87846
478.01369
488.42099
496.36546
500.53155
325.38178
348.66049
369.5073
388.53994
406.25621
422.94696
438.77267
453.82015
468.10304
481.534
493.81755
504.24837
511.47167
325.38523
348.67203
369.53245
388.58405
406.32574
423.04974
438.91632
454.00673
468.32391
481.73456
493.80934
503.59308
509.86293
325.38891
348.679
369.54237
388.59698
406.34345
423.07374
438.94921
454.05529
468.40273
481.87653
494.09922
504.19974
510.87789
325.39322
348.68217
369.53815
388.58056
406.30939
423.01521
438.85865
453.92906
468.25245
481.76288
494.21326
504.98306
512.79438
325.39665
348.67302
369.49234
388.46718
406.07742
422.57718
438.08211
452.60794
466.07414
478.27424
488.81706
497.03719
501.72318
325.40253
348.63921
369.40007
388.29992
405.81235
422.17809
437.44418
451.53908
464.24228
475.18619
483.86087
489.65901
491.77838
325.4101
348.90107
370.15878
389.7976
408.32783
426.0489
443.05695
459.18526
474.14373
487.88784
500.28399
511.08333
519.73896
)
;
        refGradient     uniform 0;
        valueFraction   nonuniform List<scalar> 
130
(
0.00032132529
0.00032132529
0.00032132529
0.00032132529
0.00032132529
0.00032132529
0.00032132529
0.00032132529
0.00032132529
0.00032132529
0.00032132529
0.00032132529
0.00032132529
0.00032132529
0.00032132529
0.00032132529
0.00032132529
0.00032132529
0.00032132529
0.00032132529
0.00032132529
0.00032132529
0.00032132529
0.00032132529
0.00032132529
0.00032132529
0.00032132529
0.00032132529
0.00032132529
0.00032132529
0.00032132529
0.00032132529
0.00032132529
0.00032132529
0.00032132529
0.00032132529
0.00032132529
0.00032132529
0.00032132529
0.00032132529
0.00032132529
0.00032132529
0.00032132529
0.00032132529
0.00032132529
0.00032132529
0.00032132529
0.00032132529
0.00032132529
0.00032132529
0.00032132529
0.00032132529
0.00032132529
0.00032132529
0.00032132529
0.00032132529
0.00032132529
0.00032132529
0.00032132529
0.00032132529
0.00032132529
0.00032132529
0.00032132529
0.00032132529
0.00032132529
0.00032132529
0.00032132529
0.00032132529
0.00032132529
0.00032132529
0.00032132529
0.00032132529
0.00032132529
0.00032132529
0.00032132529
0.00032132529
0.00032132529
0.00032132529
0.00032132529
0.00032132529
0.00032132529
0.00032132529
0.00032132529
0.00032132529
0.00032132529
0.00032132529
0.00032132529
0.00032132529
0.00032132529
0.00032132529
0.00032132529
0.00032132529
0.00032132529
0.00032132529
0.00032132529
0.00032132529
0.00032132529
0.00032132529
0.00032132529
0.00032132529
0.00032132529
0.00032132529
0.00032132529
0.00032132529
0.00032132529
0.00032132529
0.00032132529
0.00032132529
0.00032132529
0.00032132529
0.00032132529
0.00032132529
0.00032132529
0.00032132529
0.00032132529
0.00032132529
0.00032132529
0.00032132529
0.00032132529
0.00032132529
0.00032132529
0.00032132529
0.00032132529
0.00032132529
0.00032132529
0.00032132529
0.00032132529
0.00032132529
0.00032132529
0.00032132529
)
;
        value           nonuniform List<scalar> 
130
(
924.18372
924.1372
924.02671
923.84772
923.59989
923.31737
923.03737
922.74164
922.44487
922.15567
921.89735
921.69363
921.58099
924.27237
924.22393
924.10743
923.92065
923.65864
923.38146
923.09773
922.79748
922.49597
922.2024
921.92665
921.70696
921.58612
924.41553
924.3649
924.24693
924.05541
923.78359
923.50811
923.21879
922.91378
922.6047
922.31073
922.02908
921.81443
921.68715
924.54813
924.50053
924.38832
924.20342
923.93565
923.65643
923.36866
923.06417
922.74393
922.43574
922.1445
921.93022
921.79358
924.65291
924.61006
924.5068
924.3346
924.07869
923.80492
923.52012
923.21685
922.90086
922.58418
922.2894
922.07635
921.93977
924.74401
924.70448
924.60837
924.45359
924.25374
924.01872
923.7514
923.46615
923.16422
922.84417
922.55302
922.33596
922.18896
924.82691
924.78538
924.68528
924.54903
924.37926
924.17447
923.94051
923.68688
923.42432
923.16468
922.91927
922.70301
922.5252
924.904
924.85743
924.75185
924.62282
924.46712
924.28248
924.07276
923.84109
923.61407
923.39936
923.20988
923.05247
922.93834
924.96348
924.90964
924.79676
924.66291
924.51244
924.34048
924.15104
923.94736
923.73969
923.55789
923.406
923.28785
923.21672
924.9923
924.9307
924.82147
924.68183
924.53393
924.37344
924.19981
924.01602
923.83188
923.6659
923.53175
923.42078
923.36964
)
;
        Tnbr            T;
        thicknessLayers List<scalar> 0();
        kappaLayers     List<scalar> 0();
        kappaMethod     solidThermo;
        kappa           none;
        alphaAni        none;
        alpha           none;
        field           T;
    }
}


// ************************************************************************* //
