/*--------------------------------*- C++ -*----------------------------------*\
| =========                 |                                                 |
| \\      /  F ield         | OpenFOAM: The Open Source CFD Toolbox           |
|  \\    /   O peration     | Version:  v2012                                 |
|   \\  /    A nd           | Website:  www.openfoam.com                      |
|    \\/     M anipulation  |                                                 |
\*---------------------------------------------------------------------------*/
FoamFile
{
    version     2.0;
    format      ascii;
    class       volScalarField;
    location    "120/heater";
    object      T;
}
// * * * * * * * * * * * * * * * * * * * * * * * * * * * * * * * * * * * * * //

dimensions      [0 0 0 1 0 0 0];


internalField   nonuniform List<scalar> 
80
(
595.01988
596.06045
598.0889
600.93545
589.59192
590.84492
593.29417
596.77124
578.02287
579.69456
583.05352
587.99765
558.72184
560.84949
565.54126
573.20891
337.83553
334.80874
334.85706
337.94639
397.82993
393.92759
394.10759
398.25476
445.76687
442.1831
442.6515
446.91675
483.50145
480.607
481.73286
486.29658
511.63313
510.14241
512.78563
518.76789
529.78218
531.45728
536.8384
548.20257
337.82048
334.80031
334.85253
337.94755
397.79598
393.91078
394.10193
398.25664
445.7164
442.16078
442.64261
446.91278
483.44717
480.5834
481.72283
486.29492
511.59215
510.12145
512.77459
518.76757
529.75685
531.43659
536.82211
548.19155
558.6586
560.78812
565.48399
573.15912
577.96047
579.61528
582.97222
587.92356
589.49799
590.73707
593.18238
596.66214
594.89337
595.92091
597.93604
600.77561
)
;

boundaryField
{
    minY
    {
        type            fixedValue;
        value           uniform 300;
    }
    minZ
    {
        type            zeroGradient;
    }
    maxZ
    {
        type            zeroGradient;
    }
    heater_to_topAir
    {
        type            compressible::turbulentTemperatureCoupledBaffleMixed;
        refValue        nonuniform List<scalar> 
40
(
425.44327
427.68251
428.83762
428.89866
409.45606
408.28762
406.11998
403.41275
414.90318
415.02618
413.75159
410.94736
421.99882
424.9351
427.64165
429.97419
421.56119
423.75188
426.07109
428.72962
421.56006
423.75025
426.06902
428.72647
421.9971
424.93002
427.62996
429.94788
414.88285
414.99795
413.71397
410.89937
409.43983
408.26598
406.09312
403.38009
425.43323
427.66508
428.8124
428.86561
)
;
        refGradient     uniform 0;
        valueFraction   nonuniform List<scalar> 
40
(
0.00032132529
0.00032132529
0.00032132529
0.00032132529
0.00032132529
0.00032132529
0.00032132529
0.00032132529
0.00032132529
0.00032132529
0.00032132529
0.00032132529
0.00032132529
0.00032132529
0.00032132529
0.00032132529
0.00032132529
0.00032132529
0.00032132529
0.00032132529
0.00032132529
0.00032132529
0.00032132529
0.00032132529
0.00032132529
0.00032132529
0.00032132529
0.00032132529
0.00032132529
0.00032132529
0.00032132529
0.00032132529
0.00032132529
0.00032132529
0.00032132529
0.00032132529
0.00032132529
0.00032132529
0.00032132529
0.00032132529
)
;
        value           nonuniform List<scalar> 
40
(
594.94454
595.98534
598.01323
600.85847
589.51365
590.76574
593.21322
596.68787
577.95117
579.62221
582.97932
587.92042
558.66056
560.78824
565.47888
573.14399
529.73268
531.4077
536.78728
548.14758
529.70736
531.38702
536.771
548.13654
558.59733
560.72688
565.4216
573.0942
577.88872
579.5429
582.89801
587.84631
589.41973
590.65792
593.10148
596.57882
594.81816
595.84594
597.86052
600.69878
)
;
        Tnbr            T;
        thicknessLayers List<scalar> 0();
        kappaLayers     List<scalar> 0();
        kappaMethod     solidThermo;
        kappa           none;
        alphaAni        none;
        alpha           none;
        field           T;
    }
    heater_to_rightSolid
    {
        type            compressible::turbulentTemperatureCoupledBaffleMixed;
        refValue        nonuniform List<scalar> 10(604.36099 600.98499 594.09214 583.63122 571.06918 571.06578 583.59147 594.02574 600.86469 604.21288);
        refGradient     uniform 0;
        valueFraction   nonuniform List<scalar> 10(0.49999997 0.49999997 0.49999997 0.49999997 0.49999997 0.49999997 0.49999997 0.49999997 0.49999997 0.49999997);
        value           nonuniform List<scalar> 10(602.63737 598.86749 591.03472 578.41061 559.62757 559.62035 578.36584 590.96446 598.7528 602.48345);
        Tnbr            T;
        thicknessLayers List<scalar> 0();
        kappaLayers     List<scalar> 0();
        kappaMethod     solidThermo;
        kappa           none;
        alphaAni        none;
        alpha           none;
        field           T;
    }
    heater_to_leftSolid
    {
        type            compressible::turbulentTemperatureCoupledBaffleMixed;
        refValue        nonuniform List<scalar> 10(634.60609 634.485 634.26931 633.98217 633.71806 633.68303 633.94807 634.24211 634.47233 634.60245);
        refGradient     uniform 0;
        valueFraction   nonuniform List<scalar> 10(2.0832898e-05 2.0832898e-05 2.0832898e-05 2.0832898e-05 2.0832898e-05 2.0832898e-05 2.0832898e-05 2.0832898e-05 2.0832898e-05 2.0832898e-05);
        value           nonuniform List<scalar> 10(594.99985 589.57246 578.00475 558.70605 529.76962 529.74429 558.64281 577.94229 589.47852 594.87344);
        Tnbr            T;
        thicknessLayers List<scalar> 1(0.001);
        kappaLayers     List<scalar> 1(0.0005);
        kappaMethod     solidThermo;
        kappa           none;
        alphaAni        none;
        alpha           none;
        field           T;
    }
    heater_to_bottomWater
    {
        type            compressible::turbulentTemperatureCoupledBaffleMixed;
        refValue        nonuniform List<scalar> 
92
(
988.36325
987.42605
991.27907
995.2612
987.61511
987.45628
988.87415
990.36276
989.53022
990.24768
989.93751
990.05191
991.48626
991.89215
993.09241
992.05438
989.74692
990.83803
991.20675
988.95351
989.08891
990.28163
990.13489
988.02244
988.32788
989.44317
989.13613
987.65354
982.89307
982.89307
984.91287
984.91287
983.73949
983.73949
981.37448
981.37448
984.81679
983.95608
986.67595
983.74965
973.54908
977.36859
978.59611
969.49006
967.88519
961.03962
983.51427
990.34487
990.31459
991.42922
984.59924
992.01162
984.539
986.89176
989.12197
991.19386
983.99129
990.03001
969.03773
986.10241
988.85562
989.93967
976.44104
988.87931
972.99215
986.405
988.22039
988.72062
970.25137
987.86165
964.69666
980.99613
983.72223
982.75654
963.02796
980.61988
980.99613
983.72223
982.75654
980.61988
993.13435
989.81852
989.64752
990.78792
989.22968
986.55345
988.39252
991.8319
986.83716
984.66849
987.42114
989.83064
)
;
        refGradient     uniform 0;
        valueFraction   nonuniform List<scalar> 
92
(
0.0075140686
0.0075140686
0.0075140686
0.0075140686
0.0075140686
0.0075140686
0.0075140686
0.0075140686
0.0075140686
0.0075140686
0.0075140686
0.0075140686
0.0075140686
0.0075140686
0.0075140686
0.0075140686
0.0075140686
0.0075140686
0.0075140686
0.0075140686
0.0075140686
0.0075140686
0.0075140686
0.0075140686
0.0075140686
0.0075140686
0.0075140686
0.0075140686
0.0075140686
0.0075140686
0.0075140686
0.0075140686
0.0075140686
0.0075140686
0.0075140686
0.0075140686
0.0075140679
0.0075140679
0.0075140679
0.0075140679
0.0075140679
0.0075140679
0.0075140679
0.0075140679
0.0075140679
0.0075140679
0.0075140679
0.0075140686
0.0075140686
0.0075140686
0.0075140679
0.0075140686
0.0075140679
0.0075140686
0.0075140686
0.0075140686
0.0075140679
0.0075140686
0.0075140679
0.0075140686
0.0075140686
0.0075140686
0.0075140679
0.0075140686
0.0075140679
0.0075140686
0.0075140686
0.0075140686
0.0075140679
0.0075140686
0.0075140679
0.0075140686
0.0075140686
0.0075140686
0.0075140679
0.0075140686
0.0075140686
0.0075140686
0.0075140686
0.0075140686
0.0075140686
0.0075140686
0.0075140686
0.0075140686
0.0075140686
0.0075140686
0.0075140686
0.0075140686
0.0075140686
0.0075140686
0.0075140686
0.0075140686
)
;
        value           nonuniform List<scalar> 
92
(
597.95479
598.98034
601.02223
603.8769
592.56246
593.80472
596.24593
599.70762
581.09582
582.76019
586.09122
590.99852
342.74579
339.7448
339.80177
342.86011
402.27365
398.40879
398.5902
402.68934
449.84266
446.29474
446.75849
450.97586
487.28521
484.42081
485.53582
490.05409
561.89187
515.16204
564.01848
513.69751
568.66569
516.31181
576.25713
522.23114
342.69567
342.79926
402.25057
402.65024
449.72589
450.8958
487.21209
489.91761
515.04927
522.07835
342.67094
342.72227
339.72457
339.78477
342.80523
342.86093
402.20083
402.21851
398.37921
398.5845
402.65394
402.69932
449.64194
449.77016
446.26188
446.7482
450.88493
450.97839
487.11615
487.21694
484.38821
485.52273
489.92165
490.05397
514.98466
515.10713
513.66777
516.29346
522.09292
522.22511
561.81484
563.94862
568.60144
576.20204
581.06091
582.67823
586.00833
590.93049
592.48134
593.69089
596.13138
599.61041
597.81786
598.82123
600.84163
603.67756
)
;
        Tnbr            T;
        thicknessLayers List<scalar> 0();
        kappaLayers     List<scalar> 0();
        kappaMethod     solidThermo;
        kappa           none;
        alphaAni        none;
        alpha           none;
        field           T;
    }
}


// ************************************************************************* //
