/*--------------------------------*- C++ -*----------------------------------*\
| =========                 |                                                 |
| \\      /  F ield         | OpenFOAM: The Open Source CFD Toolbox           |
|  \\    /   O peration     | Version:  v2012                                 |
|   \\  /    A nd           | Website:  www.openfoam.com                      |
|    \\/     M anipulation  |                                                 |
\*---------------------------------------------------------------------------*/
FoamFile
{
    version     2.0;
    format      ascii;
    class       volScalarField;
    location    "47";
    object      p;
}
// * * * * * * * * * * * * * * * * * * * * * * * * * * * * * * * * * * * * * //

dimensions      [0 2 -2 0 0 0 0];


internalField   nonuniform List<scalar> 
64000
(
-1.09973e-21
-5.21693e-21
-3.68128e-21
-5.13431e-21
-9.34266e-21
-3.40395e-21
-5.40066e-21
-5.24834e-21
-6.05966e-21
-6.69491e-21
-4.59552e-21
-7.73347e-21
-5.9491e-21
-8.31403e-21
-5.79823e-21
-6.32263e-21
-2.41287e-21
-2.08451e-21
-2.48822e-21
-2.47825e-21
-2.21852e-21
-3.43544e-21
-4.01663e-21
-4.37518e-21
-3.05435e-21
-1.81209e-21
6.88161e-22
-6.06384e-21
-3.10657e-21
-2.05758e-21
-1.63551e-21
-1.79824e-21
-2.68687e-21
-2.40329e-21
-2.19076e-21
-5.31088e-21
-8.04446e-22
-1.73465e-22
-8.1496e-22
-9.02374e-22
-7.57675e-21
-1.22839e-20
-1.18467e-20
-8.87478e-21
-1.16353e-20
-1.15936e-20
-9.08361e-21
-7.64073e-21
-5.5462e-21
-1.31252e-20
-1.26452e-20
-1.19751e-20
-7.36137e-21
-8.10039e-21
-9.17426e-21
-7.97054e-21
-6.17234e-21
-5.60093e-22
-3.37419e-21
-3.54383e-21
-5.59944e-23
-4.40547e-21
-8.12803e-21
-1.12592e-20
-6.15473e-21
-3.86601e-21
-3.67142e-21
-6.53914e-21
-4.34853e-21
-2.32963e-21
-1.7181e-22
-2.17797e-21
-6.85362e-21
-4.23883e-21
-1.33162e-21
-1.57886e-21
-6.11036e-22
-1.39909e-22
-2.05494e-21
-2.37938e-21
-6.5331e-21
-9.1331e-21
-1.38569e-20
-1.15242e-20
-1.00115e-20
-1.26222e-20
-1.21211e-20
-9.10748e-21
-9.28716e-21
-1.20383e-20
-1.0727e-20
-1.17559e-20
-9.42653e-21
-8.33304e-21
-6.73432e-21
-3.74903e-21
-1.11822e-20
-5.98886e-21
-2.59733e-21
-5.45657e-22
-3.34977e-21
-9.36893e-21
-9.92282e-21
-8.63897e-21
-5.19716e-21
-5.49122e-21
-4.64331e-21
-6.28523e-21
-3.58228e-21
-3.43021e-21
-1.65071e-21
-2.09822e-21
-4.89291e-21
-3.24914e-21
-2.26277e-21
-1.55877e-21
-6.66714e-22
1.05091e-21
-5.01691e-22
-1.68206e-22
-9.16597e-21
-1.00721e-20
-1.17347e-20
-1.50818e-20
-1.30197e-20
-1.66348e-20
-1.5583e-20
-6.77053e-21
-9.85843e-21
-1.27394e-20
-1.08249e-20
-1.21273e-20
-1.08341e-20
-8.7959e-21
-7.89369e-21
-7.34315e-21
-6.77268e-21
-8.38154e-21
-1.97927e-21
-3.41886e-22
-5.1969e-21
-8.09296e-21
-1.27828e-20
-9.80357e-21
-9.99374e-21
-2.05457e-21
-5.08318e-21
-4.58365e-21
-5.09229e-21
-5.46864e-21
-2.45454e-21
-2.65917e-21
-4.20954e-21
-3.20362e-21
-2.39224e-21
-1.85596e-21
-2.25877e-21
5.69982e-22
-1.67331e-21
-1.71003e-22
-1.63842e-20
-1.1497e-20
-1.0994e-20
-1.39827e-20
-1.36136e-20
-1.68102e-20
-1.4035e-20
-9.61945e-21
-8.20121e-21
-1.47905e-20
-1.47013e-20
-7.78251e-21
-9.2671e-21
-7.81291e-21
-1.09465e-20
-1.37304e-20
-7.11691e-21
-5.27345e-21
-5.03745e-21
-1.42893e-21
-4.91809e-21
-8.7704e-21
-1.15546e-20
-1.08091e-20
-7.01973e-21
-3.52027e-21
-4.56319e-21
-6.65667e-21
-7.27902e-21
-3.20933e-21
-2.28866e-21
-4.77555e-22
-2.01173e-21
-2.40545e-21
-4.92903e-21
-4.09188e-21
-1.44685e-21
-1.11813e-21
2.97987e-22
-8.30117e-22
-1.3242e-20
-1.12921e-20
-9.95547e-21
-1.44893e-20
-1.42766e-20
-1.40884e-20
-1.13298e-20
-1.43351e-20
-1.26353e-20
-1.35083e-20
-1.23717e-20
-9.23906e-21
-1.13422e-20
-8.09386e-21
-9.60239e-21
-1.20184e-20
-5.83911e-21
-4.5837e-21
-3.80125e-21
-4.82482e-21
-5.36488e-21
-9.56877e-21
-1.15349e-20
-1.06809e-20
-9.37408e-21
-2.52119e-21
-4.34669e-21
-3.9202e-21
-6.83014e-21
-4.54358e-21
-4.80506e-21
-3.85586e-21
-2.27095e-21
-1.26014e-21
-3.9841e-21
-1.41476e-21
-2.20584e-21
-1.58349e-21
-4.5299e-22
6.29676e-22
-1.48592e-20
-1.51428e-20
-9.84493e-21
-1.27784e-20
-1.4157e-20
-1.44526e-20
-1.13422e-20
-1.32201e-20
-1.45789e-20
-1.24763e-20
-1.26953e-20
-1.22155e-20
-1.17271e-20
-9.73828e-21
-8.07908e-21
-1.0271e-20
-6.70006e-21
-1.93239e-21
-3.63687e-21
-5.65981e-21
-7.44598e-21
-1.22147e-20
-1.25907e-20
-1.19734e-20
-5.6872e-21
-6.32835e-21
-5.37241e-21
-2.32967e-21
-4.8827e-21
-3.44284e-21
-6.517e-21
-6.62188e-21
1.1326e-21
-1.25792e-21
-3.39e-21
-2.96159e-21
-2.70331e-21
-2.7391e-21
-2.43159e-21
-1.53706e-21
-1.42436e-20
-1.44153e-20
-1.2169e-20
-1.11836e-20
-1.41436e-20
-1.23486e-20
-1.26487e-20
-1.88792e-20
-1.63796e-20
-1.31843e-20
-1.08068e-20
-1.04984e-20
-1.08391e-20
-1.10709e-20
-7.9229e-21
-1.01785e-20
-6.6017e-21
-3.33947e-21
-5.96228e-21
-4.08269e-21
-6.8466e-21
-1.0506e-20
-1.07773e-20
-1.07414e-20
-7.05454e-21
-7.52144e-21
-4.8826e-21
-5.41332e-21
-4.64948e-21
-3.92088e-21
-4.83202e-21
-5.14852e-21
-1.27333e-21
-3.2629e-21
-5.08517e-21
-2.79076e-21
-1.55354e-21
-3.8715e-21
-1.62202e-21
-1.90176e-21
-1.95e-20
-1.66458e-20
-1.19057e-20
-1.31788e-20
-1.45476e-20
-1.59016e-20
-1.40154e-20
-1.35649e-20
-1.43695e-20
-1.70962e-20
-8.3159e-21
-9.16317e-21
-1.39145e-20
-9.80042e-21
-9.51678e-21
-1.00543e-20
-5.79338e-21
-1.02205e-21
-6.86284e-21
-9.56837e-21
-4.24393e-21
-8.72234e-21
-1.39567e-20
-9.53637e-21
-3.65943e-21
-6.76679e-21
-9.55962e-21
-7.97692e-21
-5.47102e-21
-5.36036e-21
-4.971e-21
-3.5e-21
-8.03728e-22
-3.44878e-21
-6.56518e-21
-2.17804e-21
-8.04424e-22
-2.57177e-21
-1.73674e-21
-1.54868e-21
-1.25522e-20
-1.31854e-20
-1.29674e-20
-1.26701e-20
-1.64788e-20
-1.75845e-20
-1.27759e-20
-1.35039e-20
-1.34239e-20
-1.62477e-20
-1.25075e-20
-8.48887e-21
-1.12663e-20
-8.604e-21
-1.13258e-20
-9.41285e-21
-6.85898e-21
-5.25609e-21
-3.48438e-21
-6.08973e-21
-7.956e-21
-1.01392e-20
-1.23586e-20
-1.03878e-20
-8.10046e-21
-6.98316e-21
-6.16725e-21
-6.13236e-21
-7.23131e-21
-6.11809e-21
-2.99915e-21
-3.34844e-21
-3.26867e-21
-3.44132e-21
-7.48179e-21
-5.33089e-21
-2.49986e-21
-1.44609e-22
-7.53884e-22
-2.08827e-22
-1.05873e-20
-1.42641e-20
-1.52679e-20
-1.71288e-20
-1.41808e-20
-1.57983e-20
-1.79476e-20
-1.19337e-20
-1.38626e-20
-1.55491e-20
-1.1597e-20
-8.37376e-21
-1.08446e-20
-1.00511e-20
-1.18972e-20
-1.2295e-20
-5.87687e-21
-2.47608e-21
-6.31977e-22
-7.40987e-21
-1.11729e-20
-1.46771e-20
-1.15519e-20
-1.03664e-20
-1.00358e-20
-7.13115e-21
-2.79542e-21
-4.69589e-21
-6.56451e-21
-9.62334e-21
-4.06494e-21
-3.08009e-21
-4.55737e-21
-3.01678e-21
-2.14218e-21
-7.02498e-21
-2.93206e-21
-9.71714e-22
-1.04254e-21
-9.24996e-22
-1.12629e-20
-1.59253e-20
-1.5711e-20
-1.51473e-20
-1.57175e-20
-1.82595e-20
-1.32954e-20
-1.60271e-20
-1.13535e-20
-1.50625e-20
-1.70206e-20
-9.01404e-21
-7.56021e-21
-1.16139e-20
-9.95409e-21
-1.1443e-20
-8.3325e-21
-4.13385e-21
-4.15636e-21
-4.23561e-21
-9.55773e-21
-1.43161e-20
-1.22817e-20
-1.19066e-20
-1.24319e-20
-5.28679e-21
-5.16349e-21
-5.73165e-21
-6.96361e-21
-5.26035e-21
-2.86059e-21
-4.34149e-21
-4.5282e-21
-4.63362e-21
-3.7144e-21
-3.5454e-21
-7.81968e-22
-7.92494e-22
-1.89385e-21
-3.00089e-21
-1.57417e-20
-1.51551e-20
-1.55674e-20
-1.56545e-20
-1.79724e-20
-1.7465e-20
-1.80504e-20
-1.89734e-20
-1.24159e-20
-1.36243e-20
-1.49903e-20
-1.07854e-20
-9.47987e-21
-1.24839e-20
-1.02948e-20
-1.21394e-20
-7.77468e-21
-3.37677e-21
-3.50858e-21
-8.84054e-21
-8.51733e-21
-1.19698e-20
-1.17629e-20
-1.2966e-20
-7.64669e-21
-5.41557e-21
-5.55865e-21
-6.05282e-21
-6.73066e-21
-4.27696e-21
-6.20859e-21
-5.7817e-21
-1.38639e-21
-6.84822e-21
-7.41477e-21
-2.34823e-21
-4.15318e-22
-1.59336e-21
-4.85619e-22
-1.72096e-21
-1.87579e-20
-1.87699e-20
-1.56399e-20
-1.80921e-20
-1.49185e-20
-1.50304e-20
-1.66393e-20
-1.69146e-20
-1.42704e-20
-1.74485e-20
-1.3656e-20
-1.21844e-20
-1.26748e-20
-1.2361e-20
-1.17863e-20
-1.1446e-20
-8.58501e-21
-1.72726e-21
-2.17469e-21
-8.59638e-21
-9.51312e-21
-1.25736e-20
-1.18677e-20
-1.2326e-20
-8.90596e-21
-4.19009e-21
-1.44647e-21
-5.82436e-21
-6.78483e-21
-2.94567e-21
-4.10954e-21
-8.63344e-21
-3.82603e-21
-4.50183e-21
-7.35592e-21
-4.5588e-21
-1.03748e-21
1.98374e-22
5.21273e-22
-2.35337e-21
-1.30051e-20
-2.0219e-20
-1.98319e-20
-1.68774e-20
-1.45246e-20
-1.60009e-20
-1.86207e-20
-2.06704e-20
-1.58439e-20
-1.33026e-20
-1.09747e-20
-1.50703e-20
-1.3928e-20
-1.08994e-20
-9.33352e-21
-1.03336e-20
-1.03396e-20
-6.271e-21
-5.51115e-21
-6.51737e-21
-1.10996e-20
-9.40601e-21
-1.06953e-20
-1.28357e-20
-7.86864e-21
-4.96123e-21
-5.4004e-21
-6.57393e-21
-4.73734e-21
-3.16545e-21
-2.16663e-21
-4.96318e-21
-4.04003e-21
-3.65603e-21
-6.85072e-21
-2.92346e-21
-1.47605e-22
-2.19939e-21
-1.28834e-21
2.60507e-22
-1.44773e-20
-1.58993e-20
-2.09061e-20
-1.6685e-20
-1.57206e-20
-1.62484e-20
-1.67076e-20
-1.81581e-20
-1.57314e-20
-1.22593e-20
-1.51129e-20
-1.43487e-20
-1.41413e-20
-1.10455e-20
-1.23241e-20
-1.21372e-20
-8.88399e-21
-6.11178e-21
-3.19084e-21
-7.40482e-21
-1.1457e-20
-1.2261e-20
-1.14156e-20
-7.61647e-21
-5.21238e-21
-6.95919e-21
-7.37757e-21
-4.64322e-21
-3.97228e-21
-2.83632e-21
-2.76883e-21
-3.59553e-21
-4.73661e-21
-4.42805e-21
-8.46878e-21
-5.6782e-21
1.3417e-21
4.76076e-22
-1.51821e-21
4.86549e-23
-1.51983e-20
-1.48064e-20
-1.80985e-20
-1.40302e-20
-1.46191e-20
-1.73873e-20
-1.8929e-20
-1.9623e-20
-1.64357e-20
-1.46506e-20
-1.18434e-20
-1.60945e-20
-8.72419e-21
-1.07744e-20
-1.30039e-20
-1.25194e-20
-1.07789e-20
-7.05251e-21
-7.44701e-21
-5.60063e-21
-1.26591e-20
-1.15338e-20
-1.08926e-20
-5.94548e-21
-6.68371e-21
-2.21518e-21
-6.62118e-21
-9.55643e-21
-1.40687e-21
-3.95184e-21
-3.4481e-21
-4.41638e-21
-4.82051e-21
-2.83424e-21
-4.12528e-21
-4.44875e-21
-2.15851e-21
-1.77804e-21
-1.95952e-22
-1.07768e-21
-1.10862e-20
-1.57286e-20
-1.98501e-20
-1.42194e-20
-1.3412e-20
-1.98092e-20
-1.61785e-20
-1.65226e-20
-1.7527e-20
-1.66915e-20
-1.43021e-20
-1.2875e-20
-1.03228e-20
-1.01827e-20
-1.66069e-20
-1.36034e-20
-9.96717e-21
-2.89207e-21
-6.37501e-21
-9.35885e-21
-1.51276e-20
-1.00411e-20
-6.77599e-21
-6.58823e-21
-6.74817e-21
-6.37324e-21
-7.80423e-21
-7.03187e-21
-4.47008e-21
-4.74445e-21
-4.04643e-21
-1.67875e-21
-2.94859e-21
-2.69971e-21
-9.6369e-22
-3.57884e-21
-2.8192e-21
-3.71779e-21
1.13255e-21
-1.41346e-22
-8.88416e-21
-1.22075e-20
-1.62698e-20
-1.61639e-20
-1.73476e-20
-1.76634e-20
-1.5677e-20
-1.45762e-20
-1.6671e-20
-1.68707e-20
-1.33435e-20
-1.37994e-20
-1.11502e-20
-8.4805e-21
-1.49382e-20
-1.55941e-20
-1.03324e-20
-8.24528e-21
-1.1403e-20
-1.09278e-20
-1.14891e-20
-3.93578e-21
-6.24062e-21
-7.04006e-21
-5.12912e-21
-6.33485e-21
-8.97088e-21
-5.85945e-21
-4.14176e-21
-5.1832e-21
-6.40461e-21
-2.09932e-21
-2.33174e-21
-2.78674e-21
-8.61991e-22
-3.07073e-21
-1.0032e-21
-2.30682e-21
-2.93214e-21
-3.20405e-21
-6.30508e-21
-1.28757e-20
-1.8103e-20
-1.66755e-20
-1.63377e-20
-1.40684e-20
-1.28555e-20
-1.62093e-20
-2.0137e-20
-1.58619e-20
-1.34087e-20
-1.32342e-20
-1.13666e-20
-1.17256e-20
-1.41361e-20
-1.32046e-20
-9.02871e-21
-7.98565e-21
-1.47277e-20
-9.77807e-21
-1.0033e-20
-7.90884e-21
-6.01565e-21
-7.31045e-21
-3.65664e-21
-3.44432e-21
-1.20563e-20
-9.70427e-21
-8.38849e-21
-9.5428e-22
-2.21595e-21
-2.37382e-21
-3.55435e-21
-2.18958e-21
-2.94891e-21
-3.48906e-21
-2.79616e-21
-1.87694e-21
-3.35037e-21
-2.84637e-21
-1.00218e-20
-1.19544e-20
-1.5797e-20
-1.41247e-20
-1.48929e-20
-1.42277e-20
-1.58383e-20
-1.62816e-20
-1.72795e-20
-1.64017e-20
-1.7108e-20
-1.49292e-20
-9.99586e-21
-1.37821e-20
-1.51797e-20
-8.74435e-21
-9.20909e-21
-6.82791e-21
-1.24565e-20
-9.81139e-21
-9.36737e-21
-5.10912e-21
-6.29666e-21
-9.90027e-21
-8.31191e-21
-3.99472e-21
-8.31472e-21
-7.44073e-21
-6.4097e-21
-2.60578e-21
-4.00646e-21
-2.52628e-21
-5.09878e-21
-1.79818e-21
-2.93081e-21
-5.24066e-21
-1.14461e-21
-2.30331e-21
-2.60727e-21
-2.96198e-21
-1.54972e-20
-1.51278e-20
-1.43605e-20
-1.32312e-20
-1.72569e-20
-1.31821e-20
-1.51854e-20
-1.58632e-20
-1.52899e-20
-1.56095e-20
-1.64384e-20
-1.67828e-20
-1.33039e-20
-1.72479e-20
-1.22797e-20
-9.6832e-21
-8.0015e-21
-8.20809e-21
-1.13576e-20
-9.48878e-21
-9.65109e-21
-2.03657e-21
-7.42344e-21
-9.6102e-21
-8.17582e-21
-5.9058e-21
-7.05037e-21
-9.75793e-21
-5.32198e-21
-1.62913e-21
-3.67288e-21
-2.64442e-21
-2.24912e-21
-3.38312e-21
-6.02411e-21
-6.51881e-21
-1.5517e-21
-1.76378e-21
-1.22896e-21
-2.26135e-22
-1.76854e-20
-1.82715e-20
-1.425e-20
-1.45554e-20
-1.57891e-20
-1.76731e-20
-1.48399e-20
-1.28762e-20
-1.76402e-20
-1.23751e-20
-1.53554e-20
-1.77445e-20
-1.43153e-20
-1.24635e-20
-1.17686e-20
-8.45564e-21
-5.72622e-21
-5.20158e-21
-7.87637e-21
-1.13249e-20
-1.1929e-20
-5.86923e-21
-8.65558e-21
-9.81763e-21
-9.18433e-21
-9.79219e-21
-7.03334e-21
-6.98024e-21
-3.70846e-21
-1.77814e-21
-3.33824e-21
-5.10723e-21
-1.49655e-21
-1.10925e-21
-9.76413e-21
-5.71013e-21
-2.17298e-21
-5.3575e-22
-1.92095e-21
-1.67991e-21
-1.4168e-20
-1.51169e-20
-1.77086e-20
-1.43191e-20
-1.52154e-20
-1.66532e-20
-1.57283e-20
-1.75311e-20
-1.33934e-20
-1.45385e-20
-1.66503e-20
-1.69208e-20
-9.3691e-21
-1.48183e-20
-1.58447e-20
-8.85982e-21
-4.41607e-21
-4.64251e-21
-8.61842e-21
-7.84507e-21
-8.39558e-21
-9.97894e-21
-1.08693e-20
-9.11534e-21
-1.13194e-20
-5.20297e-21
-6.7639e-21
-8.40961e-21
-2.05187e-21
-3.55839e-21
-6.1144e-21
-7.05517e-21
-3.47385e-22
-5.10968e-21
-9.00501e-21
-5.88194e-21
-3.46158e-21
6.16907e-22
-2.05961e-21
-3.39689e-21
-9.021e-21
-1.45793e-20
-1.64843e-20
-1.60996e-20
-1.36861e-20
-1.70402e-20
-1.59111e-20
-1.57268e-20
-1.22009e-20
-1.65818e-20
-1.89973e-20
-1.48605e-20
-8.6713e-21
-1.10159e-20
-1.24856e-20
-7.60957e-21
-6.94596e-21
-1.03145e-20
-7.94036e-21
-7.91865e-21
-8.31289e-21
-1.05722e-20
-8.36169e-21
-8.85624e-21
-1.15694e-20
-7.83525e-21
-4.32346e-21
-5.1584e-21
-4.99229e-21
-4.5326e-21
-5.19206e-21
-6.51745e-21
-1.09163e-21
-4.13383e-21
-9.46021e-21
-6.98814e-21
-2.44107e-21
-1.24855e-21
-1.24451e-21
-1.71232e-21
-1.27267e-20
-1.6138e-20
-1.88262e-20
-1.33335e-20
-1.26525e-20
-1.57972e-20
-1.59709e-20
-1.86595e-20
-1.18332e-20
-1.5211e-20
-2.02924e-20
-1.57834e-20
-1.09658e-20
-1.17303e-20
-7.72282e-21
-7.80232e-21
-8.92319e-21
-6.52725e-21
-4.81209e-21
-8.73353e-21
-8.75738e-21
-1.27426e-20
-1.11135e-20
-1.23764e-20
-9.38385e-21
-8.72722e-21
-5.45931e-21
-7.24885e-21
-5.28762e-21
-2.56976e-21
-3.62014e-21
-4.87864e-21
-1.17985e-21
-2.50073e-21
-6.31826e-21
-9.48958e-21
-4.03158e-21
-2.49332e-21
-8.98698e-22
-1.06235e-22
-1.19422e-20
-1.4313e-20
-1.61176e-20
-1.76886e-20
-1.57554e-20
-1.86815e-20
-1.55829e-20
-1.16043e-20
-1.33815e-20
-1.47302e-20
-1.82515e-20
-1.4798e-20
-9.15354e-21
-1.13934e-20
-1.07016e-20
-1.19151e-20
-8.35459e-21
-6.85798e-21
-2.72856e-21
-5.77247e-21
-7.07693e-21
-1.36335e-20
-1.06562e-20
-9.0703e-21
-9.27748e-21
-1.01364e-20
-5.7125e-21
-2.92469e-21
-7.45513e-21
-3.93092e-21
-1.8703e-21
-7.4715e-21
-5.00925e-21
-3.22622e-21
-5.85127e-21
-4.27686e-21
-4.57821e-21
-3.0129e-21
-1.19106e-21
-1.83156e-21
-1.02396e-20
-1.44069e-20
-1.57847e-20
-1.67809e-20
-1.49404e-20
-1.63023e-20
-1.48975e-20
-1.32239e-20
-1.35934e-20
-1.47263e-20
-1.79605e-20
-1.00456e-20
-1.05343e-20
-1.23856e-20
-1.05435e-20
-7.91691e-21
-1.0114e-20
-7.63539e-21
-6.99354e-21
-7.29002e-21
-8.2499e-21
-7.05317e-21
-1.00351e-20
-1.05092e-20
-7.71825e-21
-7.32738e-21
-7.44736e-21
-4.8559e-21
-5.70236e-21
-3.43779e-21
-4.32153e-21
-5.327e-21
-6.95588e-21
-7.82821e-21
-5.9374e-21
-4.41204e-21
-3.87155e-21
-3.67524e-21
-9.86321e-22
-1.57042e-21
-1.32354e-20
-1.89772e-20
-1.5737e-20
-1.23279e-20
-1.83401e-20
-1.74443e-20
-1.51621e-20
-1.23005e-20
-1.30933e-20
-1.4267e-20
-1.45456e-20
-1.11695e-20
-1.29381e-20
-1.02502e-20
-1.41665e-20
-7.35681e-21
-9.08153e-21
-5.17779e-21
-7.36668e-21
-5.63991e-21
-1.00568e-20
-8.57177e-21
-7.81048e-21
-9.34998e-21
-1.09491e-20
-4.93071e-21
-6.1448e-21
-6.97182e-21
-3.57201e-21
-5.68616e-21
-4.47479e-21
-5.27569e-21
-7.76785e-21
-5.33298e-21
-8.58394e-21
-4.0344e-21
-3.13366e-21
-5.39893e-21
-1.35603e-21
2.16939e-22
-1.18912e-20
-1.61901e-20
-1.86763e-20
-1.34386e-20
-1.41677e-20
-1.90546e-20
-1.6048e-20
-1.13651e-20
-1.26082e-20
-1.56413e-20
-1.28416e-20
-1.24065e-20
-1.41904e-20
-1.08366e-20
-1.16574e-20
-9.95922e-21
-6.16776e-21
-1.05016e-20
-5.9262e-21
-3.96962e-21
-1.0563e-20
-1.0332e-20
-9.83977e-21
-1.00755e-20
-1.11812e-20
-7.03636e-21
-6.08397e-21
-1.51684e-21
-4.17088e-21
-4.78422e-21
-4.87796e-21
-6.95067e-21
-3.78375e-21
-5.06945e-21
-6.93098e-21
-6.06848e-21
-3.76161e-21
-2.79673e-21
-1.57992e-21
-6.04307e-22
-1.33554e-20
-1.35109e-20
-1.44566e-20
-1.46251e-20
-1.54493e-20
-1.53164e-20
-1.56496e-20
-1.34596e-20
-1.3001e-20
-1.3862e-20
-1.29575e-20
-1.06548e-20
-1.29574e-20
-1.33574e-20
-1.16682e-20
-1.07631e-20
-6.38494e-21
-7.63976e-21
-5.99734e-21
-7.45855e-21
-8.93192e-21
-8.54791e-21
-1.08699e-20
-1.3086e-20
-1.02517e-20
-6.66193e-21
-4.00776e-21
-4.76041e-21
-6.62419e-21
-3.7377e-21
-4.37011e-21
-4.4807e-21
-2.75573e-21
-4.18971e-21
-5.33641e-21
-6.69204e-21
-2.37303e-21
-2.73975e-21
-2.59471e-21
-1.77151e-21
-1.71315e-20
-1.41398e-20
-1.20748e-20
-1.4134e-20
-1.72242e-20
-1.71871e-20
-1.46551e-20
-1.3623e-20
-1.49121e-20
-1.29184e-20
-9.84945e-21
-1.19585e-20
-1.44099e-20
-1.18871e-20
-9.95344e-21
-1.04133e-20
-6.673e-21
-5.7561e-21
-4.48502e-21
-7.63538e-21
-7.69194e-21
-1.05435e-20
-1.60535e-20
-1.07045e-20
-8.84636e-21
-9.0021e-21
-4.34796e-21
-2.83716e-21
-3.22632e-21
-6.55024e-21
-5.11531e-21
-6.68724e-21
-1.60767e-22
-3.09508e-21
-6.67125e-21
-2.63285e-21
-1.51898e-21
-1.70199e-21
-3.09305e-21
-3.14145e-21
-1.09297e-20
-1.08844e-20
-1.33259e-20
-1.25252e-20
-1.88613e-20
-1.55693e-20
-1.40115e-20
-1.48807e-20
-1.41932e-20
-1.3428e-20
-1.28691e-20
-1.07855e-20
-1.14451e-20
-9.65518e-21
-7.5378e-21
-1.1507e-20
-8.21879e-21
-6.54894e-21
-5.54706e-21
-3.25138e-21
-8.64924e-21
-1.33888e-20
-1.21909e-20
-1.07267e-20
-1.12249e-20
-9.58607e-21
-9.63496e-22
-2.32263e-21
-5.94638e-21
-5.38029e-21
-4.90674e-21
-6.74049e-21
-1.09971e-21
7.13801e-24
-4.07201e-21
-2.38874e-21
-1.5251e-21
-4.76642e-21
-2.21623e-21
-1.08312e-21
-1.2601e-20
-1.31524e-20
-1.39434e-20
-1.56457e-20
-1.58748e-20
-1.13671e-20
-1.3356e-20
-1.23533e-20
-1.41532e-20
-1.16159e-20
-1.25859e-20
-1.45395e-20
-1.09667e-20
-7.61281e-21
-8.01495e-21
-1.1177e-20
-9.87712e-21
-5.9283e-21
-6.12264e-21
-6.28609e-21
-6.1454e-21
-8.5716e-21
-1.25785e-20
-1.1354e-20
-8.19988e-21
-7.9467e-21
-4.88962e-21
-3.92617e-21
-3.76912e-21
-6.20086e-21
-4.93659e-21
-4.70283e-21
-9.12881e-22
-1.50122e-22
-7.64603e-22
-2.93893e-21
-9.15576e-22
1.25067e-21
-4.9151e-21
-3.00745e-21
-1.38719e-20
-1.1529e-20
-1.16343e-20
-1.18781e-20
-1.50761e-20
-1.60189e-20
-1.38179e-20
-1.48126e-20
-1.37223e-20
-1.11932e-20
-7.11616e-21
-1.23643e-20
-6.41032e-21
-6.47955e-21
-9.4501e-21
-1.14703e-20
-1.23929e-20
-5.82445e-21
-6.20171e-21
-8.23287e-21
-4.36579e-21
-8.61647e-21
-1.06131e-20
-9.3355e-21
-1.01496e-20
-6.91158e-21
-6.22699e-21
-9.5802e-21
-3.52363e-21
-4.63054e-21
-5.68366e-21
-4.23745e-21
-2.69339e-21
-2.03838e-21
-2.93941e-22
-4.79947e-22
-1.92594e-21
1.04267e-22
4.93752e-22
-9.1646e-22
-9.24322e-21
-1.1699e-20
-1.38802e-20
-1.15037e-20
-1.25682e-20
-1.44906e-20
-1.14745e-20
-1.24345e-20
-1.2629e-20
-1.22184e-20
-1.11974e-20
-7.0469e-21
-8.29988e-21
-8.194e-21
-9.10336e-21
-8.9027e-21
-8.02256e-21
-5.79965e-21
-6.51486e-21
-7.4564e-21
-3.87076e-21
-7.97452e-21
-1.07092e-20
-1.17451e-20
-9.31453e-21
-6.81784e-21
-4.10843e-21
-5.22168e-21
-6.01988e-21
-2.96538e-21
-5.20162e-21
-4.533e-21
-2.97955e-21
-3.0563e-21
-3.63162e-21
-1.21448e-21
7.94123e-22
6.96868e-22
8.43643e-22
-1.75537e-21
-7.92717e-21
-1.05439e-20
-1.27915e-20
-1.40292e-20
-1.04177e-20
-1.21666e-20
-1.25086e-20
-1.05793e-20
-8.76014e-21
-1.13517e-20
-1.04485e-20
-7.85929e-21
-1.00079e-20
-7.30397e-21
-8.56398e-21
-8.6644e-21
-6.8628e-21
-1.39916e-21
-3.33715e-21
-9.95429e-21
-3.65463e-21
-1.02972e-20
-1.19645e-20
-1.0514e-20
-8.34669e-21
-8.50123e-21
-7.38074e-21
-3.66727e-21
-4.42198e-21
-1.28946e-21
-4.89628e-21
-4.29102e-21
-5.35803e-21
-2.63471e-21
-1.8073e-21
-1.81517e-21
1.10956e-21
-4.80789e-22
-1.10552e-21
-1.50421e-21
-5.71182e-21
-1.01945e-20
-1.28985e-20
-8.82626e-21
-8.86928e-21
-1.21378e-20
-1.03685e-20
-1.03509e-20
-9.52468e-21
-1.08029e-20
-6.99131e-21
-9.70451e-21
-8.83584e-21
-9.13005e-21
-7.3593e-21
-4.21589e-21
-4.06018e-21
-4.68773e-21
-3.78149e-21
-1.00107e-20
-6.83586e-21
-8.99271e-21
-1.24337e-20
-1.32259e-20
-4.89141e-21
-5.35369e-21
-6.75294e-21
-6.52269e-21
-3.4166e-21
-2.6058e-21
-4.75813e-21
-4.8354e-21
-6.42936e-21
-2.51595e-21
-2.0355e-21
-3.12713e-21
1.97521e-21
3.78231e-21
-8.40529e-22
-2.23159e-21
-7.02479e-21
-9.55039e-21
-1.10197e-20
-7.42085e-21
-6.17298e-21
-1.41246e-20
-1.0062e-20
-7.96618e-21
-9.63892e-21
-8.86552e-21
-7.01774e-21
-9.27135e-21
-7.52141e-21
-7.78682e-21
-8.24714e-21
-8.50408e-21
-1.42677e-21
-1.25211e-21
-5.33756e-21
-5.94892e-21
-3.23982e-21
-7.64998e-21
-1.12548e-20
-1.15623e-20
-7.71872e-21
-5.3905e-21
-5.75429e-21
-3.47982e-21
-4.03583e-21
-4.50227e-21
-3.30653e-21
-3.7891e-21
-4.12841e-21
-1.68824e-21
-1.95346e-21
-3.28914e-21
7.96431e-23
2.48916e-21
-7.69673e-22
-5.01821e-22
-6.83985e-21
-5.63934e-21
-6.96395e-21
-3.69612e-21
-4.60783e-21
-3.04416e-21
-8.45229e-21
-5.20512e-21
-6.74693e-21
-6.16684e-21
-2.72457e-21
-3.0685e-21
-6.14844e-21
-5.62327e-21
-2.63399e-21
-4.94638e-21
-1.30384e-21
8.34816e-22
-5.73383e-21
-1.35357e-21
-4.12074e-21
-9.79611e-21
-7.51826e-21
-5.3168e-21
-2.68559e-21
-3.71868e-21
-3.94947e-21
-2.91546e-21
-2.27517e-21
-2.0723e-22
-1.36621e-21
-1.83996e-21
-3.93068e-21
-2.1985e-21
5.62286e-22
-2.32912e-21
-8.48524e-22
-8.26508e-22
-3.09402e-21
-2.18644e-22
-6.17793e-21
-1.12236e-20
-1.47957e-20
-1.01895e-20
-9.14622e-21
-1.16021e-20
-8.96882e-21
-5.68043e-21
-1.27161e-20
-1.11649e-20
-7.00744e-21
-1.1198e-20
-1.19805e-20
-7.25341e-21
-8.71822e-21
-1.07485e-20
-7.27105e-21
-1.45191e-21
-3.09919e-21
-5.95333e-21
-4.42973e-21
-6.0506e-21
-6.81138e-21
-5.40818e-21
-2.72572e-21
-1.80083e-21
-2.09482e-21
-5.38027e-21
-5.83168e-21
-4.01139e-21
-3.29891e-21
-2.62226e-21
-4.67863e-21
-5.2014e-21
-5.62109e-21
-3.1626e-21
-6.39996e-22
-2.57443e-21
-8.06086e-22
-4.14729e-22
-1.16595e-20
-1.5112e-20
-1.86694e-20
-1.43852e-20
-1.36861e-20
-1.7214e-20
-1.52774e-20
-1.14544e-20
-1.13558e-20
-1.81381e-20
-1.62729e-20
-1.42458e-20
-1.37435e-20
-1.12949e-20
-1.25357e-20
-1.12144e-20
-9.15162e-21
-7.9337e-21
-9.1865e-21
-6.68455e-21
-6.47071e-21
-8.54879e-21
-9.29536e-21
-1.07943e-20
-5.13663e-21
-4.71172e-21
-6.29209e-21
-6.41082e-21
-8.60377e-21
-5.68986e-21
-3.90671e-21
-2.86364e-21
-5.5931e-21
-6.49008e-21
-6.76926e-21
-2.06246e-21
3.8103e-22
1.61697e-21
5.6697e-22
5.69186e-22
-1.27967e-20
-1.51349e-20
-1.45394e-20
-1.58736e-20
-1.65325e-20
-2.04785e-20
-1.65037e-20
-1.56599e-20
-1.55442e-20
-1.55286e-20
-1.46942e-20
-1.36543e-20
-1.27517e-20
-1.24923e-20
-1.23724e-20
-9.85327e-21
-1.03209e-20
-8.71423e-21
-7.79128e-21
-6.90641e-21
-8.05409e-21
-7.44482e-21
-7.60352e-21
-9.26679e-21
-8.52211e-21
-5.71362e-21
-7.49134e-21
-1.05297e-20
-3.96883e-21
-7.09482e-21
-8.3869e-21
-3.78725e-21
-3.64318e-21
-5.65647e-21
-4.31928e-21
-2.27241e-21
-7.70296e-23
-2.91079e-22
3.84836e-22
3.08704e-22
-1.72212e-20
-1.69137e-20
-1.81455e-20
-1.73735e-20
-1.71517e-20
-1.86628e-20
-1.83217e-20
-1.29789e-20
-1.55667e-20
-1.63436e-20
-1.59611e-20
-1.69527e-20
-1.11985e-20
-1.25994e-20
-1.3909e-20
-1.15371e-20
-9.93522e-21
-1.00243e-20
-9.91083e-21
-4.31364e-21
-8.78314e-21
-1.1557e-20
-1.08309e-20
-9.73982e-21
-7.83623e-21
-6.89719e-21
-7.94096e-21
-6.62683e-21
-5.87117e-21
-8.42973e-21
-7.65657e-21
-1.99834e-21
-7.01918e-21
-5.06198e-21
-4.13605e-21
-2.20975e-21
-3.8129e-22
-8.87761e-22
-5.50847e-22
-2.81645e-22
-1.78652e-20
-1.69719e-20
-1.59303e-20
-1.85374e-20
-2.06546e-20
-2.03007e-20
-1.76955e-20
-1.4079e-20
-1.43846e-20
-1.7169e-20
-1.60477e-20
-1.30064e-20
-1.14053e-20
-1.38768e-20
-1.74651e-20
-1.36434e-20
-1.00081e-20
-1.05324e-20
-8.44611e-21
-6.142e-21
-9.92562e-21
-1.12789e-20
-1.24267e-20
-1.0463e-20
-9.64107e-21
-5.4811e-21
-7.3369e-21
-7.5733e-21
-7.47815e-21
-6.64526e-21
-6.28651e-21
-5.72393e-21
-4.02225e-21
-3.2502e-21
-3.98749e-21
-2.97514e-21
-4.30333e-22
-9.7217e-22
-9.74786e-23
-1.10131e-21
-1.60117e-20
-1.73984e-20
-1.72171e-20
-1.88645e-20
-2.0762e-20
-2.16597e-20
-1.72717e-20
-1.94266e-20
-1.72663e-20
-1.63379e-20
-1.53587e-20
-1.55081e-20
-1.39423e-20
-1.25696e-20
-1.55375e-20
-1.33799e-20
-1.19736e-20
-8.42542e-21
-8.58117e-21
-7.40164e-21
-1.0543e-20
-1.32444e-20
-1.18581e-20
-1.12741e-20
-8.16186e-21
-6.35148e-21
-6.99627e-21
-7.53127e-21
-8.64443e-21
-7.58267e-21
-6.7791e-21
-4.49904e-21
-2.69173e-21
-2.48982e-21
-4.75551e-21
-3.57165e-21
-5.17547e-22
6.65179e-22
2.33256e-21
-1.9821e-21
-1.91572e-20
-2.18436e-20
-1.73776e-20
-1.93693e-20
-2.14914e-20
-2.00288e-20
-1.77136e-20
-1.81759e-20
-2.09339e-20
-1.9819e-20
-1.43438e-20
-1.49853e-20
-1.4214e-20
-1.57408e-20
-1.51524e-20
-1.4269e-20
-9.67908e-21
-7.38341e-21
-8.79142e-21
-9.63045e-21
-1.18629e-20
-1.40534e-20
-1.2604e-20
-1.26654e-20
-8.60438e-21
-7.79667e-21
-8.1062e-21
-7.16474e-21
-6.72043e-21
-6.70018e-21
-7.50855e-21
-5.28389e-21
-1.36281e-21
-1.325e-22
-4.58312e-21
-5.26438e-21
-1.20779e-21
-1.70929e-21
-2.18481e-22
-2.33457e-21
-1.71222e-20
-1.95004e-20
-1.76079e-20
-1.90195e-20
-2.24396e-20
-2.28503e-20
-1.69024e-20
-2.01018e-20
-2.18254e-20
-1.78456e-20
-1.62953e-20
-1.63316e-20
-1.44316e-20
-1.36874e-20
-1.56603e-20
-1.66341e-20
-1.13882e-20
-7.88486e-21
-4.03866e-21
-5.88991e-21
-1.09255e-20
-1.48607e-20
-1.37518e-20
-1.35091e-20
-1.09355e-20
-8.40163e-21
-8.08e-21
-9.21153e-21
-4.84673e-21
-5.51157e-21
-7.823e-21
-4.90902e-21
-5.27946e-21
-4.82828e-21
-3.47832e-21
-7.61999e-22
2.41456e-22
-1.09349e-21
-1.81606e-21
-8.41601e-22
-1.90324e-20
-2.31987e-20
-2.14457e-20
-2.1963e-20
-2.08134e-20
-2.03532e-20
-1.93552e-20
-2.01215e-20
-2.03586e-20
-1.93183e-20
-1.58832e-20
-1.85001e-20
-1.40648e-20
-1.34844e-20
-1.47821e-20
-1.4186e-20
-1.29054e-20
-7.66524e-21
-9.48341e-21
-1.0576e-20
-8.09644e-21
-1.40957e-20
-1.42599e-20
-1.48253e-20
-9.66724e-21
-9.75113e-21
-9.40091e-21
-9.25397e-21
-4.31937e-21
-7.03924e-21
-7.40201e-21
-5.843e-21
-3.8524e-21
-3.44129e-21
-3.1527e-21
-1.80395e-21
-8.68596e-22
-7.98875e-22
-2.34158e-21
-1.75737e-21
-1.64771e-20
-1.91078e-20
-1.94333e-20
-2.33516e-20
-2.37415e-20
-2.11505e-20
-2.41769e-20
-2.07086e-20
-1.78013e-20
-1.86602e-20
-1.79484e-20
-1.53621e-20
-1.47877e-20
-1.48588e-20
-1.65058e-20
-1.46388e-20
-1.16006e-20
-8.58565e-21
-8.8807e-21
-6.92274e-21
-1.08831e-20
-1.60975e-20
-1.61806e-20
-1.46736e-20
-1.01519e-20
-9.0615e-21
-6.23542e-21
-8.63215e-21
-8.26713e-21
-7.38354e-21
-4.6318e-21
-5.2431e-21
-5.75695e-21
-3.86694e-21
-3.63777e-21
-2.54047e-21
-7.94571e-22
4.00465e-22
-2.13084e-21
-9.82419e-22
-2.25201e-20
-2.33255e-20
-2.15285e-20
-2.17387e-20
-2.11083e-20
-2.19086e-20
-2.2703e-20
-2.3976e-20
-2.32439e-20
-1.97888e-20
-1.53268e-20
-1.26136e-20
-1.42659e-20
-1.3022e-20
-1.64213e-20
-1.62636e-20
-1.25388e-20
-9.11739e-21
-8.56231e-21
-9.88133e-21
-1.35384e-20
-1.43395e-20
-1.59901e-20
-1.62785e-20
-9.93812e-21
-6.35069e-21
-7.9738e-21
-1.18716e-20
-7.7252e-21
-6.65932e-21
-4.93192e-21
-5.22686e-21
-4.12361e-21
-4.39832e-21
-3.21469e-21
-1.68678e-21
-2.18527e-21
-2.16829e-21
-2.23732e-21
-2.66627e-21
-2.24307e-20
-2.44114e-20
-1.99788e-20
-2.05915e-20
-2.2831e-20
-2.30439e-20
-2.37347e-20
-2.29478e-20
-1.99295e-20
-2.22757e-20
-1.65226e-20
-1.24857e-20
-1.51682e-20
-1.45153e-20
-1.48753e-20
-1.64507e-20
-1.59162e-20
-7.63379e-21
-7.4129e-21
-8.92387e-21
-1.52231e-20
-1.61897e-20
-1.42518e-20
-1.40224e-20
-1.09732e-20
-1.0852e-20
-9.76099e-21
-8.97852e-21
-4.98851e-21
-7.75261e-21
-5.70504e-21
-5.60692e-21
-4.44797e-21
-5.06747e-21
-3.87829e-21
-2.72267e-21
5.62052e-22
-1.68378e-21
-2.6917e-21
1.1763e-21
-2.49101e-20
-2.28642e-20
-2.11947e-20
-2.32683e-20
-2.33008e-20
-2.49645e-20
-2.18143e-20
-2.1588e-20
-2.07752e-20
-2.04699e-20
-1.64204e-20
-1.52579e-20
-1.61863e-20
-1.55108e-20
-1.57985e-20
-1.45417e-20
-1.17334e-20
-7.807e-21
-1.06496e-20
-1.33472e-20
-9.86807e-21
-1.37944e-20
-1.49749e-20
-1.52704e-20
-1.10687e-20
-9.09888e-21
-9.63845e-21
-7.64866e-21
-6.79611e-21
-5.85855e-21
-6.65498e-21
-7.44383e-21
-4.45203e-21
-4.90405e-21
-8.57849e-21
-1.27528e-21
9.93838e-22
-2.72193e-21
-2.37615e-21
5.74891e-22
-2.5734e-20
-2.47328e-20
-2.2617e-20
-2.39505e-20
-2.31938e-20
-2.27172e-20
-2.31835e-20
-2.06055e-20
-2.08052e-20
-2.27039e-20
-1.81004e-20
-1.631e-20
-1.71989e-20
-1.3579e-20
-1.5634e-20
-1.50626e-20
-1.68508e-20
-1.03697e-20
-7.49128e-21
-7.98985e-21
-1.33957e-20
-1.50004e-20
-1.35836e-20
-1.66411e-20
-1.00752e-20
-8.99691e-21
-7.43701e-21
-7.61472e-21
-7.73895e-21
-5.43246e-21
-6.23179e-21
-6.00919e-21
-4.28042e-21
-5.93351e-21
-7.4916e-21
-2.38633e-21
1.04415e-21
1.12903e-21
-1.25902e-21
-8.41707e-22
-2.93818e-20
-2.631e-20
-2.28033e-20
-2.22569e-20
-2.40394e-20
-2.14209e-20
-2.29126e-20
-2.06765e-20
-2.20083e-20
-2.04012e-20
-1.81058e-20
-1.74661e-20
-1.90426e-20
-1.58924e-20
-1.54357e-20
-1.2824e-20
-1.30865e-20
-1.09331e-20
-9.98527e-21
-1.21559e-20
-1.282e-20
-1.44306e-20
-1.53075e-20
-1.30187e-20
-1.05235e-20
-9.88063e-21
-7.57558e-21
-7.06231e-21
-7.37311e-21
-4.24624e-21
-6.0547e-21
-5.30863e-21
-5.13365e-21
-3.66243e-21
-6.63161e-21
-5.0779e-21
2.4165e-21
3.15009e-22
-1.48473e-21
-5.39441e-22
-2.66277e-20
-2.68213e-20
-2.57731e-20
-2.40968e-20
-2.34394e-20
-2.2288e-20
-2.19992e-20
-2.14709e-20
-2.09175e-20
-1.8762e-20
-1.93211e-20
-1.93938e-20
-1.97949e-20
-1.63542e-20
-1.63656e-20
-1.19983e-20
-1.3468e-20
-1.22077e-20
-9.11089e-21
-9.96719e-21
-1.44843e-20
-1.55195e-20
-1.49805e-20
-1.08623e-20
-9.75656e-21
-9.81618e-21
-7.76777e-21
-7.08517e-21
-6.97645e-21
-5.82983e-21
-4.72526e-21
-4.77213e-21
-4.66753e-21
-4.91154e-21
-6.25188e-21
-3.50563e-21
2.80904e-23
-9.38978e-22
-9.26459e-22
-5.19354e-22
-2.35277e-20
-2.45047e-20
-2.50757e-20
-2.20947e-20
-2.62838e-20
-2.31725e-20
-2.28552e-20
-2.34109e-20
-2.23763e-20
-1.78802e-20
-1.84425e-20
-2.00059e-20
-1.83772e-20
-1.78971e-20
-1.62007e-20
-1.29475e-20
-1.34274e-20
-1.02582e-20
-1.28431e-20
-1.15306e-20
-1.48116e-20
-1.17196e-20
-1.12437e-20
-9.45204e-21
-9.95056e-21
-9.05537e-21
-8.15037e-21