/*--------------------------------*- C++ -*----------------------------------*\
| =========                 |                                                 |
| \\      /  F ield         | OpenFOAM: The Open Source CFD Toolbox           |
|  \\    /   O peration     | Version:  v2012                                 |
|   \\  /    A nd           | Website:  www.openfoam.com                      |
|    \\/     M anipulation  |                                                 |
\*---------------------------------------------------------------------------*/
FoamFile
{
    version     2.0;
    format      ascii;
    class       surfaceScalarField;
    location    "47";
    object      phi;
}
// * * * * * * * * * * * * * * * * * * * * * * * * * * * * * * * * * * * * * //

dimensions      [0 3 -1 0 0 0 0];
oriented        oriented;


internalField   nonuniform List<scalar> 
187200
(
1.875e-06
2.10276e-22
1.94235e-22
1.875e-06
3.61893e-22
4.03374e-22
1.875e-06
4.32209e-22
5.14536e-22
1.875e-06
3.65634e-22
4.25292e-22
1.875e-06
3.35268e-22
2.38104e-22
1.875e-06
4.69731e-22
4.12432e-22
1.875e-06
4.06614e-22
3.74155e-22
1.875e-06
3.39682e-22
3.07479e-22
1.875e-06
2.67616e-22
4.25317e-22
1.875e-06
4.52687e-22
3.78881e-22
1.875e-06
4.65852e-22
3.23463e-22
1.875e-06
3.55171e-22
3.20389e-22
1.875e-06
2.87118e-22
4.06903e-22
1.875e-06
2.458e-22
2.25283e-22
1.875e-06
2.735e-22
3.1885e-22
1.875e-06
2.2348e-22
3.33525e-22
1.875e-06
2.5409e-22
2.97121e-22
1.875e-06
1.61586e-22
1.58875e-22
1.875e-06
1.68332e-22
1.45202e-22
1.875e-06
1.10803e-22
2.25822e-22
1.875e-06
7.98331e-23
2.07269e-22
1.875e-06
1.85239e-22
2.33857e-22
1.875e-06
2.85994e-22
2.34248e-22
1.875e-06
3.65532e-22
1.80151e-22
1.875e-06
2.62381e-22
1.45835e-22
1.875e-06
1.95182e-22
1.30778e-22
1.875e-06
2.22224e-22
1.77295e-22
1.875e-06
1.46217e-22
1.11334e-22
1.875e-06
2.0913e-22
1.76486e-22
1.875e-06
8.34742e-23
1.8908e-22
1.875e-06
3.33572e-23
1.34815e-22
1.875e-06
8.60728e-23
1.16528e-22
1.875e-06
1.57832e-22
1.2607e-22
1.875e-06
9.10129e-23
1.74374e-22
1.875e-06
5.63025e-24
1.55265e-22
1.875e-06
-9.22866e-23
-2.93788e-23
1.875e-06
-3.72808e-23
4.17055e-23
1.875e-06
-6.34182e-24
1.41426e-22
1.875e-06
-1.76348e-23
1.2187e-22
-6.92418e-24
1.05321e-22
1.875e-06
6.10924e-23
3.18075e-22
1.875e-06
9.18875e-23
5.29249e-22
1.875e-06
2.70546e-22
7.50759e-22
1.875e-06
3.45462e-22
7.35414e-22
1.875e-06
2.50156e-22
6.6628e-22
1.875e-06
4.05299e-22
7.8726e-22
1.875e-06
4.54517e-22
8.38088e-22
1.875e-06
4.048e-22
7.72929e-22
1.875e-06
4.07168e-22
8.1134e-22
1.875e-06
2.67396e-22
7.75344e-22
1.875e-06
2.75077e-22
7.51456e-22
1.875e-06
2.57654e-22
6.62205e-22
1.875e-06
2.71428e-22
7.28958e-22
1.875e-06
2.35492e-22
6.32762e-22
1.875e-06
1.45062e-22
6.51195e-22
1.875e-06
8.08889e-23
5.95191e-22
1.875e-06
3.37409e-22
5.2667e-22
1.875e-06
3.67737e-22
6.26759e-22
1.875e-06
1.83139e-22
5.80152e-22
1.875e-06
1.00718e-22
4.7164e-22
1.875e-06
2.13015e-22
5.26261e-22
1.875e-06
3.348e-22
5.40785e-22
1.875e-06
2.32344e-22
3.68529e-22
1.875e-06
1.5732e-22
3.39521e-22
1.875e-06
1.67054e-22
2.70426e-22
1.875e-06
2.11079e-22
3.45961e-22
1.875e-06
1.72128e-22
3.78587e-22
1.875e-06
1.27557e-22
3.25885e-22
1.875e-06
3.28727e-23
3.84871e-22
1.875e-06
1.40752e-22
4.51069e-22
1.875e-06
1.35088e-22
2.91648e-22
1.875e-06
5.15296e-23
1.74198e-22
1.875e-06
2.14574e-24
1.43289e-22
1.875e-06
1.7099e-23
2.47549e-22
1.875e-06
3.28148e-23
2.25933e-22
1.875e-06
-6.66471e-24
1.0206e-22
1.875e-06
-5.79898e-24
4.19933e-23
1.875e-06
-2.62162e-23
3.27609e-23
1.875e-06
-7.40146e-23
3.59566e-23
-1.02582e-22
1.52698e-23
1.875e-06
1.84689e-22
4.22079e-22
1.875e-06
1.4797e-22
6.87539e-22
1.875e-06
1.15563e-22
7.39058e-22
1.875e-06
3.02461e-22
8.70638e-22
1.875e-06
3.54792e-22
9.32719e-22
1.875e-06
3.89662e-22
9.44007e-22
1.875e-06
4.02604e-22
9.5641e-22
1.875e-06
2.6575e-22
1.05071e-21
1.875e-06
3.01011e-22
1.03544e-21
1.875e-06
2.80333e-22
9.38265e-22
1.875e-06
2.38553e-22
8.48818e-22
1.875e-06
2.70063e-22
7.61057e-22
1.875e-06
2.33518e-22
7.60366e-22
1.875e-06
2.05914e-22
7.82613e-22
1.875e-06
2.55066e-22
8.17467e-22
1.875e-06
3.16219e-22
7.4286e-22
1.875e-06
1.37432e-22
5.48983e-22
1.875e-06
2.6809e-22
5.93867e-22
1.875e-06
1.8442e-22
6.47998e-22
1.875e-06
1.60015e-22
6.48915e-22
1.875e-06
1.93129e-22
6.41425e-22
1.875e-06
1.31544e-22
4.50126e-22
1.875e-06
2.707e-22
3.59547e-22
1.875e-06
2.06486e-22
3.71551e-22
1.875e-06
2.8623e-22
4.68931e-22
1.875e-06
8.49121e-23
4.31886e-22
1.875e-06
9.8456e-23
4.73511e-22
1.875e-06
4.6197e-23
4.89717e-22
1.875e-06
1.15834e-22
3.70868e-22
1.875e-06
1.40632e-22
4.15069e-22
1.875e-06
1.34744e-22
4.88532e-22
1.875e-06
8.53855e-23
3.04619e-22
1.875e-06
4.6744e-24
1.47769e-22
1.875e-06
-2.24421e-23
2.4172e-22
1.875e-06
-5.09974e-24
2.0015e-22
1.875e-06
3.32498e-23
8.38237e-23
1.875e-06
5.32949e-23
4.90722e-23
1.875e-06
1.09557e-23
1.13517e-22
1.875e-06
6.42943e-24
4.49369e-23
-2.59086e-23
3.32121e-23
1.875e-06
2.19292e-22
4.84491e-22
1.875e-06
1.82379e-22
8.06879e-22
1.875e-06
9.5531e-23
9.40752e-22
1.875e-06
1.37785e-22
9.13171e-22
1.875e-06
2.33287e-22
9.56609e-22
1.875e-06
2.20441e-22
9.15329e-22
1.875e-06
1.99348e-22
9.71173e-22
1.875e-06
3.29157e-22
1.07545e-21
1.875e-06
2.64537e-22
1.10498e-21
1.875e-06
3.3437e-22
1.01241e-21
1.875e-06
3.30773e-22
9.46871e-22
1.875e-06
1.16192e-22
8.7906e-22
1.875e-06
1.54029e-22
7.66085e-22
1.875e-06
1.65849e-22
8.23881e-22
1.875e-06
2.88376e-22
8.68251e-22
1.875e-06
4.09962e-22
7.69799e-22
1.875e-06
2.36399e-22
6.65877e-22
1.875e-06
9.69146e-23
6.47452e-22
1.875e-06
2.0503e-22
7.95893e-22
1.875e-06
2.02697e-22
6.50649e-22
1.875e-06
1.80391e-22
6.54059e-22
1.875e-06
1.80377e-22
6.21735e-22
1.875e-06
1.4443e-22
4.31504e-22
1.875e-06
1.5061e-22
4.51543e-22
1.875e-06
9.35826e-23
4.0514e-22
1.875e-06
1.50837e-22
5.62669e-22
1.875e-06
9.8739e-23
5.0223e-22
1.875e-06
1.4201e-22
3.88359e-22
1.875e-06
1.19841e-22
3.35603e-22
1.875e-06
4.04223e-23
3.90013e-22
1.875e-06
4.48203e-23
4.51939e-22
1.875e-06
-2.31515e-24
2.73611e-22
1.875e-06
-9.09582e-23
2.80681e-22
1.875e-06
-3.12034e-23
2.66756e-22
1.875e-06
7.49758e-23
2.01963e-22
1.875e-06
7.80328e-23
8.69968e-23
1.875e-06
1.0987e-23
2.50186e-23
1.875e-06
5.1473e-23
8.51906e-23
1.875e-06
-3.4167e-23
2.8385e-23
2.98041e-24
3.55262e-23
1.875e-06
-2.2746e-23
3.22951e-22
1.875e-06
6.83899e-23
7.96277e-22
1.875e-06
6.45446e-23
9.48318e-22
1.875e-06
9.41868e-23
1.02538e-21
1.875e-06
1.65096e-22
1.09498e-21
1.875e-06
9.76475e-23
1.0173e-21
1.875e-06
9.57658e-23
1.07275e-21
1.875e-06
3.24576e-22
1.08966e-21
1.875e-06
3.90618e-22
1.13469e-21
1.875e-06
2.72898e-22
1.01835e-21
1.875e-06
1.99126e-22
9.2823e-22
1.875e-06
2.40284e-22
8.96879e-22
1.875e-06
2.60006e-22
8.32193e-22
1.875e-06
2.14618e-22
8.99584e-22
1.875e-06
1.64824e-22
9.12694e-22
1.875e-06
1.65987e-22
6.77372e-22
1.875e-06
1.18202e-22
7.08245e-22
1.875e-06
5.13427e-23
7.48997e-22
1.875e-06
1.15428e-22
7.4309e-22
1.875e-06
2.49957e-22
7.08736e-22
1.875e-06
2.37895e-22
7.12781e-22
1.875e-06
1.63427e-22
6.1691e-22
1.875e-06
1.32202e-22
5.42262e-22
1.875e-06
1.57644e-22
5.18886e-22
1.875e-06
1.91607e-22
5.42181e-22
1.875e-06
7.62967e-23
5.09322e-22
1.875e-06
9.0145e-23
4.61224e-22
1.875e-06
9.93582e-24
3.54658e-22
1.875e-06
2.44555e-23
3.55858e-22
1.875e-06
4.8904e-23
4.00094e-22
1.875e-06
1.18196e-22
3.92032e-22
1.875e-06
1.45358e-22
3.75222e-22
1.875e-06
2.02428e-23
3.03573e-22
1.875e-06
-5.40746e-23
2.48604e-22
1.875e-06
-1.20431e-23
1.30113e-22
1.875e-06
-7.33879e-23
3.98104e-23
1.875e-06
3.62532e-23
2.5993e-23
1.875e-06
3.83837e-23
4.38496e-23
1.875e-06
1.57261e-23
1.83803e-23
-2.60113e-23
2.79366e-23
1.875e-06
7.34864e-23
3.67941e-22
1.875e-06
1.98962e-22
8.1412e-22
1.875e-06
1.1804e-22
1.03786e-21
1.875e-06
5.38719e-23
1.1083e-21
1.875e-06
7.65582e-23
1.16934e-21
1.875e-06
1.40486e-22
1.19839e-21
1.875e-06
1.49795e-22
1.23148e-21
1.875e-06
2.24806e-22
1.15599e-21
1.875e-06
3.57913e-22
1.12074e-21
1.875e-06
2.41698e-22
1.01938e-21
1.875e-06
2.22402e-22
1.02808e-21
1.875e-06
2.61202e-22
9.72053e-22
1.875e-06
2.1626e-22
9.16919e-22
1.875e-06
2.36588e-22
9.08645e-22
1.875e-06
1.3051e-22
8.70323e-22
1.875e-06
1.09449e-22
7.61136e-22
1.875e-06
1.46115e-22
8.32035e-22
1.875e-06
1.64783e-23
7.57355e-22
1.875e-06
5.97432e-23
7.21121e-22
1.875e-06
1.33824e-22
6.69822e-22
1.875e-06
1.63593e-22
7.04275e-22
1.875e-06
2.45422e-22
7.10118e-22
1.875e-06
1.98715e-22
5.73072e-22
1.875e-06
1.29159e-22
5.51045e-22
1.875e-06
4.75954e-23
4.07457e-22
1.875e-06
2.44572e-22
5.27892e-22
1.875e-06
1.35394e-22
4.93828e-22
1.875e-06
3.82606e-23
4.25752e-22
1.875e-06
-2.33141e-23
3.84328e-22
1.875e-06
-1.63708e-23
4.13809e-22
1.875e-06
1.03022e-22
3.68675e-22
1.875e-06
1.15275e-22
2.72964e-22
1.875e-06
-5.34524e-23
2.47689e-22
1.875e-06
2.957e-23
2.40287e-22
1.875e-06
-2.75226e-24
1.87601e-22
1.875e-06
4.54244e-23
1.21838e-22
1.875e-06
1.44857e-23
-6.29745e-24
1.875e-06
1.06091e-22
-3.12199e-23
1.875e-06
8.57074e-23
-4.36956e-23
1.0316e-22
8.40528e-23
1.875e-06
2.93497e-23
3.85234e-22
1.875e-06
8.61825e-23
8.17197e-22
1.875e-06
1.62343e-22
1.03052e-21
1.875e-06
7.56657e-23
1.17442e-21
1.875e-06
1.05389e-22
1.26897e-21
1.875e-06
8.38427e-23
1.23247e-21
1.875e-06
2.3171e-22
1.24153e-21
1.875e-06
3.62663e-22
1.1889e-21
1.875e-06
2.88982e-22
1.22103e-21
1.875e-06
2.25913e-22
1.20391e-21
1.875e-06
1.27864e-22
1.00196e-21
1.875e-06
1.05936e-22
9.46417e-22
1.875e-06
1.34447e-22
9.17774e-22
1.875e-06
1.9298e-22
9.83182e-22
1.875e-06
1.52909e-22
9.55304e-22
1.875e-06
1.27337e-22
8.50952e-22
1.875e-06
7.7984e-23
7.73445e-22
1.875e-06
1.49105e-22
7.63391e-22
1.875e-06
1.66523e-22
7.49463e-22
1.875e-06
5.60277e-23
7.32281e-22
1.875e-06
8.98478e-23
7.5891e-22
1.875e-06
7.56557e-23
7.32092e-22
1.875e-06
7.84704e-23
5.6453e-22
1.875e-06
1.48801e-22
5.5165e-22
1.875e-06
1.33267e-22
5.15192e-22
1.875e-06
1.28976e-22
4.41754e-22
1.875e-06
1.61564e-22
4.96339e-22
1.875e-06
1.75358e-22
4.43861e-22
1.875e-06
7.8184e-23
3.77036e-22
1.875e-06
4.61404e-23
3.8716e-22
1.875e-06
-9.033e-24
3.17391e-22
1.875e-06
-2.013e-23
2.1723e-22
1.875e-06
9.73946e-23
2.72105e-22
1.875e-06
7.92495e-23
1.45251e-22
1.875e-06
8.77019e-23
1.74319e-22
1.875e-06
3.26993e-23
1.29792e-22
1.875e-06
-3.49131e-23
-3.01168e-23
1.875e-06
6.50973e-25
-7.38319e-23
1.875e-06
2.5911e-23
-1.2687e-23
1.29094e-23
3.5408e-23
1.875e-06
1.3203e-22
3.21435e-22
1.875e-06
1.14177e-22
7.34445e-22
1.875e-06
5.2433e-23
9.94924e-22
1.875e-06
1.50168e-22
1.24091e-21
1.875e-06
1.54216e-22
1.37556e-21
1.875e-06
2.65763e-22
1.42237e-21
1.875e-06
2.15231e-22
1.21078e-21
1.875e-06
5.05808e-23
1.16692e-21
1.875e-06
9.90939e-23
1.21849e-21
1.875e-06
2.43115e-22
1.13858e-21
1.875e-06
8.85509e-23
1.09914e-21
1.875e-06
9.07681e-23
1.04085e-21
1.875e-06
2.02171e-22
9.33568e-22
1.875e-06
1.16628e-22
9.02905e-22
1.875e-06
1.65585e-22
9.76287e-22
1.875e-06
1.16922e-22
9.34797e-22
1.875e-06
8.33248e-23
8.55693e-22
1.875e-06
6.20947e-23
7.91453e-22
1.875e-06
1.35902e-22
5.99099e-22
1.875e-06
2.27039e-22
6.70957e-22
1.875e-06
6.49862e-23
7.3961e-22
1.875e-06
9.87225e-23
7.37073e-22
1.875e-06
2.36315e-22
6.85608e-22
1.875e-06
6.02194e-23
6.80222e-22
1.875e-06
6.71968e-25
6.17248e-22
1.875e-06
1.35059e-22
5.0207e-22
1.875e-06
2.06663e-22
4.75714e-22
1.875e-06
1.4708e-22
4.13196e-22
1.875e-06
1.01415e-22
2.94747e-22
1.875e-06
1.23999e-22
3.36969e-22
1.875e-06
2.08746e-23
3.60033e-22
1.875e-06
-3.997e-23
2.43598e-22
1.875e-06
-1.83579e-24
3.22121e-22
1.875e-06
4.70605e-23
2.41457e-22
1.875e-06
9.1556e-23
7.44277e-23
1.875e-06
4.42642e-23
-1.36186e-23
1.875e-06
-7.20983e-24
-5.50968e-23
1.875e-06
-2.47901e-23
-1.0476e-22
1.875e-06
-2.28806e-23
-4.23979e-23
-3.07839e-23
-4.75064e-23
1.875e-06
-1.80846e-22
2.3039e-22
1.875e-06
-1.17747e-22
7.982e-22
1.875e-06
9.94253e-23
1.13471e-21
1.875e-06
1.3356e-22
1.27563e-21
1.875e-06
1.93736e-22
1.29383e-21
1.875e-06
2.08218e-22
1.29401e-21
1.875e-06
1.60148e-22
1.32244e-21
1.875e-06
1.57005e-22
1.33211e-21
1.875e-06
9.11106e-23
1.27511e-21
1.875e-06
1.08002e-22
1.12555e-21
1.875e-06
2.25083e-22
1.14555e-21
1.875e-06
8.56479e-23
1.13695e-21
1.875e-06
3.07888e-23
8.90113e-22
1.875e-06
8.07483e-23
8.96336e-22
1.875e-06
1.72365e-22
9.22496e-22
1.875e-06
1.14671e-22
8.97733e-22
1.875e-06
1.66586e-22
9.36631e-22
1.875e-06
1.90681e-22
8.53076e-22
1.875e-06
-4.22625e-24
7.33017e-22
1.875e-06
-8.51373e-24
6.8991e-22
1.875e-06
1.99525e-22
7.32778e-22
1.875e-06
1.8412e-22
7.84808e-22
1.875e-06
1.17105e-22
5.96733e-22
1.875e-06
1.81117e-22
7.24242e-22
1.875e-06
2.74484e-22
7.28872e-22
1.875e-06
1.14877e-22
5.70585e-22
1.875e-06
-4.15157e-23
4.361e-22
1.875e-06
3.70397e-24
3.6057e-22
1.875e-06
9.93922e-23
2.5095e-22
1.875e-06
7.37085e-23
3.72367e-22
1.875e-06
-4.60716e-23
3.149e-22
1.875e-06
-3.30547e-24
3.20357e-22
1.875e-06
8.74161e-23
3.09574e-22
1.875e-06
3.29225e-23
1.87126e-22
1.875e-06
4.6334e-23
-6.72865e-23
1.875e-06
1.63861e-22
-6.58318e-23
1.875e-06
1.32246e-22
-2.09456e-23
1.875e-06
-8.44531e-23
-1.69134e-22
1.875e-06
-4.73756e-23
-1.05622e-22
-3.43146e-23
-8.06271e-23
1.875e-06
-3.68793e-23
3.95131e-22
1.875e-06
6.14424e-23
7.99477e-22
1.875e-06
1.69991e-22
1.07376e-21
1.875e-06
2.36985e-22
1.33115e-21
1.875e-06
8.69417e-23
1.36961e-21
1.875e-06
7.7934e-23
1.3055e-21
1.875e-06
2.58848e-22
1.48826e-21
1.875e-06
1.16384e-22
1.40529e-21
1.875e-06
1.22429e-22
1.25282e-21
1.875e-06
1.05093e-22
1.09056e-21
1.875e-06
9.70731e-23
1.08806e-21
1.875e-06
5.43981e-23
1.07231e-21
1.875e-06
6.21275e-23
9.60545e-22
1.875e-06
1.18914e-22
9.92769e-22
1.875e-06
1.45944e-22
9.48356e-22
1.875e-06
2.08522e-22
9.3692e-22
1.875e-06
9.03561e-23
8.91763e-22
1.875e-06
7.95815e-23
7.89457e-22
1.875e-06
7.85492e-25
7.99678e-22
1.875e-06
1.37138e-22
6.91745e-22
1.875e-06
2.10243e-22
7.37706e-22
1.875e-06
2.748e-22
7.99914e-22
1.875e-06
1.13866e-22
6.88894e-22
1.875e-06
1.02864e-22
7.14503e-22
1.875e-06
1.54243e-22
6.19762e-22
1.875e-06
1.25841e-22
5.30536e-22
1.875e-06
-4.76203e-23
4.23779e-22
1.875e-06
-2.36777e-23
4.34797e-22
1.875e-06
8.89677e-24
3.51283e-22
1.875e-06
1.14382e-22
3.38244e-22
1.875e-06
5.55625e-23
2.95291e-22
1.875e-06
6.40691e-23
3.12948e-22
1.875e-06
2.38622e-23
2.99139e-22
1.875e-06
-1.42409e-24
1.3512e-22
1.875e-06
-1.06653e-22
-7.82933e-23
1.875e-06
-1.927e-23
-1.96187e-22
1.875e-06
5.17492e-23
-2.24578e-22
1.875e-06
5.44245e-23
-2.46745e-22
1.875e-06
3.30942e-23
-1.62311e-22
4.37553e-23
-1.50484e-22
1.875e-06
8.26305e-23
6.24698e-22
1.875e-06
1.46337e-22
9.34443e-22
1.875e-06
1.06484e-22
1.10593e-21
1.875e-06
8.00805e-23
1.23711e-21
1.875e-06
1.65684e-22
1.3767e-21
1.875e-06
1.56586e-22
1.36095e-21
1.875e-06
4.06038e-25
1.35113e-21
1.875e-06
2.19835e-22
1.50104e-21
1.875e-06
4.20876e-23
1.41728e-21
1.875e-06
5.7566e-23
1.12491e-21
1.875e-06
2.00918e-22
1.00235e-21
1.875e-06
1.55273e-22
1.0346e-21
1.875e-06
2.45163e-23
9.87885e-22
1.875e-06
1.28242e-22
9.13397e-22
1.875e-06
5.03936e-23
9.63004e-22
1.875e-06
1.04572e-22
9.40569e-22
1.875e-06
1.88622e-22
9.53073e-22
1.875e-06
1.42245e-22
8.83733e-22
1.875e-06
1.88325e-22
8.92073e-22
1.875e-06
3.40198e-23
7.36601e-22
1.875e-06
1.02944e-22
7.59769e-22
1.875e-06
1.28986e-22
6.6677e-22
1.875e-06
9.30123e-23
7.2353e-22
1.875e-06
1.42913e-22
7.39633e-22
1.875e-06
1.45125e-22
5.64971e-22
1.875e-06
-3.45458e-23
4.01827e-22
1.875e-06
7.83747e-23
5.32193e-22
1.875e-06
4.23162e-23
5.62644e-22
1.875e-06
1.55455e-23
3.85028e-22
1.875e-06
-1.11035e-22
2.64534e-22
1.875e-06
-3.74691e-23
3.13504e-22
1.875e-06
5.46055e-23
2.83876e-22
1.875e-06
7.28898e-23
2.89283e-22
1.875e-06
4.41373e-23
1.20448e-22
1.875e-06
3.39592e-23
-2.19084e-23
1.875e-06
-6.49903e-23
-2.28772e-22
1.875e-06
-1.46248e-22
-3.0116e-22
1.875e-06
-4.97316e-23
-1.59081e-22
1.875e-06
5.68611e-23
-2.22494e-22
8.61629e-23
-2.07018e-22
1.875e-06
1.52488e-22
6.52247e-22
1.875e-06
8.04021e-23
9.52677e-22
1.875e-06
1.1489e-22
1.07131e-21
1.875e-06
1.30351e-22
1.25608e-21
1.875e-06
1.52397e-22
1.4073e-21
1.875e-06
7.37691e-23
1.36744e-21
1.875e-06
2.04297e-22
1.44155e-21
1.875e-06
1.62394e-22
1.33817e-21
1.875e-06
1.27387e-22
1.38283e-21
1.875e-06
3.29275e-23
1.22538e-21
1.875e-06
6.28468e-23
9.5405e-22
1.875e-06
1.77774e-22
9.87002e-22
1.875e-06
1.79263e-22
1.08271e-21
1.875e-06
1.55052e-22
9.39768e-22
1.875e-06
1.16867e-22
9.886e-22
1.875e-06
1.02069e-22
9.67423e-22
1.875e-06
8.73428e-23
9.75802e-22
1.875e-06
8.11054e-23
8.15606e-22
1.875e-06
1.27149e-22
7.93047e-22
1.875e-06
2.03205e-22
7.86944e-22
1.875e-06
8.65834e-23
8.84241e-22
1.875e-06
3.21114e-24
7.05815e-22
1.875e-06
6.77978e-23
6.58709e-22
1.875e-06
1.12671e-22
6.65184e-22
1.875e-06
-1.03229e-22
5.37368e-22
1.875e-06
-1.05493e-23
5.61488e-22
1.875e-06
2.02062e-23
5.20231e-22
1.875e-06
1.60311e-24
4.77409e-22
1.875e-06
5.94542e-24
2.96615e-22
1.875e-06
-6.34196e-23
3.56228e-22
1.875e-06
1.8684e-23
3.67813e-22
1.875e-06
7.11975e-23
2.89867e-22
1.875e-06
-2.4592e-23
2.76689e-22
1.875e-06
1.04476e-22
1.09871e-22
1.875e-06
1.33396e-22
-5.35611e-23
1.875e-06
-1.66195e-23
-2.35489e-22
1.875e-06
-8.5497e-23
-2.82558e-22
1.875e-06
-6.69979e-23
-2.12891e-22
1.875e-06
-1.11595e-22
-2.68832e-22
-1.15963e-22
-4.54803e-22
1.875e-06
1.43999e-22
5.98845e-22
1.875e-06
2.07903e-22
9.71892e-22
1.875e-06
1.3827e-22
1.11334e-21
1.875e-06
1.55676e-22
1.33203e-21
1.875e-06
-1.44321e-23
1.3699e-21
1.875e-06
-6.39259e-23
1.41425e-21
1.875e-06
-5.65998e-24
1.30154e-21
1.875e-06
7.20156e-23
1.20976e-21
1.875e-06
1.64882e-22
1.2871e-21
1.875e-06
1.4616e-22
1.1739e-21
1.875e-06
4.67419e-23
9.66072e-22
1.875e-06
1.81528e-22
9.9466e-22
1.875e-06
1.91274e-22
1.11684e-21
1.875e-06
1.32216e-22
1.03404e-21
1.875e-06
1.52771e-22
1.03012e-21
1.875e-06
6.21732e-23
8.54566e-22
1.875e-06
1.22128e-22
8.36716e-22
1.875e-06
8.44146e-23
8.37029e-22
1.875e-06
6.52681e-23
8.99473e-22
1.875e-06
1.64491e-22
8.63506e-22
1.875e-06
1.38927e-22
7.2187e-22
1.875e-06
1.06853e-22
7.09085e-22
1.875e-06
5.1461e-23
7.07148e-22
1.875e-06
-1.16796e-23
6.62015e-22
1.875e-06
4.72366e-23
5.95618e-22
1.875e-06
-1.64067e-23
5.38275e-22
1.875e-06
-1.31182e-22
5.14004e-22
1.875e-06
-2.91696e-23
4.30453e-22
1.875e-06
-2.6231e-23
3.48746e-22
1.875e-06
-5.85748e-23
3.63052e-22
1.875e-06
-5.81553e-23
3.6513e-22
1.875e-06
-3.69955e-24
2.76099e-22
1.875e-06
5.68724e-23
2.8773e-22
1.875e-06
-2.42903e-23
5.59256e-23
1.875e-06
1.80715e-23
-9.02247e-23
1.875e-06
6.54581e-23
-2.44674e-22
1.875e-06
-5.22753e-23
-2.47508e-22
1.875e-06
-1.32029e-22
-2.66881e-22
1.875e-06
-1.49938e-22
-2.11978e-22
-7.62526e-23
-3.63543e-22
1.875e-06
-1.33314e-22
5.04534e-22
1.875e-06
4.70898e-23
9.2982e-22
1.875e-06
1.82882e-22
1.16163e-21
1.875e-06
4.25506e-23
1.30373e-21
1.875e-06
2.00758e-23
1.43092e-21
1.875e-06
6.06708e-23
1.4842e-21
1.875e-06
9.12721e-23
1.37752e-21
1.875e-06
1.1809e-22
1.20349e-21
1.875e-06
6.32351e-23
1.15905e-21
1.875e-06
-7.07838e-23
1.1245e-21
1.875e-06
-1.85362e-23
1.04904e-21
1.875e-06
1.52416e-22
1.0013e-21
1.875e-06
1.76651e-22
1.08207e-21
1.875e-06
6.83162e-23
9.74949e-22
1.875e-06
2.09516e-23
9.80648e-22
1.875e-06
3.04876e-23
9.2017e-22
1.875e-06
1.59094e-22
9.75805e-22
1.875e-06
2.67875e-22
9.7589e-22
1.875e-06
2.325e-22
8.89647e-22
1.875e-06
8.78219e-23
6.32581e-22
1.875e-06
1.42363e-22
7.5553e-22
1.875e-06
1.66677e-23
7.52917e-22
1.875e-06
1.64129e-23
7.11768e-22
1.875e-06
-1.43799e-23
6.87413e-22
1.875e-06
-7.32925e-23
5.41704e-22
1.875e-06
1.15324e-23
5.78157e-22
1.875e-06
1.2311e-22
5.61762e-22
1.875e-06
4.25153e-24
4.47661e-22
1.875e-06
-7.47066e-23
3.67971e-22
1.875e-06
-5.74815e-23
3.51025e-22
1.875e-06
-1.03016e-22
3.43159e-22
1.875e-06
-1.33948e-22
2.19705e-22
1.875e-06
-2.62174e-23
2.43164e-22
1.875e-06
-2.40673e-23
1.23316e-22
1.875e-06
-3.58796e-23
-1.17192e-22
1.875e-06
-1.07912e-22
-3.96875e-22
1.875e-06
-5.26081e-23
-3.96396e-22
1.875e-06
4.47786e-23
-2.54815e-22
1.875e-06
-3.35771e-23
-1.92636e-22
-2.31613e-22
-3.3377e-22
1.875e-06
-2.59271e-23
7.57628e-22
1.875e-06
-1.64714e-22
9.85108e-22
1.875e-06
-1.37044e-24
1.13186e-21
1.875e-06
-1.42803e-23
1.30105e-21
1.875e-06
1.7271e-23
1.47491e-21
1.875e-06
-3.30233e-24
1.37321e-21
1.875e-06
-2.112e-23
1.28577e-21
1.875e-06
-2.56448e-23
1.117e-21
1.875e-06
3.29646e-23
1.19699e-21
1.875e-06
3.95497e-23
1.21112e-21
1.875e-06
1.40026e-22
1.15912e-21
1.875e-06
7.39471e-23
1.03143e-21
1.875e-06
9.11554e-23
1.0954e-21
1.875e-06
6.05979e-23
1.06778e-21
1.875e-06
1.57722e-22
1.02093e-21
1.875e-06
1.36755e-22
8.94063e-22
1.875e-06
2.99712e-23
8.18475e-22
1.875e-06
1.21927e-22
8.32111e-22
1.875e-06
5.86118e-23
8.21609e-22
1.875e-06
1.84349e-22
8.20973e-22
1.875e-06
1.38389e-22
7.69647e-22
1.875e-06
8.29973e-23
7.54587e-22
1.875e-06
3.73285e-24
7.677e-22
1.875e-06
-1.76892e-22
5.77924e-22
1.875e-06
-1.44176e-22
5.68899e-22
1.875e-06
8.39953e-24
5.58611e-22
1.875e-06
7.37938e-23
4.88565e-22
1.875e-06
1.64786e-23
4.49374e-22
1.875e-06
-2.84484e-23
4.12477e-22
1.875e-06
-7.50418e-24
3.19455e-22
1.875e-06
-3.52823e-23
3.78502e-22
1.875e-06
-9.46764e-23
2.87521e-22
1.875e-06
-2.40943e-23
2.79424e-22
1.875e-06
-3.29244e-23
1.2553e-22
1.875e-06
6.52409e-25
-9.8095e-23
1.875e-06
1.50825e-23
-2.19408e-22
1.875e-06
-7.25397e-23
-3.85004e-22
1.875e-06
-1.11897e-22
-3.27783e-22
1.875e-06
-6.86599e-23
-2.47974e-22
-1.15885e-22
-2.85747e-22
1.875e-06
-5.20149e-23
7.34739e-22
1.875e-06
-1.13476e-22
1.10888e-21
1.875e-06
-1.37243e-22
1.19894e-21
1.875e-06
-1.15975e-22
1.39623e-21
1.875e-06
-4.74084e-23
1.45448e-21
1.875e-06
4.73167e-23
1.43834e-21
1.875e-06
5.19492e-23
1.31594e-21
1.875e-06
1.2819e-23
1.21829e-21
1.875e-06
4.44117e-23
1.20743e-21
1.875e-06
1.02271e-22
1.18384e-21
1.875e-06
-2.83353e-24
1.13422e-21
1.875e-06
6.24855e-23
1.09632e-21
1.875e-06
-1.13568e-22
1.09681e-21
1.875e-06
2.03959e-23
1.07963e-21
1.875e-06
9.68757e-23
9.84446e-22
1.875e-06
1.55048e-22
8.41118e-22
1.875e-06
1.84489e-22
9.0087e-22
1.875e-06
1.24389e-22
8.33266e-22
1.875e-06
1.93664e-22
8.60088e-22
1.875e-06
3.47813e-23
6.96867e-22
1.875e-06
1.57046e-22
7.59418e-22
1.875e-06
3.10818e-23
7.31409e-22
1.875e-06
-3.66615e-23
7.06463e-22
1.875e-06
-9.74701e-23
6.45545e-22
1.875e-06
-3.7532e-23
6.47057e-22
1.875e-06
-1.05232e-22
5.79258e-22
1.875e-06
1.28178e-23
4.43772e-22
1.875e-06
1.6418e-22
3.93503e-22
1.875e-06
-4.62013e-23
4.13081e-22
1.875e-06
2.41705e-23
3.72231e-22
1.875e-06
4.09253e-23
3.57214e-22
1.875e-06
-4.82212e-23
2.9563e-22
1.875e-06
-1.07227e-22
2.57948e-22
1.875e-06
-9.20761e-23
1.80233e-22
1.875e-06
-1.33056e-22
-1.46135e-22
1.875e-06
-1.40282e-22
-3.34656e-22
1.875e-06
7.23912e-23
-2.4885e-22
1.875e-06
9.82576e-23
-1.32992e-22
1.875e-06
-4.4116e-23
-1.91252e-22
-5.45694e-23
-2.26697e-22
1.875e-06
-1.63177e-22
6.38898e-22
1.875e-06
-8.11259e-23
1.1127e-21
1.875e-06
-3.52215e-23
1.27867e-21
1.875e-06
-5.03327e-23
1.44942e-21
1.875e-06
-5.06243e-23
1.56742e-21
1.875e-06
2.89107e-23
1.42773e-21
1.875e-06
-1.22855e-22
1.31255e-21
1.875e-06
-1.07501e-22
1.27769e-21
1.875e-06
4.99204e-23
1.26563e-21
1.875e-06
1.38608e-22
1.15094e-21
1.875e-06
1.38542e-22
1.19062e-21
1.875e-06
-4.4465e-23
1.08953e-21
1.875e-06
4.62442e-23
1.22532e-21
1.875e-06
3.60675e-23
1.16904e-21
1.875e-06
1.9454e-22
9.8608e-22
1.875e-06
1.49915e-22
8.18007e-22
1.875e-06
2.896e-23
7.83683e-22
1.875e-06
-4.12088e-23
7.80655e-22
1.875e-06
9.08032e-23
8.27651e-22
1.875e-06
2.06845e-22
7.84393e-22
1.875e-06
1.05929e-22
6.86007e-22
1.875e-06
-1.29312e-23
6.75542e-22
1.875e-06
-1.61009e-22
5.75411e-22
1.875e-06
-8.07638e-23
5.82983e-22
1.875e-06
-9.42578e-24
6.17572e-22
1.875e-06
6.17128e-23
6.39182e-22
1.875e-06
8.50739e-23
4.66275e-22
1.875e-06
-3.06651e-24
3.86918e-22
1.875e-06
1.11224e-22
5.05049e-22
1.875e-06
5.47239e-23
3.63781e-22
1.875e-06
3.3193e-23
2.96781e-22
1.875e-06
-6.60505e-23
2.88184e-22
1.875e-06
-9.58346e-23
2.89455e-22
1.875e-06
-8.35425e-23
2.56691e-22
1.875e-06
-2.69943e-22
-5.22512e-23
1.875e-06
-9.73467e-23
-2.10405e-22
1.875e-06
2.31471e-23
-2.80611e-22
1.875e-06
1.2969e-23
-1.83523e-22
1.875e-06
-3.51067e-23
-2.02416e-22
1.71101e-23
-2.75491e-22
1.875e-06
-1.07781e-22
7.05341e-22
1.875e-06
-1.72318e-22
1.14983e-21
1.875e-06
-1.83897e-22
1.26006e-21
1.875e-06
5.70817e-24
1.46749e-21
1.875e-06
7.78369e-23
1.48804e-21
1.875e-06
-9.33308e-23
1.4005e-21
1.875e-06
-1.24492e-22
1.36892e-21
1.875e-06
-1.2914e-22
1.32056e-21
1.875e-06
-1.90146e-23
1.28617e-21
1.875e-06
6.39815e-23
1.28469e-21
1.875e-06
2.52634e-23
1.24255e-21
1.875e-06
9.94038e-23
1.13421e-21
1.875e-06
8.23976e-23
1.15733e-21
1.875e-06
4.17933e-23
1.19324e-21
1.875e-06
3.60924e-23
9.41635e-22
1.875e-06
6.4747e-23
8.39377e-22
1.875e-06
5.44137e-23
8.24423e-22
1.875e-06
1.96802e-22
8.82299e-22
1.875e-06
2.53138e-22
7.41968e-22
1.875e-06
1.52893e-22
6.00955e-22
1.875e-06
-6.42794e-23
5.80424e-22
1.875e-06
-2.27572e-22
7.3546e-22
1.875e-06
-9.34326e-23
6.18956e-22
1.875e-06
-3.14278e-23
6.24599e-22
1.875e-06
-6.26195e-23
6.60539e-22
1.875e-06
-1.79408e-23
6.48558e-22
1.875e-06
5.08294e-23
4.83881e-22
1.875e-06
5.11766e-23
4.25901e-22
1.875e-06
4.60271e-23
3.60645e-22
1.875e-06
7.34398e-23
3.15525e-22
1.875e-06
6.65627e-23
2.8125e-22
1.875e-06
-6.94529e-24
2.88358e-22
1.875e-06
-5.73035e-23
2.81531e-22
1.875e-06
-5.50712e-23
2.19976e-22
1.875e-06
-3.47327e-23
1.22787e-22
1.875e-06
-4.62477e-23
-2.60949e-23
1.875e-06
-9.80552e-23
-1.36788e-22
1.875e-06
-5.43304e-23
-1.63433e-22
1.875e-06
1.37666e-22
-1.5458e-22
2.11413e-22
-2.71905e-22
1.875e-06
-7.89588e-23
7.78577e-22
1.875e-06
-5.12903e-24
1.19975e-21
1.875e-06
-3.53574e-23
1.29739e-21
1.875e-06
-6.57593e-23
1.44971e-21
1.875e-06
-7.54572e-23
1.45853e-21
1.875e-06
-1.53175e-22
1.4412e-21
1.875e-06
-1.35012e-22
1.44663e-21
1.875e-06
-1.34741e-23
1.48302e-21
1.875e-06
5.7998e-23
1.35595e-21
1.875e-06
-4.81036e-24
1.21847e-21
1.875e-06
5.68336e-23
1.22327e-21
1.875e-06
5.83693e-23
1.19506e-21
1.875e-06
1.44578e-22
1.18769e-21
1.875e-06
1.61844e-22
1.20028e-21
1.875e-06
1.72964e-23
9.8853e-22
1.875e-06
-7.14323e-23
8.93132e-22
1.875e-06
-5.62481e-23
8.60399e-22
1.875e-06
2.11699e-23
7.17933e-22
1.875e-06
1.39414e-22
6.422e-22
1.875e-06
1.24817e-23
5.87133e-22
1.875e-06
-7.12238e-23
5.39562e-22
1.875e-06
2.77769e-23
7.60643e-22
1.875e-06
-3.48866e-23
7.19622e-22
1.875e-06
9.16014e-24
7.01403e-22
1.875e-06
-2.04748e-23
6.42797e-22
1.875e-06
-5.75999e-23
5.69505e-22
1.875e-06
9.08357e-23
4.6999e-22
1.875e-06
1.42116e-22
5.02446e-22
1.875e-06
1.40009e-22
3.8646e-22
1.875e-06
-9.37403e-23
2.87307e-22
1.875e-06
-7.19283e-23
1.6729e-22
1.875e-06
-3.0591e-24
1.53305e-22
1.875e-06
3.48273e-24
1.99571e-22
1.875e-06
-2.11986e-23
3.18699e-22
1.875e-06
7.23571e-23
2.20136e-22
1.875e-06
3.28003e-23
2.81506e-23
1.875e-06
5.03241e-23
1.92755e-23
1.875e-06
-1.52142e-23
-4.61234e-23
1.875e-06
3.30234e-23
-2.37888e-22
3.61231e-23
-3.31979e-22
1.875e-06
1.35039e-22
9.02573e-22
1.875e-06
1.20344e-23
1.18305e-21
1.875e-06
-7.38718e-23
1.09846e-21
1.875e-06
-7.91522e-23
1.32002e-21
1.875e-06
-9.5549e-23
1.42695e-21
1.875e-06
-5.47258e-23
1.55297e-21
1.875e-06
2.41319e-23
1.53921e-21
1.875e-06
-3.82279e-23
1.46755e-21
1.875e-06
-1.08491e-22
1.27757e-21
1.875e-06
1.39842e-23
1.41505e-21
1.875e-06
-2.06015e-22
1.25127e-21
1.875e-06
4.79914e-22
1.26856e-21
1.875e-06
6.28413e-23
1.11655e-21
1.875e-06
1.33903e-22
1.17094e-21
1.875e-06
3.68049e-23
1.13691e-21
1.875e-06
-1.02325e-22
9.74475e-22
1.875e-06
-7.91078e-23
8.27971e-22
1.875e-06
-1.03937e-22
6.5455e-22
1.875e-06
-1.23728e-22
6.5032e-22
1.875e-06
-2.45347e-23
6.22375e-22
1.875e-06
-8.01391e-23
5.97079e-22
1.875e-06
-1.11356e-22
6.80881e-22
1.875e-06
-2.0619e-23
8.28732e-22
1.875e-06
8.84605e-23
7.04445e-22
1.875e-06
1.72445e-22
6.22249e-22
1.875e-06
6.34513e-23
5.5025e-22
1.875e-06
-6.34959e-23
4.38192e-22
1.875e-06
-3.80109e-23
5.12875e-22
1.875e-06
-1.97365e-22
3.35385e-22
1.875e-06
2.16413e-22
2.40389e-22
1.875e-06
1.47799e-23
2.53793e-22
1.875e-06
2.93274e-23
2.22725e-22
1.875e-06
1.45597e-22
1.8288e-22
1.875e-06
-9.28429e-23
2.13e-22
1.875e-06
5.57983e-23
2.50062e-22
1.875e-06
1.11665e-22
1.3627e-22
1.875e-06
-5.10523e-23
-2.98818e-23
1.875e-06
3.47205e-23
-2.15206e-22
1.875e-06
-4.2035e-23
-3.96128e-22
-5.96929e-24
-3.20585e-22
1.875e-06
2.07321e-22
7.10861e-22
1.875e-06
2.35427e-22
1.06661e-21
1.875e-06
4.12088e-23
1.12944e-21
1.875e-06
-8.38515e-23
1.3078e-21
1.875e-06
-9.63454e-24
1.38223e-21
1.875e-06
-3.05766e-23
1.52043e-21
1.875e-06
-3.76368e-23
1.47118e-21
1.875e-06
-3.13709e-23
1.44867e-21
1.875e-06
-1.22617e-22
1.35481e-21
1.875e-06
-7.22839e-23
1.4554e-21
1.875e-06
1.41803e-23
1.35858e-21
1.875e-06
8.92939e-23
1.29433e-21
1.875e-06
7.41331e-23
1.22966e-21
1.875e-06
1.15198e-22
1.09062e-21
1.875e-06
-1.01895e-22
9.9974e-22
1.875e-06
-9.49735e-23
9.52185e-22
1.875e-06
-1.40322e-22
8.27159e-22
1.875e-06
-4.107e-23
7.37785e-22
1.875e-06
-2.2853e-23
7.76014e-22
1.875e-06
-1.02745e-22
6.80896e-22
1.875e-06
-8.65218e-23
6.36214e-22
1.875e-06
-1.06177e-22
7.49201e-22
1.875e-06
2.10619e-23
7.71773e-22
1.875e-06
4.4444e-23
6.55577e-22
1.875e-06
7.91513e-23
5.1636e-22
1.875e-06
1.26058e-22
5.63545e-22
1.875e-06
-1.60986e-24
3.9225e-22
1.875e-06
4.98659e-23
4.54876e-22
1.875e-06
8.10458e-24
4.41856e-22
1.875e-06
-4.69763e-23
2.53626e-22
1.875e-06
-3.54826e-23
2.34354e-22
1.875e-06
5.25713e-23
1.7559e-22
1.875e-06
-5.3665e-23
1.31742e-22
1.875e-06
7.6022e-23
3.44704e-22
1.875e-06
1.38628e-22
3.02775e-22
1.875e-06
1.45984e-22
7.91434e-23
1.875e-06
9.45019e-23
-5.54581e-23
1.875e-06
-6.44197e-24
-3.03603e-22
1.875e-06
-3.51539e-23
-3.53004e-22
-1.24093e-22
-2.41695e-22
1.875e-06
1.12427e-22
5.80098e-22
1.875e-06
1.28025e-22
9.61893e-22
1.875e-06
4.68819e-23
1.17635e-21
1.875e-06
6.03564e-23
1.32039e-21
1.875e-06
-4.53965e-23
1.32588e-21
1.875e-06
1.0231e-22
1.51772e-21
1.875e-06
2.77312e-23
1.44481e-21
1.875e-06
-1.00576e-22
1.38931e-21
1.875e-06
-1.01559e-23
1.47918e-21
1.875e-06
-1.58394e-22
1.48581e-21
1.875e-06
-1.059e-22
1.37944e-21
1.875e-06
-3.07931e-23
1.17984e-21
1.875e-06
1.60757e-23
1.30451e-21
1.875e-06
-1.65117e-22
1.07285e-21
1.875e-06
-7.98673e-23
1.018e-21
1.875e-06
-1.70139e-22
9.52407e-22
1.875e-06
-1.52598e-22
8.1071e-22
1.875e-06
-1.86115e-22
7.52369e-22
1.875e-06
-2.03271e-22
7.03171e-22