/*--------------------------------*- C++ -*----------------------------------*\
| =========                 |                                                 |
| \\      /  F ield         | OpenFOAM: The Open Source CFD Toolbox           |
|  \\    /   O peration     | Version:  v2012                                 |
|   \\  /    A nd           | Website:  www.openfoam.com                      |
|    \\/     M anipulation  |                                                 |
\*---------------------------------------------------------------------------*/
FoamFile
{
    version     2.0;
    format      ascii;
    class       volVectorField;
    location    "47";
    object      U;
}
// * * * * * * * * * * * * * * * * * * * * * * * * * * * * * * * * * * * * * //

dimensions      [0 1 -1 0 0 0 0];


internalField   nonuniform List<vector> 
64000
(
(0.003 2.98952e-19 2.64994e-19)
(0.003 5.26056e-19 4.89401e-19)
(0.003 5.38715e-19 5.97913e-19)
(0.003 5.3071e-19 6.20973e-19)
(0.003 6.42572e-19 5.87883e-19)
(0.003 6.20068e-19 5.40195e-19)
(0.003 5.70261e-19 5.47605e-19)
(0.003 4.36786e-19 5.03812e-19)
(0.003 4.1947e-19 5.7567e-19)
(0.003 6.53026e-19 5.11289e-19)
(0.003 6.5481e-19 4.31973e-19)
(0.003 5.82511e-19 5.91028e-19)
(0.003 5.27223e-19 5.83186e-19)
(0.003 5.01576e-19 4.4351e-19)
(0.003 4.57234e-19 5.25205e-19)
(0.003 4.19955e-19 5.51477e-19)
(0.003 3.35702e-19 3.9987e-19)
(0.003 2.05104e-19 2.38103e-19)
(0.003 1.89262e-19 2.0848e-19)
(0.003 2.27638e-19 3.08977e-19)
(0.003 1.46521e-19 2.86042e-19)
(0.003 2.71183e-19 3.29902e-19)
(0.003 4.38884e-19 3.72428e-19)
(0.003 5.03833e-19 2.86368e-19)
(0.003 4.04588e-19 1.93059e-19)
(0.003 2.68049e-19 1.71759e-19)
(0.003 1.86788e-19 1.92717e-19)
(0.003 2.9485e-19 2.83008e-19)
(0.003 2.96447e-19 2.63555e-19)
(0.003 1.43204e-19 2.40405e-19)
(0.003 4.45535e-20 2.02768e-19)
(0.003 1.00195e-19 1.84259e-19)
(0.003 2.23264e-19 2.1003e-19)
(0.003 1.75346e-19 2.39281e-19)
(0.003 1.15911e-19 2.28329e-19)
(0.003 6.67878e-20 1.51042e-19)
(0.003 -3.74469e-20 8.14078e-20)
(0.003 -5.76574e-20 1.60301e-19)
(0.003 -5.94931e-20 2.01727e-19)
(0.003 -4.33712e-20 1.27064e-19)
(0.003 2.39218e-19 4.86012e-19)
(0.003 4.00327e-19 9.50254e-19)
(0.003 6.46128e-19 1.18434e-18)
(0.003 6.12135e-19 1.12217e-18)
(0.003 5.39552e-19 1.12712e-18)
(0.003 7.51812e-19 1.23964e-18)
(0.003 7.58567e-19 1.24101e-18)
(0.003 6.71998e-19 1.02925e-18)
(0.003 5.8974e-19 9.37862e-19)
(0.003 5.97055e-19 1.20739e-18)
(0.003 6.01095e-19 1.21564e-18)
(0.003 5.42708e-19 1.08371e-18)
(0.003 4.74356e-19 9.98338e-19)
(0.003 4.21113e-19 9.4303e-19)
(0.003 3.33995e-19 9.67238e-19)
(0.003 2.63989e-19 8.92567e-19)
(0.003 5.20662e-19 8.30614e-19)
(0.003 5.03041e-19 7.2588e-19)
(0.003 3.1896e-19 6.74459e-19)
(0.003 1.45862e-19 5.86315e-19)
(0.003 2.52284e-19 5.43628e-19)
(0.003 4.25419e-19 6.67455e-19)
(0.003 4.3483e-19 6.98335e-19)
(0.003 4.45885e-19 7.10136e-19)
(0.003 3.57663e-19 5.74229e-19)
(0.003 3.27754e-19 4.68839e-19)
(0.003 3.68423e-19 4.56242e-19)
(0.003 2.56603e-19 5.23267e-19)
(0.003 2.09874e-19 5.54638e-19)
(0.003 2.11984e-19 4.27491e-19)
(0.003 1.57719e-19 2.79245e-19)
(0.003 1.20609e-19 2.58445e-19)
(0.003 1.46476e-19 3.85483e-19)
(0.003 1.16243e-19 3.72833e-19)
(0.003 3.15415e-20 3.50124e-19)
(0.003 -8.55963e-20 2.5641e-19)
(0.003 -3.69406e-20 4.61408e-20)
(0.003 -3.71089e-20 3.82419e-20)
(0.003 -7.27165e-20 9.47228e-20)
(0.003 -1.05091e-19 8.47441e-20)
(0.003 1.46315e-19 5.80008e-19)
(0.003 1.58146e-19 1.0106e-18)
(0.003 2.89801e-19 1.24104e-18)
(0.003 5.02513e-19 1.31352e-18)
(0.003 4.76798e-19 1.34304e-18)
(0.003 6.32719e-19 1.46102e-18)
(0.003 6.95533e-19 1.49735e-18)
(0.003 5.62697e-19 1.4313e-18)
(0.003 5.77156e-19 1.34487e-18)
(0.003 4.41938e-19 1.31591e-18)
(0.003 4.04758e-19 1.23979e-18)
(0.003 4.11913e-19 1.18688e-18)
(0.003 4.14214e-19 1.12405e-18)
(0.003 3.44487e-19 1.10221e-18)
(0.003 3.23424e-19 1.06563e-18)
(0.003 3.06138e-19 9.84247e-19)
(0.003 3.88341e-19 1.00757e-18)
(0.003 5.30359e-19 9.10596e-19)
(0.003 3.37228e-19 7.53604e-19)
(0.003 2.2737e-19 6.38615e-19)
(0.003 3.17886e-19 7.27391e-19)
(0.003 3.36013e-19 7.75847e-19)
(0.003 3.84726e-19 7.81552e-19)
(0.003 2.89519e-19 7.65851e-19)
(0.003 3.3224e-19 6.41883e-19)
(0.003 2.55579e-19 5.95564e-19)
(0.003 2.34811e-19 5.9194e-19)
(0.003 1.28716e-19 6.57698e-19)
(0.003 1.7435e-19 5.61081e-19)
(0.003 2.70093e-19 5.23316e-19)
(0.003 2.59757e-19 5.01967e-19)
(0.003 1.33033e-19 3.60859e-19)
(0.003 -2.23352e-20 3.58292e-19)
(0.003 -2.81628e-20 3.63768e-19)
(0.003 3.96575e-20 3.4631e-19)
(0.003 4.02329e-20 2.38925e-19)
(0.003 4.01652e-20 8.21164e-20)
(0.003 -1.55505e-20 3.02334e-20)
(0.003 -7.26378e-20 5.85743e-20)
(0.003 -1.16629e-19 4.55164e-20)
(0.003 3.70831e-19 7.10058e-19)
(0.003 2.82221e-19 1.17035e-18)
(0.003 1.58665e-19 1.37526e-18)
(0.003 3.66124e-19 1.49611e-18)
(0.003 4.74116e-19 1.4977e-18)
(0.003 5.15133e-19 1.59788e-18)
(0.003 5.15894e-19 1.60661e-18)
(0.003 4.73807e-19 1.41775e-18)
(0.003 4.09817e-19 1.381e-18)
(0.003 4.75236e-19 1.42256e-18)
(0.003 4.72765e-19 1.39682e-18)
(0.003 3.2385e-19 1.38109e-18)
(0.003 3.01718e-19 1.22288e-18)
(0.003 3.12903e-19 1.16029e-18)
(0.003 5.06887e-19 1.17516e-18)
(0.003 6.30089e-19 1.08362e-18)
(0.003 3.03953e-19 1.0004e-18)
(0.003 2.6064e-19 1.03233e-18)
(0.003 3.2266e-19 8.63686e-19)
(0.003 2.64298e-19 6.85546e-19)
(0.003 2.63875e-19 8.08164e-19)
(0.003 2.66387e-19 8.9739e-19)
(0.003 3.06907e-19 8.95533e-19)
(0.003 2.93182e-19 8.5665e-19)
(0.003 3.34788e-19 7.77906e-19)
(0.003 1.91322e-19 6.15444e-19)
(0.003 1.40947e-19 5.60184e-19)
(0.003 1.37107e-19 5.47549e-19)
(0.003 2.00634e-19 5.82803e-19)
(0.003 1.34596e-19 6.06535e-19)
(0.003 1.14792e-19 5.11132e-19)
(0.003 6.9552e-20 3.93062e-19)
(0.003 -5.881e-20 4.35022e-19)
(0.003 -6.37537e-20 3.58439e-19)
(0.003 6.51037e-20 2.87957e-19)
(0.003 7.42312e-20 2.39741e-19)
(0.003 6.51512e-20 1.40092e-19)
(0.003 5.10527e-20 8.36627e-20)
(0.003 -3.22895e-20 7.51001e-20)
(0.003 -8.28226e-21 6.04677e-20)
(0.003 1.70491e-19 7.37168e-19)
(0.003 2.43829e-19 1.24708e-18)
(0.003 1.52039e-19 1.4122e-18)
(0.003 2.15959e-19 1.60363e-18)
(0.003 3.23812e-19 1.67964e-18)
(0.003 2.30834e-19 1.71813e-18)
(0.003 1.72813e-19 1.65541e-18)
(0.003 4.97371e-19 1.479e-18)
(0.003 5.89393e-19 1.37176e-18)
(0.003 5.2567e-19 1.51433e-18)
(0.003 4.02852e-19 1.47628e-18)
(0.003 2.59822e-19 1.29252e-18)
(0.003 3.26894e-19 1.24635e-18)
(0.003 3.05377e-19 1.27695e-18)
(0.003 3.62958e-19 1.32615e-18)
(0.003 4.87122e-19 1.26959e-18)
(0.003 2.91391e-19 1.06578e-18)
(0.003 1.213e-19 9.7009e-19)
(0.003 2.42846e-19 9.09472e-19)
(0.003 3.71793e-19 7.57239e-19)
(0.003 3.20454e-19 7.99243e-19)
(0.003 2.4547e-19 9.59651e-19)
(0.003 2.08951e-19 1.0115e-18)
(0.003 2.57186e-19 9.30753e-19)
(0.003 2.04663e-19 8.15003e-19)
(0.003 1.82415e-19 6.73164e-19)
(0.003 1.50819e-19 5.65341e-19)
(0.003 1.2797e-19 6.12605e-19)
(0.003 1.33088e-19 6.3823e-19)
(0.003 3.52355e-20 5.07125e-19)
(0.003 8.28743e-20 4.43642e-19)
(0.003 1.00473e-19 4.35847e-19)
(0.003 -4.09029e-20 3.64754e-19)
(0.003 -5.79109e-20 2.97343e-19)
(0.003 -3.53251e-21 2.81731e-19)
(0.003 -2.84668e-20 2.54257e-19)
(0.003 3.21539e-20 1.78403e-19)
(0.003 6.67753e-20 5.52286e-20)
(0.003 -6.38801e-20 4.08479e-20)
(0.003 -6.19808e-20 9.85994e-20)
(0.003 3.38778e-20 7.43011e-19)
(0.003 1.89384e-19 1.28437e-18)
(0.003 1.42814e-19 1.4663e-18)
(0.003 1.13935e-19 1.69187e-18)
(0.003 1.99113e-19 1.80529e-18)
(0.003 2.06498e-19 1.7598e-18)
(0.003 2.05931e-19 1.69626e-18)
(0.003 4.39122e-19 1.73082e-18)
(0.003 5.91768e-19 1.60197e-18)
(0.003 4.24731e-19 1.4285e-18)
(0.003 3.71616e-19 1.4201e-18)
(0.003 4.19833e-19 1.44686e-18)
(0.003 3.78492e-19 1.35389e-18)
(0.003 3.57841e-19 1.21283e-18)
(0.003 2.15491e-19 1.35619e-18)
(0.003 1.79482e-19 1.3446e-18)
(0.003 1.50212e-19 1.11768e-18)
(0.003 -1.62005e-21 9.54402e-19)
(0.003 9.0745e-20 8.81016e-19)
(0.003 3.06095e-19 8.05133e-19)
(0.003 3.4679e-19 8.75257e-19)
(0.003 3.79013e-19 1.02378e-18)
(0.003 3.17387e-19 1.00865e-18)
(0.003 2.68462e-19 9.56358e-19)
(0.003 1.83124e-19 8.11345e-19)
(0.003 2.46412e-19 6.6728e-19)
(0.003 2.07145e-19 6.51929e-19)
(0.003 3.57658e-20 6.01852e-19)
(0.003 -8.97227e-20 6.06449e-19)
(0.003 -1.5978e-20 6.09744e-19)
(0.003 2.1325e-19 5.24588e-19)
(0.003 2.36811e-19 4.07236e-19)
(0.003 -5.07311e-20 2.80525e-19)
(0.003 -7.30864e-20 2.88691e-19)
(0.003 -5.49195e-20 3.32931e-19)
(0.003 -2.21562e-20 1.78905e-19)
(0.003 -5.25962e-21 1.08174e-19)
(0.003 6.84439e-20 1.51282e-20)
(0.003 1.57744e-19 -2.01434e-20)
(0.003 1.22611e-19 1.00807e-19)
(0.003 4.93799e-20 9.1191e-19)
(0.003 1.93833e-19 1.48933e-18)
(0.003 2.09524e-19 1.50244e-18)
(0.003 8.73425e-20 1.65781e-18)
(0.003 1.58359e-19 1.84955e-18)
(0.003 1.91992e-19 1.89989e-18)
(0.003 2.84176e-19 1.77109e-18)
(0.003 5.07964e-19 1.69615e-18)
(0.003 5.50421e-19 1.7215e-18)
(0.003 3.92441e-19 1.64431e-18)
(0.003 2.66351e-19 1.53275e-18)
(0.003 2.66565e-19 1.42247e-18)
(0.003 2.85598e-19 1.39217e-18)
(0.003 3.37839e-19 1.37029e-18)
(0.003 2.13596e-19 1.36018e-18)
(0.003 1.62867e-19 1.33309e-18)
(0.003 1.79352e-19 1.08447e-18)
(0.003 1.61658e-19 8.59212e-19)
(0.003 1.70303e-19 8.28464e-19)
(0.003 1.32423e-19 8.52591e-19)
(0.003 1.95841e-19 9.75032e-19)
(0.003 2.56456e-19 1.08173e-18)
(0.003 2.47395e-19 1.04751e-18)
(0.003 1.96154e-19 1.01378e-18)
(0.003 1.13745e-19 8.187e-19)
(0.003 2.55717e-19 7.55257e-19)
(0.003 1.84e-19 7.13151e-19)
(0.003 1.31817e-19 5.62693e-19)
(0.003 4.49013e-20 5.32204e-19)
(0.003 3.01799e-20 5.27248e-19)
(0.003 7.10076e-20 5.44438e-19)
(0.003 4.72582e-20 4.27018e-19)
(0.003 5.47412e-20 1.94e-19)
(0.003 1.101e-19 1.83682e-19)
(0.003 6.42275e-20 2.66876e-19)
(0.003 6.37405e-20 2.34344e-19)
(0.003 3.2051e-21 1.30747e-19)
(0.003 6.65149e-20 4.40156e-20)
(0.003 1.12432e-19 4.84441e-20)
(0.003 8.19468e-20 1.07103e-19)
(0.003 1.62055e-19 7.91032e-19)
(0.003 1.94068e-19 1.35791e-18)
(0.003 1.8913e-19 1.52718e-18)
(0.003 1.82299e-19 1.73514e-18)
(0.003 1.91614e-19 1.95124e-18)
(0.003 2.47586e-19 1.94954e-18)
(0.003 3.60541e-19 1.78534e-18)
(0.003 3.29655e-19 1.83949e-18)
(0.003 3.06313e-19 1.82468e-18)
(0.003 3.61665e-19 1.72724e-18)
(0.003 1.91089e-19 1.59306e-18)
(0.003 1.61318e-19 1.47789e-18)
(0.003 2.64537e-19 1.3758e-18)
(0.003 2.66754e-19 1.32797e-18)
(0.003 2.52628e-19 1.37984e-18)
(0.003 1.94709e-19 1.4044e-18)
(0.003 1.21386e-19 1.15493e-18)
(0.003 1.72155e-19 8.596e-19)
(0.003 2.99363e-19 7.51674e-19)
(0.003 2.84125e-19 7.20066e-19)
(0.003 1.26962e-19 8.85243e-19)
(0.003 7.74434e-20 1.09775e-18)
(0.003 1.30446e-19 1.11884e-18)
(0.003 7.68622e-20 1.0929e-18)
(0.003 1.21793e-19 9.15591e-19)
(0.003 2.1385e-19 7.89058e-19)
(0.003 2.82709e-19 6.86677e-19)
(0.003 2.56614e-19 6.14603e-19)
(0.003 1.58848e-19 4.65947e-19)
(0.003 1.31806e-19 4.55279e-19)
(0.003 -2.40472e-20 5.4706e-19)
(0.003 -4.50799e-20 4.50938e-19)
(0.003 6.28345e-20 3.26927e-19)
(0.003 9.77542e-20 3.18929e-19)
(0.003 1.96489e-19 2.66341e-19)
(0.003 9.79309e-20 8.87133e-20)
(0.003 -5.85419e-20 -1.9818e-20)
(0.003 -2.91135e-20 1.72266e-20)
(0.003 -5.10653e-21 2.78718e-20)
(0.003 -5.14345e-21 2.97649e-20)
(0.003 -5.70791e-20 8.03004e-19)
(0.003 -2.75611e-20 1.5474e-18)
(0.003 1.22783e-19 1.68273e-18)
(0.003 1.72793e-19 1.79905e-18)
(0.003 2.54194e-19 1.89608e-18)
(0.003 4.06963e-19 1.97173e-18)
(0.003 3.50335e-19 1.91355e-18)
(0.003 1.26928e-19 1.83232e-18)
(0.003 9.58786e-20 1.83076e-18)
(0.003 2.74945e-19 1.83092e-18)
(0.003 2.48003e-19 1.61158e-18)
(0.003 1.53597e-19 1.49597e-18)
(0.003 2.11349e-19 1.4472e-18)
(0.003 1.83039e-19 1.34868e-18)
(0.003 2.58312e-19 1.35851e-18)
(0.003 1.86501e-19 1.35741e-18)
(0.003 2.30994e-19 1.17046e-18)
(0.003 2.24896e-19 8.72926e-19)
(0.003 9.89513e-20 9.09321e-19)
(0.003 1.80035e-19 9.18963e-19)
(0.003 2.32112e-19 8.79008e-19)
(0.003 1.8944e-19 1.05187e-18)
(0.003 2.40675e-19 1.13484e-18)
(0.003 2.16064e-19 1.12156e-18)
(0.003 2.18911e-19 8.80779e-19)
(0.003 1.53577e-19 7.84237e-19)
(0.003 1.16507e-19 7.35616e-19)
(0.003 1.50097e-19 6.406e-19)
(0.003 1.75061e-19 4.78013e-19)
(0.003 1.571e-19 5.05351e-19)
(0.003 -5.03621e-20 5.28109e-19)
(0.003 -7.74988e-20 4.43246e-19)
(0.003 8.32158e-20 3.09913e-19)
(0.003 9.73697e-20 2.64609e-19)
(0.003 8.31572e-20 6.77466e-20)
(0.003 1.51685e-19 -1.96946e-20)
(0.003 1.26333e-19 3.87218e-20)
(0.003 -3.39151e-20 -8.86591e-20)
(0.003 -9.62957e-20 -1.67379e-19)
(0.003 -7.26385e-20 -1.30263e-19)
(0.003 -1.95286e-19 8.52756e-19)
(0.003 -3.18661e-20 1.39756e-18)
(0.003 1.80682e-19 1.61444e-18)
(0.003 2.99508e-19 1.85297e-18)
(0.003 2.16994e-19 2.02179e-18)
(0.003 1.91732e-19 2.02769e-18)
(0.003 3.13175e-19 2.00429e-18)
(0.003 2.3551e-19 1.94692e-18)
(0.003 1.76879e-19 1.79524e-18)
(0.003 1.51723e-19 1.77698e-18)
(0.003 2.97854e-19 1.66256e-18)
(0.003 1.7717e-19 1.46316e-18)
(0.003 6.13476e-20 1.39141e-18)
(0.003 1.37106e-19 1.35715e-18)
(0.003 2.42092e-19 1.41354e-18)
(0.003 2.25676e-19 1.39059e-18)
(0.003 2.11754e-19 1.17466e-18)
(0.003 1.78486e-19 9.31729e-19)
(0.003 -2.4185e-20 8.33857e-19)
(0.003 7.31346e-20 8.21143e-19)
(0.003 3.11379e-19 9.60258e-19)
(0.003 4.23911e-19 1.15587e-18)
(0.003 2.42785e-19 1.19292e-18)
(0.003 2.5517e-19 1.14496e-18)
(0.003 3.94666e-19 9.85954e-19)
(0.003 1.7551e-19 7.69659e-19)
(0.003 -1.17338e-19 5.7244e-19)
(0.003 -7.64103e-20 6.16501e-19)
(0.003 8.03109e-20 6.33142e-19)
(0.003 1.60283e-19 5.13185e-19)
(0.003 5.26343e-20 3.9563e-19)
(0.003 7.53669e-21 4.56438e-19)
(0.003 7.05398e-20 4.18096e-19)
(0.003 2.82172e-21 3.02979e-19)
(0.003 -8.7606e-20 1.65842e-19)
(0.003 1.39643e-19 -1.29176e-19)
(0.003 2.52194e-19 -3.65885e-19)
(0.003 4.89506e-20 -3.14853e-19)
(0.003 6.71765e-21 -1.95876e-19)
(0.003 2.25347e-20 -1.93337e-19)
(0.003 4.63746e-20 1.01639e-18)
(0.003 1.80704e-19 1.56135e-18)
(0.003 2.51103e-19 1.72486e-18)
(0.003 2.66518e-19 1.88908e-18)
(0.003 1.92613e-19 1.92914e-18)
(0.003 1.73126e-19 1.99627e-18)
(0.003 1.84694e-19 2.08745e-18)
(0.003 2.37974e-19 2.03541e-18)
(0.003 1.56887e-19 1.92504e-18)
(0.003 1.58546e-19 1.74374e-18)
(0.003 2.5897e-19 1.54605e-18)
(0.003 1.92542e-19 1.43388e-18)
(0.003 9.12715e-20 1.36443e-18)
(0.003 1.729e-19 1.24435e-18)
(0.003 1.73675e-19 1.39898e-18)
(0.003 2.88432e-19 1.44055e-18)
(0.003 2.33368e-19 1.17368e-18)
(0.003 1.1171e-19 9.11714e-19)
(0.003 6.8553e-20 8.48946e-19)
(0.003 8.11091e-20 9.42917e-19)
(0.003 2.6039e-19 1.07271e-18)
(0.003 3.54308e-19 1.21524e-18)
(0.003 2.4743e-19 1.23121e-18)
(0.003 2.31339e-19 1.17454e-18)
(0.003 2.26365e-19 9.52238e-19)
(0.003 9.75482e-20 6.62496e-19)
(0.003 4.85091e-20 6.27614e-19)
(0.003 3.8477e-20 6.60349e-19)
(0.003 1.40745e-20 5.79578e-19)
(0.003 3.56663e-20 6.10863e-19)
(0.003 2.30364e-20 5.49785e-19)
(0.003 4.45813e-20 4.52631e-19)
(0.003 1.07448e-19 3.18609e-19)
(0.003 4.03159e-20 2.52509e-19)
(0.003 -5.46195e-20 1.4902e-19)
(0.003 -7.81972e-20 -9.37691e-20)
(0.003 -1.09153e-19 -4.38477e-19)
(0.003 1.7217e-20 -2.8455e-19)
(0.003 9.31857e-20 -2.55746e-19)
(0.003 1.00164e-19 -2.64286e-19)
(0.003 2.33457e-19 1.03817e-18)
(0.003 2.19743e-19 1.63409e-18)
(0.003 1.41444e-19 1.75501e-18)
(0.003 1.53775e-19 1.81216e-18)
(0.003 2.63008e-19 1.99969e-18)
(0.003 2.13265e-19 2.09836e-18)
(0.003 1.73674e-19 2.02483e-18)
(0.003 2.97097e-19 2.02183e-18)
(0.003 1.3757e-19 1.83381e-18)
(0.003 7.94704e-20 1.8161e-18)
(0.003 2.20278e-19 1.63273e-18)
(0.003 2.33977e-19 1.40149e-18)
(0.003 1.70897e-19 1.39011e-18)
(0.003 2.1847e-19 1.29258e-18)
(0.003 1.36969e-19 1.31273e-18)
(0.003 1.25891e-19 1.38021e-18)
(0.003 1.71128e-19 1.251e-18)
(0.003 1.98828e-19 9.9684e-19)
(0.003 3.03586e-19 8.94308e-19)
(0.003 2.40423e-19 9.13918e-19)
(0.003 1.3194e-19 1.10478e-18)
(0.003 1.03321e-19 1.21732e-18)
(0.003 1.0948e-19 1.13139e-18)
(0.003 1.8787e-19 1.11252e-18)
(0.003 4.56598e-20 1.04322e-18)
(0.003 6.72491e-22 8.00364e-19)
(0.003 7.70222e-20 6.96514e-19)
(0.003 5.66007e-20 6.65984e-19)
(0.003 2.12142e-20 5.18308e-19)
(0.003 -1.54175e-19 5.8005e-19)
(0.003 2.93135e-20 5.62722e-19)
(0.003 1.58839e-19 4.84671e-19)
(0.003 -4.64636e-21 3.53449e-19)
(0.003 9.0242e-20 1.84576e-19)
(0.003 1.7606e-19 4.12221e-20)
(0.003 -9.60315e-20 -1.8126e-19)
(0.003 -2.46766e-19 -3.93803e-19)
(0.003 -8.03094e-20 -2.98307e-19)
(0.003 2.2483e-20 -3.25903e-19)
(0.003 2.92979e-20 -4.38582e-19)
(0.003 2.45131e-19 1.05398e-18)
(0.003 2.33787e-19 1.62128e-18)
(0.003 2.00119e-19 1.78128e-18)
(0.003 2.38927e-19 1.9422e-18)
(0.003 1.18177e-19 2.10294e-18)
(0.003 4.93796e-20 2.08523e-18)
(0.003 1.96195e-19 2.00095e-18)
(0.003 1.55553e-19 1.9724e-18)
(0.003 1.81277e-19 1.80433e-18)
(0.003 1.40477e-19 1.72628e-18)
(0.003 4.98742e-20 1.6253e-18)
(0.003 2.23507e-19 1.50889e-18)
(0.003 2.81475e-19 1.45757e-18)
(0.003 2.48323e-19 1.41947e-18)
(0.003 2.11723e-19 1.36598e-18)
(0.003 1.38353e-19 1.31096e-18)
(0.003 1.49974e-19 1.13398e-18)
(0.003 1.21913e-19 9.31584e-19)
(0.003 1.44228e-19 9.53076e-19)
(0.003 2.78209e-19 1.07435e-18)
(0.003 2.30634e-19 1.0419e-18)
(0.003 9.78838e-20 1.11943e-18)
(0.003 1.26304e-19 1.15785e-18)
(0.003 6.44363e-20 1.13952e-18)
(0.003 -9.96111e-20 9.7781e-19)
(0.003 -8.43141e-20 7.73374e-19)
(0.003 -1.03199e-19 6.97362e-19)
(0.003 1.47945e-21 6.30289e-19)
(0.003 1.49557e-20 5.77818e-19)
(0.003 -1.20367e-19 5.50942e-19)
(0.003 6.90625e-21 5.68274e-19)
(0.003 1.0482e-19 5.20559e-19)
(0.003 1.67486e-20 3.37045e-19)
(0.003 1.00989e-19 2.5841e-19)
(0.003 1.32399e-19 8.10181e-20)
(0.003 -4.29935e-21 -3.02671e-19)
(0.003 -5.63693e-20 -3.74868e-19)
(0.003 -1.38625e-19 -2.66254e-19)
(0.003 -2.41128e-19 -2.6417e-19)
(0.003 -2.13602e-19 -3.75753e-19)
(0.003 -1.77417e-20 1.08263e-18)
(0.003 1.9335e-19 1.70983e-18)
(0.003 2.69807e-19 1.82201e-18)
(0.003 1.43467e-19 1.96573e-18)
(0.003 -1.81107e-20 2.03348e-18)
(0.003 -1.99885e-20 2.07453e-18)
(0.003 5.46707e-20 2.02494e-18)
(0.003 1.47974e-19 1.87498e-18)
(0.003 1.84716e-19 1.76523e-18)
(0.003 5.84246e-20 1.80919e-18)
(0.003 1.01735e-20 1.66696e-18)
(0.003 2.38108e-19 1.51745e-18)
(0.003 2.93584e-19 1.54442e-18)
(0.003 1.6012e-19 1.42678e-18)
(0.003 1.06468e-19 1.36876e-18)
(0.003 7.82983e-20 1.29868e-18)
(0.003 2.06969e-19 1.23419e-18)
(0.003 3.12803e-19 1.02176e-18)
(0.003 2.70503e-19 8.5028e-19)
(0.003 1.67971e-19 9.71615e-19)
(0.003 2.11012e-19 1.08741e-18)
(0.003 1.1351e-19 1.16063e-18)
(0.003 5.95917e-20 1.15889e-18)
(0.003 -2.35397e-20 1.1784e-18)
(0.003 -3.50088e-20 1.01635e-18)
(0.003 2.41371e-21 7.87715e-19)
(0.003 2.00234e-20 5.88994e-19)
(0.003 5.75161e-21 6.36324e-19)
(0.003 -6.09988e-20 6.30127e-19)
(0.003 -9.55973e-20 5.06087e-19)
(0.003 -2.14962e-19 5.57271e-19)
(0.003 -1.0299e-19 5.40009e-19)
(0.003 6.15822e-20 3.84159e-19)
(0.003 -5.35122e-20 2.55604e-19)
(0.003 -3.82641e-20 6.11683e-20)
(0.003 -2.2028e-20 -3.35628e-19)
(0.003 -7.71982e-20 -5.19565e-19)
(0.003 -9.74357e-20 -4.09053e-19)
(0.003 -1.76132e-19 -3.392e-19)
(0.003 -2.53579e-19 -3.94399e-19)
(0.003 -1.94765e-19 1.15697e-18)
(0.003 -1.42269e-19 1.73582e-18)
(0.003 1.5062e-19 1.89429e-18)
(0.003 5.6463e-20 1.90649e-18)
(0.003 1.58217e-20 2.02328e-18)
(0.003 2.35932e-20 2.04304e-18)
(0.003 2.0589e-20 2.00343e-18)
(0.003 9.12058e-20 1.90957e-18)
(0.003 9.44049e-20 1.8437e-18)
(0.003 -4.39619e-20 1.80278e-18)
(0.003 7.9215e-20 1.68651e-18)
(0.003 2.25129e-19 1.6324e-18)
(0.003 2.15386e-19 1.60734e-18)
(0.003 9.5543e-20 1.43742e-18)
(0.003 1.1913e-19 1.28873e-18)
(0.003 1.26292e-19 1.27954e-18)
(0.003 1.81941e-19 1.19917e-18)
(0.003 3.23987e-19 1.03331e-18)
(0.003 2.51329e-19 9.76908e-19)
(0.003 1.86464e-19 9.8762e-19)
(0.003 2.47602e-19 1.10849e-18)
(0.003 1.44431e-19 1.14283e-18)
(0.003 -4.27144e-21 1.19899e-18)
(0.003 -1.73256e-19 1.12628e-18)
(0.003 -1.64819e-19 9.62322e-19)
(0.003 5.74438e-20 8.26747e-19)
(0.003 1.91487e-19 6.44808e-19)
(0.003 9.16197e-21 7.06729e-19)
(0.003 -1.32641e-19 6.28967e-19)
(0.003 -7.78509e-20 4.40126e-19)
(0.003 -9.32933e-20 4.49587e-19)
(0.003 -1.62953e-19 4.9616e-19)
(0.003 -3.99147e-20 4.50645e-19)
(0.003 -1.58458e-20 2.11165e-19)
(0.003 -4.60073e-20 4.83761e-20)
(0.003 -4.13831e-20 -2.29509e-19)
(0.003 -1.2184e-19 -4.783e-19)
(0.003 -7.95366e-20 -3.89308e-19)
(0.003 -1.06659e-19 -3.41761e-19)
(0.003 -2.58315e-19 -4.31261e-19)
(0.003 -7.88557e-20 1.09896e-18)
(0.003 -2.52029e-19 1.74839e-18)
(0.003 -1.69574e-19 2.03448e-18)
(0.003 -1.47344e-19 2.02916e-18)
(0.003 -1.93735e-20 2.04407e-18)
(0.003 4.69051e-20 2.06867e-18)
(0.003 -6.82031e-21 1.96195e-18)
(0.003 2.54028e-20 1.90395e-18)
(0.003 7.48216e-20 1.84858e-18)
(0.003 5.00898e-20 1.70363e-18)
(0.003 8.61648e-20 1.72159e-18)
(0.003 1.01752e-19 1.71715e-18)
(0.003 8.08236e-22 1.6736e-18)
(0.003 7.96052e-20 1.47844e-18)
(0.003 2.50854e-19 1.36199e-18)
(0.003 2.85361e-19 1.30341e-18)
(0.003 1.93507e-19 1.22047e-18)
(0.003 1.65841e-19 1.0006e-18)
(0.003 2.27482e-19 9.31347e-19)
(0.003 1.73453e-19 9.98652e-19)
(0.003 1.68145e-19 1.12418e-18)
(0.003 1.22295e-19 1.22593e-18)
(0.003 3.16873e-20 1.21425e-18)
(0.003 -2.04573e-19 9.8975e-19)
(0.003 -1.35017e-19 8.46451e-19)
(0.003 -8.8239e-20 8.57791e-19)
(0.003 2.4018e-20 6.9056e-19)
(0.003 8.7286e-20 5.92198e-19)
(0.003 -3.82375e-20 5.98528e-19)
(0.003 2.71437e-20 4.81748e-19)
(0.003 7.95072e-21 4.42006e-19)
(0.003 -5.64432e-20 4.61392e-19)
(0.003 -2.78749e-20 4.58074e-19)
(0.003 -9.94588e-20 3.21638e-19)
(0.003 -1.93089e-19 9.48927e-20)
(0.003 -1.28193e-19 -2.7396e-19)
(0.003 -1.36808e-20 -4.08973e-19)
(0.003 -1.09555e-19 -2.26689e-19)
(0.003 -1.32064e-19 -2.96383e-19)
(0.003 -1.07242e-19 -4.13789e-19)
(0.003 -1.7873e-19 1.00926e-18)
(0.003 -1.56857e-19 1.67042e-18)
(0.003 -1.26977e-19 1.95731e-18)
(0.003 -1.70064e-19 2.00059e-18)
(0.003 -1.15089e-19 2.09306e-18)
(0.003 1.85056e-20 2.08524e-18)
(0.003 -3.03243e-20 2.05803e-18)
(0.003 -1.08353e-19 2.05139e-18)
(0.003 6.14592e-20 1.95692e-18)
(0.003 2.75387e-19 1.76457e-18)
(0.003 1.3029e-19 1.70534e-18)
(0.003 1.67063e-20 1.72829e-18)
(0.003 -8.51731e-20 1.63904e-18)
(0.003 3.21759e-20 1.53982e-18)
(0.003 2.77855e-19 1.42503e-18)
(0.003 2.45154e-19 1.36081e-18)
(0.003 1.3015e-19 1.15576e-18)
(0.003 6.71276e-20 9.8877e-19)
(0.003 2.1152e-19 1.04666e-18)
(0.003 2.57142e-19 1.0035e-18)
(0.003 2.59276e-19 1.15684e-18)
(0.003 -1.32922e-21 1.13733e-18)
(0.003 -2.12471e-19 1.04777e-18)
(0.003 -1.69447e-19 8.56848e-19)
(0.003 -8.57523e-21 8.1897e-19)
(0.003 -1.41744e-20 8.07624e-19)
(0.003 7.11417e-20 6.97386e-19)
(0.003 1.11958e-19 7.33138e-19)
(0.003 5.45401e-20 6.09471e-19)
(0.003 1.05863e-19 4.87976e-19)
(0.003 7.91867e-20 4.4363e-19)
(0.003 -8.10172e-20 4.32198e-19)
(0.003 -1.99436e-19 4.28254e-19)
(0.003 -2.15709e-19 4.33562e-19)
(0.003 -3.27369e-19 2.57586e-19)
(0.003 -1.79797e-19 -1.54081e-19)
(0.003 9.31863e-20 -3.94615e-19)
(0.003 9.52128e-20 -1.84236e-19)
(0.003 -6.32684e-20 -3.57943e-19)
(0.003 -8.19495e-20 -4.95963e-19)
(0.003 -2.16887e-19 9.3892e-19)
(0.003 -2.19066e-19 1.69899e-18)
(0.003 -1.67873e-19 2.04793e-18)
(0.003 -1.92403e-20 2.04e-18)
(0.003 4.07257e-20 2.00168e-18)
(0.003 -5.47551e-20 2.08881e-18)
(0.003 -1.87575e-19 2.05276e-18)
(0.003 -1.88696e-19 2.02022e-18)
(0.003 2.30356e-20 2.0163e-18)
(0.003 1.53608e-19 1.89848e-18)
(0.003 1.27251e-19 1.73927e-18)
(0.003 3.11506e-20 1.68318e-18)
(0.003 7.83641e-20 1.61628e-18)
(0.003 7.23987e-20 1.54482e-18)
(0.003 1.43318e-19 1.53091e-18)
(0.003 1.49916e-19 1.41182e-18)
(0.003 9.2106e-20 1.18506e-18)
(0.003 1.59599e-19 9.32507e-19)
(0.003 2.74784e-19 9.65637e-19)
(0.003 3.00819e-19 1.00782e-18)
(0.003 6.23313e-20 1.12731e-18)
(0.003 -2.2383e-19 1.17341e-18)
(0.003 -2.33509e-19 9.82772e-19)
(0.003 -8.06211e-20 8.6354e-19)
(0.003 -6.36563e-20 8.7384e-19)
(0.003 5.39809e-20 9.05279e-19)
(0.003 1.39327e-19 8.30603e-19)
(0.003 6.11197e-20 6.66252e-19)
(0.003 9.73249e-20 5.41332e-19)
(0.003 1.00276e-19 5.17045e-19)
(0.003 8.88379e-20 4.37842e-19)
(0.003 -9.5712e-20 3.67161e-19)
(0.003 -1.67523e-19 3.86116e-19)
(0.003 -9.57222e-20 3.98665e-19)
(0.003 -1.59011e-19 2.42383e-19)
(0.003 -1.54225e-19 6.2756e-20)
(0.003 -1.17965e-19 -1.48565e-19)
(0.003 8.38058e-21 -1.49709e-19)
(0.003 1.21236e-19 -3.22387e-19)
(0.003 1.79556e-19 -4.23771e-19)
(0.003 -1.40118e-19 9.44191e-19)
(0.003 -1.78144e-19 1.61664e-18)
(0.003 -1.89561e-19 1.91271e-18)
(0.003 2.55487e-21 2.07882e-18)
(0.003 1.43572e-20 2.14231e-18)
(0.003 -2.40612e-19 2.09067e-18)
(0.003 -2.3753e-19 2.06654e-18)
(0.003 -8.98652e-20 2.1038e-18)
(0.003 5.41151e-20 2.04212e-18)
(0.003 4.55122e-20 1.89413e-18)
(0.003 3.56961e-20 1.72983e-18)
(0.003 1.19809e-19 1.69999e-18)
(0.003 1.41159e-19 1.64291e-18)
(0.003 1.39913e-19 1.56229e-18)
(0.003 2.69053e-20 1.53184e-18)
(0.003 -3.5715e-20 1.43527e-18)
(0.003 4.45573e-20 1.25019e-18)
(0.003 2.1778e-19 1.03694e-18)
(0.003 3.22638e-19 1.0435e-18)
(0.003 1.31068e-19 1.00197e-18)
(0.003 -1.22167e-19 1.04075e-18)
(0.003 -1.79356e-19 1.04057e-18)
(0.003 -9.19399e-20 1.04315e-18)
(0.003 -1.60288e-20 9.68243e-19)
(0.003 -9.44531e-20 8.16095e-19)
(0.003 -5.90914e-20 8.00768e-19)
(0.003 1.22656e-19 8.18085e-19)
(0.003 1.75316e-19 7.07805e-19)
(0.003 1.7667e-19 5.29753e-19)
(0.003 1.95895e-20 4.99377e-19)
(0.003 -3.06206e-20 4.45267e-19)
(0.003 -5.22475e-20 2.84114e-19)
(0.003 -5.81256e-20 3.21606e-19)
(0.003 -1.69387e-20 4.7388e-19)
(0.003 4.12867e-20 2.79111e-19)
(0.003 -1.37953e-20 1.49856e-19)
(0.003 -3.86503e-20 1.13585e-20)
(0.003 -2.98225e-20 -8.58802e-20)
(0.003 1.35829e-19 -2.59615e-19)
(0.003 2.30705e-19 -3.22109e-19)
(0.003 8.33444e-20 1.0049e-18)
(0.003 5.02986e-20 1.63432e-18)
(0.003 -6.3743e-20 1.80172e-18)
(0.003 -1.78499e-19 1.94618e-18)
(0.003 -2.4102e-19 2.11429e-18)
(0.003 -1.72524e-19 2.07101e-18)
(0.003 -7.20649e-20 2.04833e-18)
(0.003 -4.15961e-20 2.1118e-18)
(0.003 -6.36771e-20 2.10682e-18)
(0.003 1.01282e-20 1.99141e-18)
(0.003 1.51464e-19 1.80172e-18)
(0.003 1.6651e-19 1.78724e-18)
(0.003 1.85313e-19 1.5803e-18)
(0.003 2.13021e-19 1.59967e-18)
(0.003 3.15678e-21 1.59404e-18)
(0.003 -1.86535e-19 1.47113e-18)
(0.003 -1.80629e-19 1.21986e-18)
(0.003 -6.81609e-20 9.94961e-19)
(0.003 6.42184e-20 1.09245e-18)
(0.003 2.35064e-21 9.90964e-19)
(0.003 -1.08403e-19 9.99286e-19)
(0.003 -6.74709e-20 1.07221e-18)
(0.003 -2.13156e-20 1.12132e-18)
(0.003 8.47249e-20 1.00759e-18)
(0.003 1.37318e-19 7.71948e-19)
(0.003 -3.99132e-21 7.02554e-19)
(0.003 2.28122e-20 8.30952e-19)
(0.003 9.05816e-20 8.2229e-19)
(0.003 8.20841e-20 6.07677e-19)
(0.003 -2.45112e-20 3.78363e-19)
(0.003 -6.09017e-20 4.40774e-19)
(0.003 -2.76053e-20 3.32148e-19)
(0.003 2.96443e-20 3.20048e-19)
(0.003 2.18418e-20 4.09008e-19)
(0.003 1.16047e-19 3.33296e-19)
(0.003 1.33472e-19 2.42909e-19)
(0.003 6.51408e-20 7.78276e-20)
(0.003 -2.81998e-20 -2.40863e-19)
(0.003 -2.94382e-20 -4.69161e-19)
(0.003 9.46649e-21 -4.43257e-19)
(0.003 3.15618e-19 9.60921e-19)
(0.003 2.26856e-19 1.53525e-18)
(0.003 -3.03597e-20 1.71222e-18)
(0.003 -1.48739e-19 1.86258e-18)
(0.003 -1.31082e-19 2.05837e-18)
(0.003 -8.48111e-20 2.06845e-18)
(0.003 -9.5377e-21 2.04059e-18)
(0.003 -8.29211e-20 2.06424e-18)
(0.003 -1.73344e-19 2.06027e-18)
(0.003 -6.71433e-20 2.09204e-18)
(0.003 1.22448e-19 1.97395e-18)
(0.003 1.17754e-19 1.8601e-18)
(0.003 1.64794e-19 1.68794e-18)
(0.003 2.58859e-19 1.60902e-18)
(0.003 -3.8812e-20 1.5389e-18)
(0.003 -1.73088e-19 1.37564e-18)
(0.003 -1.57895e-19 1.16816e-18)
(0.003 -1.43034e-19 1.02393e-18)
(0.003 -1.73345e-19 1.14445e-18)
(0.003 -1.03833e-19 1.0684e-18)
(0.003 -1.12684e-19 1.04245e-18)
(0.003 -1.60662e-19 1.04119e-18)
(0.003 -1.66831e-20 1.06458e-18)
(0.003 1.03992e-19 1.01037e-18)
(0.003 2.31492e-19 8.93243e-19)
(0.003 1.87501e-19 7.27943e-19)
(0.003 -4.59146e-20 6.99167e-19)
(0.003 -1.6135e-20 7.3045e-19)
(0.003 -2.63847e-21 6.24789e-19)
(0.003 -4.50374e-20 4.35108e-19)
(0.003 -1.8315e-20 4.38019e-19)
(0.003 6.69933e-20 3.05506e-19)
(0.003 1.14005e-20 2.97598e-19)
(0.003 3.06438e-20 4.11276e-19)
(0.003 1.81487e-19 3.9423e-19)
(0.003 2.06724e-19 2.78345e-19)
(0.003 2.67408e-20 -1.61506e-20)
(0.003 -3.5211e-20 -3.24268e-19)
(0.003 -9.13026e-20 -4.28688e-19)
(0.003 -1.67579e-19 -3.25708e-19)
(0.003 3.08799e-19 9.89572e-19)
(0.003 3.01068e-19 1.59654e-18)
(0.003 4.129e-20 1.74199e-18)
(0.003 1.20781e-20 1.81088e-18)
(0.003 5.7546e-20 1.99703e-18)
(0.003 6.35453e-20 2.01303e-18)
(0.003 -1.09115e-20 1.97428e-18)
(0.003 -9.92153e-20 2.01449e-18)
(0.003 -1.30985e-19 2.03971e-18)
(0.003 -1.91434e-19 2.08323e-18)
(0.003 -8.35836e-20 2.0282e-18)
(0.003 6.57864e-20 1.8438e-18)
(0.003 1.0474e-19 1.76209e-18)
(0.003 -6.96497e-20 1.70368e-18)
(0.003 -1.46255e-19 1.53908e-18)
(0.003 -1.67851e-19 1.38975e-18)
(0.003 -2.25164e-19 1.18319e-18)
(0.003 -2.27183e-19 1.06119e-18)
(0.003 -2.64896e-19 1.11542e-18)
(0.003 -1.10315e-19 1.04532e-18)
(0.003 -2.46425e-20 1.07662e-18)
(0.003 -2.44508e-20 1.05551e-18)
(0.003 7.19653e-20 1.07503e-18)
(0.003 9.43315e-20 9.63039e-19)
(0.003 1.31359e-19 8.53035e-19)
(0.003 2.29849e-19 7.7221e-19)
(0.003 5.32109e-20 7.53636e-19)
(0.003 2.53166e-20 7.7574e-19)
(0.003 -2.94708e-20 6.13461e-19)
(0.003 -7.37596e-20 4.17598e-19)
(0.003 2.27138e-20 4.00512e-19)
(0.003 1.55445e-19 3.57676e-19)
(0.003 -1.78012e-20 2.43506e-19)
(0.003 1.5311e-20 3.40541e-19)
(0.003 2.27847e-19 4.96075e-19)
(0.003 1.65533e-19 2.20883e-19)
(0.003 1.40773e-19 -2.65628e-19)
(0.003 3.31375e-20 -4.03058e-19)
(0.003 -1.42642e-20 -2.85073e-19)
(0.003 2.62934e-21 -2.04318e-19)
(0.003 1.21509e-21 1.05736e-18)
(0.003 4.30877e-20 1.69967e-18)
(0.003 1.55003e-19 1.78184e-18)
(0.003 7.54666e-20 1.78758e-18)
(0.003 -1.63374e-20 1.86592e-18)
(0.003 1.29614e-19 2.0505e-18)
(0.003 9.08866e-20 2.01624e-18)
(0.003 2.69316e-20 1.87615e-18)
(0.003 -9.83779e-20 1.96505e-18)
(0.003 -1.589e-19 2.00854e-18)
(0.003 -1.03393e-19 1.98954e-18)
(0.003 -1.18543e-19 1.92068e-18)
(0.003 -2.398e-19 1.82383e-18)
(0.003 -2.28918e-19 1.58103e-18)
(0.003 -1.08638e-19 1.40058e-18)
(0.003 -1.48725e-19 1.281e-18)
(0.003 -2.15732e-19 1.14121e-18)
(0.003 -2.28985e-19 1.05183e-18)
(0.003 -2.36745e-19 1.12684e-18)
(0.003 -2.12089e-19 1.15512e-18)
(0.003 -1.10117e-19 1.09663e-18)
(0.003 1.46949e-19 1.03663e-18)
(0.003 1.40949e-19 1.07918e-18)
(0.003 4.96477e-20 1.01096e-18)
(0.003 1.29643e-19 9.45915e-19)
(0.003 8.51808e-20 8.7913e-19)
(0.003 2.80728e-20 7.92362e-19)