/*--------------------------------*- C++ -*----------------------------------*\
| =========                 |                                                 |
| \\      /  F ield         | OpenFOAM: The Open Source CFD Toolbox           |
|  \\    /   O peration     | Version:  v2012                                 |
|   \\  /    A nd           | Website:  www.openfoam.com                      |
|    \\/     M anipulation  |                                                 |
\*---------------------------------------------------------------------------*/
FoamFile
{
    version     2.0;
    format      ascii;
    class       volScalarField;
    location    "570/rightSolid";
    object      T;
}
// * * * * * * * * * * * * * * * * * * * * * * * * * * * * * * * * * * * * * //

dimensions      [0 0 0 1 0 0 0];


internalField   nonuniform List<scalar> 
130
(
753.30517
761.3741
769.79928
778.08973
785.95031
793.15981
799.5803
805.12044
809.74371
813.48873
816.33018
818.23922
819.19715
747.29269
756.71301
766.31688
775.5677
784.1582
791.90397
798.70687
804.51891
809.34878
813.22864
816.14133
818.08208
819.05369
735.43962
747.94772
760.06522
771.21375
781.16728
789.86793
797.32809
803.605
808.76633
812.84959
815.88428
817.89589
818.90268
717.91379
736.2326
752.39612
766.22467
777.92561
787.76414
795.97422
802.7505
808.23688
812.52708
815.68645
817.77049
818.80548
697.33509
725.21828
746.19829
762.60711
775.75557
786.43842
795.15904
802.25014
807.93206
812.34288
815.57726
817.70049
818.75242
697.52418
725.40332
746.352
762.73383
775.85989
786.522
795.22563
802.29973
807.96514
812.36416
815.59183
817.71033
818.76133
718.43903
736.69291
752.78502
766.55247
778.19517
787.98527
796.15602
802.89175
808.33562
812.6004
815.74691
817.82293
818.85415
736.16036
748.57415
760.57326
771.61484
781.48856
790.13468
797.56333
803.81214
808.93571
812.99909
816.02259
818.02649
819.02587
748.02732
757.36516
766.84039
775.98224
784.48362
792.16164
798.9208
804.71902
809.55229
813.42138
816.32101
818.25452
819.22595
753.92962
761.93188
770.23285
778.43346
786.22312
793.38269
799.76995
805.3037
809.94557
813.68946
816.51061
818.39865
819.34737
)
;

boundaryField
{
    maxX
    {
        type            zeroGradient;
    }
    minZ
    {
        type            zeroGradient;
    }
    maxZ
    {
        type            zeroGradient;
    }
    rightSolid_to_bottomWater
    {
        type            compressible::turbulentTemperatureCoupledBaffleMixed;
        refValue        nonuniform List<scalar> 
130
(
932.72002
935.5702
943.01557
941.17056
940.9711
939.38146
938.71167
936.32414
927.43384
925.75183
926.83695
928.15553
928.27905
924.37613
927.86793
933.78944
934.13995
934.81521
934.8922
934.54591
930.57369
925.31895
926.38219
926.26952
925.31788
924.71928
920.15711
924.62122
928.378
929.49837
929.81698
930.23344
928.50753
925.74111
926.48219
926.51228
925.86162
925.58998
926.38015
916.05637
922.24397
924.71468
924.45491
924.0776
923.91768
923.6414
924.8434
926.80636
928.05243
927.45842
927.63953
926.66277
911.3525
916.28442
921.83164
924.66794
924.76027
924.13285
923.52963
924.19957
925.91804
926.66073
926.70225
926.25153
925.34062
914.69281
922.56721
923.82415
925.76689
925.76427
924.54287
923.90748
923.77391
924.75086
925.22577
925.43689
924.76623
924.38231
923.57887
925.88714
926.07407
926.09019
924.63282
924.87698
924.82542
924.44612
923.54096
925.01042
925.26397
925.81594
925.59322
931.13157
930.40638
928.75621
925.36881
925.28457
926.76516
927.90396
927.47632
924.9371
926.90556
927.86636
928.14123
928.12679
934.59005
935.45801
933.69567
932.38557
931.08355
929.21679
927.31415
925.64356
926.23611
927.65518
928.11905
928.41933
929.73388
936.57789
937.19268
935.15513
934.08002
933.29989
932.45446
930.94433
928.8894
925.83105
926.54031
926.88778
927.26678
927.86149
)
;
        refGradient     uniform 0;
        valueFraction   nonuniform List<scalar> 
130
(
0.0075140686
0.0075140686
0.0075140686
0.0075140686
0.0075140686
0.0075140686
0.0075140686
0.0075140686
0.0075140686
0.0075140686
0.0075140686
0.0075140686
0.0075140686
0.0075140686
0.0075140686
0.0075140686
0.0075140686
0.0075140686
0.0075140686
0.0075140686
0.0075140686
0.0075140686
0.0075140686
0.0075140686
0.0075140686
0.0075140686
0.0075140686
0.0075140686
0.0075140686
0.0075140686
0.0075140686
0.0075140686
0.0075140686
0.0075140686
0.0075140686
0.0075140686
0.0075140686
0.0075140686
0.0075140686
0.0075140686
0.0075140686
0.0075140686
0.0075140686
0.0075140686
0.0075140686
0.0075140686
0.0075140686
0.0075140686
0.0075140686
0.0075140686
0.0075140686
0.0075140686
0.0075140686
0.0075140686
0.0075140686
0.0075140686
0.0075140686
0.0075140686
0.0075140686
0.0075140686
0.0075140686
0.0075140686
0.0075140686
0.0075140686
0.0075140686
0.0075140686
0.0075140686
0.0075140686
0.0075140686
0.0075140686
0.0075140686
0.0075140686
0.0075140686
0.0075140686
0.0075140686
0.0075140686
0.0075140686
0.0075140686
0.0075140686
0.0075140686
0.0075140686
0.0075140686
0.0075140686
0.0075140686
0.0075140686
0.0075140686
0.0075140686
0.0075140686
0.0075140686
0.0075140686
0.0075140686
0.0075140686
0.0075140686
0.0075140686
0.0075140686
0.0075140686
0.0075140686
0.0075140686
0.0075140686
0.0075140686
0.0075140686
0.0075140686
0.0075140686
0.0075140686
0.0075140686
0.0075140686
0.0075140686
0.0075140686
0.0075140686
0.0075140686
0.0075140686
0.0075140686
0.0075140686
0.0075140686
0.0075140686
0.0075140686
0.0075140686
0.0075140686
0.0075140686
0.0075140686
0.0075140686
0.0075140686
0.0075140686
0.0075140686
0.0075140686
0.0075140686
0.0075140686
0.0075140686
0.0075140686
0.0075140686
)
;
        value           nonuniform List<scalar> 
130
(
754.65356
762.68315
771.10086
779.31502
787.11495
794.2583
800.6255
806.10608
810.6279
814.33229
817.16064
819.06531
820.01702
748.6234
757.99908
767.57519
776.75906
785.29001
792.97813
799.72734
805.46592
810.22014
814.07895
816.969
818.88807
819.84792
736.82763
749.27523
761.32986
772.40298
782.28407
790.92246
798.31361
804.52267
809.65087
813.70376
816.71083
818.7053
819.71049
719.40275
737.63035
753.69091
767.41353
779.02372
788.78717
796.93353
803.66794
809.12788
813.39526
816.52647
818.59625
819.61617
698.94344
726.65415
747.51813
763.82493
776.87529
787.47318
796.12375
803.16659
808.81872
813.20201
816.41243
818.51637
819.55359
699.15626
726.88504
747.68571
763.95902
776.98641
787.55924
796.1927
803.21264
808.84283
813.21238
816.4174
818.51497
819.55521
719.98071
738.11471
754.08729
767.75141
779.29567
789.01399
797.12297
803.80525
809.20142
813.44521
816.56999
818.63457
819.65637
737.62565
749.94063
761.83716
772.77034
782.56918
791.16141
798.5428
804.74146
809.80747
813.85511
816.86311
818.85402
819.84579
749.42941
758.70354
768.09429
777.15757
785.58525
793.19155
799.88564
805.62776
810.42917
814.27985
817.16119
819.08242
820.05643
755.30227
763.24897
771.47219
779.60308
787.32832
794.42774
800.75566
806.23241
810.81644
814.53755
817.34012
819.21682
820.16289
)
;
        Tnbr            T;
        thicknessLayers List<scalar> 0();
        kappaLayers     List<scalar> 0();
        kappaMethod     solidThermo;
        kappa           none;
        alphaAni        none;
        alpha           none;
        field           T;
    }
    rightSolid_to_topAir
    {
        type            compressible::turbulentTemperatureCoupledBaffleMixed;
        refValue        nonuniform List<scalar> 
130
(
494.40107
487.12229
480.79689
475.69884
471.8793
469.27596
467.78631
467.308
467.78019
469.23255
471.85606
476.16026
483.01186
437.74285
432.09033
428.64
426.67408
425.6965
425.45246
425.84533
426.84006
428.46471
430.84968
434.35135
439.91406
449.35492
447.53999
438.73759
431.22331
424.96032
419.96772
416.3481
414.20544
413.55714
414.3048
416.31865
419.60207
424.97518
434.56035
500.97416
501.18568
500.07907
497.33975
493.17135
488.07276
482.51212
476.94919
472.22515
469.83467
471.82522
479.2522
490.07825
506.38633
510.30075
514.34876
518.13538
521.2934
523.52425
524.64937
524.68529
523.95638
523.22882
523.71715
526.93043
534.53616
508.24777
512.20078
516.36377
520.3545
523.8066
526.4156
527.99255
528.52748
528.2953
527.99523
528.80249
532.19518
539.8741
504.15428
505.14101
504.80349
502.75358
499.13707
494.44977
489.21509
483.94054
479.43612
477.24015
479.41191
486.21972
496.69998
449.28382
440.85398
433.44747
427.0668
421.83322
417.98783
415.74488
415.15949
416.10296
418.3855
421.98371
427.80876
437.98997
437.62484
432.30385
429.0811
427.22917
426.26755
425.9877
426.35664
427.39679
429.1675
431.80375
435.67763
441.83066
451.94279
494.64165
487.54876
481.38915
476.41888
472.68435
470.13463
468.69301
468.28864
468.88609
470.52825
473.41756
478.09536
485.41309
)
;
        refGradient     uniform 0;
        valueFraction   nonuniform List<scalar> 
130
(
0.00032132529
0.00032132529
0.00032132529
0.00032132529
0.00032132529
0.00032132529
0.00032132529
0.00032132529
0.00032132529
0.00032132529
0.00032132529
0.00032132529
0.00032132529
0.00032132529
0.00032132529
0.00032132529
0.00032132529
0.00032132529
0.00032132529
0.00032132529
0.00032132529
0.00032132529
0.00032132529
0.00032132529
0.00032132529
0.00032132529
0.00032132529
0.00032132529
0.00032132529
0.00032132529
0.00032132529
0.00032132529
0.00032132529
0.00032132529
0.00032132529
0.00032132529
0.00032132529
0.00032132529
0.00032132529
0.00032132529
0.00032132529
0.00032132529
0.00032132529
0.00032132529
0.00032132529
0.00032132529
0.00032132529
0.00032132529
0.00032132529
0.00032132529
0.00032132529
0.00032132529
0.00032132529
0.00032132529
0.00032132529
0.00032132529
0.00032132529
0.00032132529
0.00032132529
0.00032132529
0.00032132529
0.00032132529
0.00032132529
0.00032132529
0.00032132529
0.00032132529
0.00032132529
0.00032132529
0.00032132529
0.00032132529
0.00032132529
0.00032132529
0.00032132529
0.00032132529
0.00032132529
0.00032132529
0.00032132529
0.00032132529
0.00032132529
0.00032132529
0.00032132529
0.00032132529
0.00032132529
0.00032132529
0.00032132529
0.00032132529
0.00032132529
0.00032132529
0.00032132529
0.00032132529
0.00032132529
0.00032132529
0.00032132529
0.00032132529
0.00032132529
0.00032132529
0.00032132529
0.00032132529
0.00032132529
0.00032132529
0.00032132529
0.00032132529
0.00032132529
0.00032132529
0.00032132529
0.00032132529
0.00032132529
0.00032132529
0.00032132529
0.00032132529
0.00032132529
0.00032132529
0.00032132529
0.00032132529
0.00032132529
0.00032132529
0.00032132529
0.00032132529
0.00032132529
0.00032132529
0.00032132529
0.00032132529
0.00032132529
0.00032132529
0.00032132529
0.00032132529
0.00032132529
0.00032132529
0.00032132529
0.00032132529
)
;
        value           nonuniform List<scalar> 
130
(
753.22224
761.28611
769.70644
777.99245
785.84919
793.05551
799.47345
805.01166
809.63368
813.37812
816.2196
818.12948
819.08935
747.19331
756.6087
766.20829
775.45543
784.04278
791.78595
798.58682
804.39737
809.22635
813.10583
816.01881
817.96078
818.93515
735.34714
747.84834
759.95948
771.10236
781.05105
789.74772
797.20481
803.47959
808.63959
812.72227
815.75712
817.76983
818.7794
717.84419
736.15712
752.31502
766.13818
777.83403
787.66781
795.87351
802.64584
808.12897
812.41707
815.57611
817.66191
818.7001
697.27394
725.14941
746.12392
762.52864
775.67389
786.35405
795.07224
802.16106
807.84092
812.25012
815.48365
817.60728
818.66136
697.46362
725.33503
746.27828
762.6561
775.77903
786.43856
795.13991
802.2119
807.87543
812.27295
815.49987
817.6188
818.67196
718.37042
736.61869
752.7055
766.46787
778.10566
787.89106
796.05751
802.7894
808.23008
812.49279
815.639
817.71655
818.75081
736.06845
748.47546
760.46831
771.50431
781.37313
790.01518
797.44072
803.68735
808.8096
812.87241
815.8961
817.90123
818.90356
747.92782
757.26089
766.732
775.87028
784.36859
792.04405
798.80117
804.59788
809.43017
813.29886
816.19882
818.13368
819.10804
753.84652
761.84388
770.14014
778.33649
786.12243
793.27888
799.66363
805.19549
809.83608
813.57931
816.40049
818.28943
819.2402
)
;
        Tnbr            T;
        thicknessLayers List<scalar> 0();
        kappaLayers     List<scalar> 0();
        kappaMethod     solidThermo;
        kappa           none;
        alphaAni        none;
        alpha           none;
        field           T;
    }
    rightSolid_to_heater
    {
        type            compressible::turbulentTemperatureCoupledBaffleMixed;
        refValue        nonuniform List<scalar> 10(746.11274 738.74536 723.64913 698.96527 658.04226 658.21264 699.52229 724.40155 739.49522 746.72809);
        refGradient     uniform 0;
        valueFraction   nonuniform List<scalar> 10(0.50000003 0.50000003 0.50000003 0.50000003 0.50000003 0.50000003 0.50000003 0.50000003 0.50000003 0.50000003);
        value           nonuniform List<scalar> 10(749.70908 743.01907 729.54439 708.43958 677.68878 677.86854 708.98078 730.28109 743.76139 750.32896);
        Tnbr            T;
        thicknessLayers List<scalar> 0();
        kappaLayers     List<scalar> 0();
        kappaMethod     solidThermo;
        kappa           none;
        alphaAni        none;
        alpha           none;
        field           T;
    }
}


// ************************************************************************* //
