/*--------------------------------*- C++ -*----------------------------------*\
  =========                 |
  \\      /  F ield         | OpenFOAM: The Open Source CFD Toolbox
   \\    /   O peration     | Website:  https://openfoam.org
    \\  /    A nd           | Version:  dev
     \\/     M anipulation  |
\*---------------------------------------------------------------------------*/
FoamFile
{
    format      ascii;
    class       volScalarField;
    location    "0/air";
    object      epsilon;
}
// * * * * * * * * * * * * * * * * * * * * * * * * * * * * * * * * * * * * * //

dimensions      [0 2 -3 0 0 0 0];

internalField   uniform 0.00035;

boundaryField
{
    inlet
    {
        type            turbulentMixingLengthDissipationRateInlet;
        mixingLength    0.0007;
        value           uniform 0.00035;
    }
    outlet
    {
        type            inletOutlet;
        inletValue      nonuniform List<scalar> 0();
        value           nonuniform List<scalar> 0();
    }
    walls
    {
        type            compressible::epsilonWallFunction;
        value           uniform 0.00035;
    }
    air_to_water
    {
        type            compressible::epsilonWallFunction;
        value           nonuniform List<scalar> 0();
    }
    air_to_solid
    {
        type            compressible::epsilonWallFunction;
        value           uniform 0.00035;
    }
    procBoundary0to1
    {
        type            processor;
        value           uniform 0.00035;
    }
    procBoundary0to2
    {
        type            processor;
        value           uniform 0.00035;
    }
    procBoundary0to3
    {
        type            processor;
        value           uniform 0.00035;
    }
    procBoundary0to7
    {
        type            processor;
        value           uniform 0.00035;
    }
    procBoundary0to8
    {
        type            processor;
        value           uniform 0.00035;
    }
    procBoundary0to11
    {
        type            processor;
        value           uniform 0.00035;
    }
}


// ************************************************************************* //
