/*--------------------------------*- C++ -*----------------------------------*\
  =========                 |
  \\      /  F ield         | OpenFOAM: The Open Source CFD Toolbox
   \\    /   O peration     | Website:  https://openfoam.org
    \\  /    A nd           | Version:  dev
     \\/     M anipulation  |
\*---------------------------------------------------------------------------*/
FoamFile
{
    format      ascii;
    class       volScalarField;
    location    "0/air";
    object      p;
}
// * * * * * * * * * * * * * * * * * * * * * * * * * * * * * * * * * * * * * //

dimensions      [1 -1 -2 0 0 0 0];

internalField   uniform 100000;

boundaryField
{
    inlet
    {
        type            calculated;
        value           uniform 100000;
    }
    outlet
    {
        type            calculated;
        value           nonuniform List<scalar> 0();
    }
    walls
    {
        type            calculated;
        value           uniform 100000;
    }
    air_to_water
    {
        type            calculated;
        value           nonuniform List<scalar> 0();
    }
    air_to_solid
    {
        type            calculated;
        value           uniform 100000;
    }
    procBoundary0to1
    {
        type            processor;
        value           uniform 100000;
    }
    procBoundary0to2
    {
        type            processor;
        value           uniform 100000;
    }
    procBoundary0to3
    {
        type            processor;
        value           uniform 100000;
    }
    procBoundary0to7
    {
        type            processor;
        value           uniform 100000;
    }
    procBoundary0to8
    {
        type            processor;
        value           uniform 100000;
    }
    procBoundary0to11
    {
        type            processor;
        value           uniform 100000;
    }
}


// ************************************************************************* //
