/*--------------------------------*- C++ -*----------------------------------*\
| =========                 |                                                 |
| \\      /  F ield         | OpenFOAM: The Open Source CFD Toolbox           |
|  \\    /   O peration     | Version:  v2012                                 |
|   \\  /    A nd           | Website:  www.openfoam.com                      |
|    \\/     M anipulation  |                                                 |
\*---------------------------------------------------------------------------*/
FoamFile
{
    version     2.0;
    format      ascii;
    class       volScalarField;
    location    "37";
    object      p;
}
// * * * * * * * * * * * * * * * * * * * * * * * * * * * * * * * * * * * * * //

dimensions      [0 2 -2 0 0 0 0];


internalField   nonuniform List<scalar> 
64000
(
-5.76466e-22
-4.56279e-21
-3.0635e-21
-4.68542e-21
-9.25977e-21
-3.3934e-21
-5.23614e-21
-4.83661e-21
-5.66787e-21
-5.74271e-21
-4.16037e-21
-7.34671e-21
-5.4049e-21
-7.47007e-21
-4.74437e-21
-5.85036e-21
-1.54787e-21
-1.18917e-21
-1.82959e-21
-2.84576e-21
-1.96885e-21
-2.57942e-21
-2.78084e-21
-1.97288e-21
-3.59174e-21
-1.35632e-21
6.92364e-22
-5.52841e-21
-3.05407e-21
-2.38216e-21
-3.43524e-21
-1.02406e-21
-5.94112e-22
2.19738e-23
-1.9294e-21
-6.08917e-21
-4.8966e-22
6.3427e-22
-5.35357e-22
-5.58641e-22
-8.45741e-21
-1.12585e-20
-1.05403e-20
-8.08721e-21
-1.1197e-20
-1.1627e-20
-1.00215e-20
-6.7761e-21
-4.43391e-21
-9.99056e-21
-1.2028e-20
-1.21313e-20
-6.63279e-21
-6.82171e-21
-7.61256e-21
-6.74047e-21
-4.28382e-21
1.21678e-21
-1.13262e-21
-6.17686e-21
-1.90417e-22
-3.6687e-21
-6.1224e-21
-9.26611e-21
-4.7487e-21
-3.25134e-21
-4.01783e-21
-6.17549e-21
-4.45457e-21
-2.61341e-21
3.6215e-22
-7.5681e-22
-4.63465e-21
-2.69604e-21
-1.05555e-21
-2.49418e-21
-1.29601e-21
1.68344e-21
-1.51052e-21
-2.24238e-21
-6.52903e-21
-9.51117e-21
-1.2802e-20
-1.03929e-20
-1.01067e-20
-1.20049e-20
-1.12797e-20
-8.70751e-21
-1.05329e-20
-1.13491e-20
-9.28031e-21
-1.00053e-20
-9.70573e-21
-6.55631e-21
-5.01151e-21
-2.14908e-21
-9.68322e-21
-4.182e-21
9.73672e-23
-1.79098e-21
-3.60618e-21
-6.57982e-21
-6.44087e-21
-6.62491e-21
-3.4405e-21
-4.31667e-21
-4.97156e-21
-5.83078e-21
-2.51302e-21
-3.85816e-21
-2.82671e-21
-1.32774e-21
-3.45955e-21
-3.50744e-22
-1.9434e-21
-4.78804e-21
1.30065e-21
2.81449e-21
-1.56703e-22
2.81517e-22
-9.51314e-21
-9.74545e-21
-1.09753e-20
-1.49245e-20
-1.26613e-20
-1.45848e-20
-1.25234e-20
-9.18069e-21
-1.13941e-20
-1.19728e-20
-1.09965e-20
-1.02896e-20
-1.08815e-20
-7.33527e-21
-6.29282e-21
-3.51938e-21
-6.0069e-21
-5.25675e-21
-4.67633e-24
-8.15023e-22
-4.57456e-21
-5.6235e-21
-9.2587e-21
-8.1017e-21
-8.17016e-21
-9.81371e-22
-3.77838e-21
-3.14776e-21
-3.40243e-21
-4.88326e-21
-1.96499e-21
-1.50932e-21
-2.13431e-21
-1.57924e-21
-2.5749e-21
-3.16134e-21
3.35867e-22
8.82062e-22
-1.70392e-21
-4.65435e-23
-1.6405e-20
-1.09897e-20
-1.1749e-20
-1.35822e-20
-1.26506e-20
-1.53947e-20
-1.2415e-20
-8.19602e-21
-8.81972e-21
-1.34494e-20
-1.19221e-20
-9.29567e-21
-8.49666e-21
-5.87574e-21
-1.05174e-20
-1.24408e-20
-5.55917e-21
-3.05397e-21
-1.8969e-21
-1.84706e-21
-4.07855e-21
-6.66291e-21
-9.30291e-21
-7.23959e-21
-5.38065e-21
-2.50336e-21
-2.94836e-21
-3.90924e-21
-6.33662e-21
-2.18315e-21
-1.24593e-21
5.9818e-22
-1.20661e-21
-1.19544e-21
-4.32242e-21
-2.92302e-21
-8.37309e-22
-9.99127e-22
4.19498e-22
-1.0125e-21
-1.39358e-20
-1.20752e-20
-1.03287e-20
-1.42232e-20
-1.28989e-20
-1.26355e-20
-9.90272e-21
-1.33479e-20
-1.30213e-20
-1.27028e-20
-1.10663e-20
-8.91723e-21
-9.44909e-21
-5.47194e-21
-9.08365e-21
-1.09577e-20
-6.06552e-21
-3.49922e-21
-2.90122e-21
-4.99556e-21
-3.68797e-21
-5.44721e-21
-9.46355e-21
-8.38638e-21
-8.57924e-21
-1.11726e-21
-4.00591e-21
-2.14785e-21
-4.54923e-21
-3.81377e-21
-3.87221e-21
-2.89086e-21
-1.35972e-21
-7.29079e-22
-3.04017e-21
-6.98043e-22
-2.25224e-21
-1.40399e-21
-4.00676e-22
8.12376e-22
-1.45115e-20
-1.52161e-20
-9.52975e-21
-1.19486e-20
-1.26825e-20
-1.29863e-20
-1.0315e-20
-1.23456e-20
-1.3746e-20
-1.26073e-20
-1.09598e-20
-1.07469e-20
-7.2487e-21
-8.3307e-21
-8.84181e-21
-9.26199e-21
-6.59324e-21
-2.21183e-21
-2.52382e-21
-4.69674e-21
-5.73904e-21
-9.68147e-21
-1.14931e-20
-9.5867e-21
-4.86173e-21
-5.31527e-21
-5.51993e-21
-3.4281e-22
-2.92139e-21
-2.11799e-21
-5.97184e-21
-5.25927e-21
7.03233e-22
-3.27752e-22
-2.55751e-21
-2.84128e-21
-1.49586e-21
-8.67402e-22
-2.30557e-21
-1.13887e-21
-1.4348e-20
-1.40346e-20
-1.13955e-20
-1.07725e-20
-1.26224e-20
-1.09183e-20
-1.00528e-20
-1.77277e-20
-1.53084e-20
-1.28574e-20
-1.01085e-20
-9.18999e-21
-8.09292e-21
-9.95441e-21
-7.6212e-21
-8.91083e-21
-5.55789e-21
-3.75073e-21
-6.58757e-21
-3.3693e-21
-4.23435e-21
-1.00955e-20
-1.02158e-20
-8.3835e-21
-5.37322e-21
-6.83922e-21
-4.77778e-21
-1.02839e-21
-2.92458e-21
-3.79535e-21
-5.61994e-21
-4.1521e-21
-3.78574e-22
-2.44216e-21
-5.34122e-21
-5.61518e-21
-1.2993e-21
4.79172e-24
-3.69246e-22
-1.42583e-21
-1.91771e-20
-1.58233e-20
-1.12619e-20
-1.15493e-20
-1.3298e-20
-1.47456e-20
-1.29315e-20
-1.25139e-20
-1.34425e-20
-1.59528e-20
-9.11647e-21
-8.18688e-21
-6.87847e-21
-1.00508e-20
-1.06219e-20
-9.1566e-21
-4.39141e-21
5.20512e-23
-7.16952e-21
-8.0224e-21
-3.61133e-21
-8.97847e-21
-1.2017e-20
-8.65185e-21
-3.67492e-21
-5.28632e-21
-7.16086e-21
-4.71687e-21
-1.98662e-21
-5.69388e-21
-3.27486e-21
-2.19589e-21
-7.3016e-22
-2.94002e-21
-6.6569e-21
-3.52818e-21
-6.7668e-22
3.52027e-22
-3.98015e-22
-1.91419e-21
-1.17673e-20
-1.30228e-20
-1.27017e-20
-1.14571e-20
-1.5057e-20
-1.54167e-20
-1.27913e-20
-1.2327e-20
-1.27938e-20
-1.41471e-20
-1.25771e-20
-6.28302e-21
-6.94023e-21
-1.00816e-20
-1.07046e-20
-8.56664e-21
-5.89352e-21
-3.39869e-21
-1.14603e-21
-3.52777e-21
-6.98207e-21
-7.06111e-21
-1.08204e-20
-9.56996e-21
-7.77319e-21
-4.80881e-21
-3.70497e-21
-2.16932e-21
-4.96877e-21
-4.73969e-21
-2.29448e-21
-1.60834e-21
-2.49705e-21
-2.87439e-21
-7.61942e-21
-4.14073e-21
-1.53713e-21
-2.14326e-22
-5.2314e-22
-9.15034e-23
-1.04851e-20
-1.40043e-20
-1.37813e-20
-1.57104e-20
-1.26459e-20
-1.44574e-20
-1.74151e-20
-1.05473e-20
-1.26651e-20
-1.58174e-20
-1.0498e-20
-5.9711e-21
-6.18522e-21
-1.02275e-20
-9.99361e-21
-1.09618e-20
-7.48426e-21
-1.48985e-21
8.105e-22
-3.6696e-21
-9.39712e-21
-1.17053e-20
-9.00736e-21
-8.78604e-21
-8.28738e-21
-5.16517e-21
-2.82625e-22
-1.86333e-21
-4.56205e-21
-7.25705e-21
-3.22954e-21
4.74846e-22
-5.20349e-21
-2.79573e-21
-4.44185e-21
-4.86083e-21
-1.2675e-21
-1.2733e-21
-1.1101e-21
-6.64523e-22
-1.12674e-20
-1.52218e-20
-1.56057e-20
-1.39865e-20
-1.39234e-20
-1.73268e-20
-1.27972e-20
-1.3241e-20
-9.73694e-21
-1.37215e-20
-1.5654e-20
-7.64387e-21
-4.98273e-21
-9.41563e-21
-1.17812e-20
-9.92855e-21
-7.37072e-21
-2.12336e-21
-2.3629e-21
-3.33894e-21
-7.3575e-21
-1.20864e-20
-9.93745e-21
-9.62311e-21
-9.12085e-21
-2.1746e-21
-2.31876e-21
-3.37018e-21
-5.06359e-21
-3.72342e-21
-7.59809e-22
-2.6277e-21
-3.35982e-21
-2.93316e-21
-3.67058e-21
-3.07727e-21
-9.07934e-22
-1.46748e-21
-2.22667e-21
-2.71274e-21
-1.58556e-20
-1.55155e-20
-1.50561e-20
-1.50014e-20
-1.64831e-20
-1.56306e-20
-1.49533e-20
-1.51272e-20
-1.51697e-20
-1.31072e-20
-1.22751e-20
-7.07747e-21
-7.29319e-21
-1.01874e-20
-9.3897e-21
-8.87275e-21
-6.75412e-21
-2.7083e-21
-1.55801e-21
-6.50065e-21
-8.01217e-21
-8.86113e-21
-8.89241e-21
-9.5829e-21
-5.3493e-21
-2.13058e-21
-2.87838e-21
-4.77309e-21
-4.06834e-21
-2.73938e-21
-5.555e-21
-3.3333e-21
1.7681e-22
-5.3641e-21
-6.73717e-21
-2.04962e-21
-7.96843e-22
-2.49625e-21
-1.60088e-21
-2.19898e-21
-1.86815e-20
-1.88232e-20
-1.54321e-20
-1.70479e-20
-1.33002e-20
-1.28635e-20
-1.57287e-20
-1.51479e-20
-1.22035e-20
-1.54152e-20
-1.15938e-20
-1.02629e-20
-1.01691e-20
-1.05224e-20
-9.7887e-21
-8.96538e-21
-6.0063e-21
-1.04752e-21
-1.83968e-21
-5.02389e-21
-8.68287e-21
-1.02812e-20
-1.0882e-20
-1.00302e-20
-4.4372e-21
1.97781e-21
4.01997e-22
-5.62789e-21
-6.8027e-21
1.127e-21
-3.05065e-21
-6.75576e-21
-2.47371e-21
-3.05846e-21
-6.00622e-21
-2.40017e-21
-2.77411e-21
-1.87761e-21
6.46227e-22
-1.28084e-21
-1.25861e-20
-1.95314e-20
-1.85439e-20
-1.5231e-20
-1.18182e-20
-1.45321e-20
-1.93867e-20
-2.02938e-20
-1.40153e-20
-1.05491e-20
-9.17964e-21
-1.33659e-20
-1.21307e-20
-9.02723e-21
-7.20635e-21
-8.68346e-21
-7.12367e-21
-4.44695e-21
-3.93586e-21
-4.59188e-21
-9.90851e-21
-7.46391e-21
-8.40869e-21
-9.80085e-21
-4.23151e-21
-2.3986e-21
-2.40486e-21
-3.14521e-21
-3.53648e-21
-1.74082e-21
-1.27866e-21
-2.80844e-21
-3.64226e-21
-2.06483e-21
-4.53775e-21
-3.45637e-21
-9.27997e-22
-2.22152e-21
-1.00862e-21
1.30227e-21
-1.37513e-20
-1.48134e-20
-1.82652e-20
-1.50492e-20
-1.56434e-20
-1.45877e-20
-1.65881e-20
-1.81053e-20
-1.31236e-20
-9.91863e-21
-1.35001e-20
-1.20709e-20
-1.24028e-20
-9.66221e-21
-1.07702e-20
-1.08735e-20
-6.35905e-21
-5.61709e-21
-2.36413e-21
-5.00324e-21
-9.92123e-21
-9.49262e-21
-8.51829e-21
-5.18792e-21
-2.31754e-21
-4.31748e-21
-4.8093e-21
-2.32464e-21
-2.68524e-21
-1.33631e-21
-2.29688e-21
-1.95644e-21
-3.86125e-21
-3.42553e-21
-6.66861e-21
-4.74281e-21
7.14599e-22
1.51283e-22
-1.69506e-21
3.64047e-22
-1.48072e-20
-1.38614e-20
-1.69209e-20
-1.29456e-20
-1.33122e-20
-1.57011e-20
-1.8494e-20
-1.84422e-20
-1.38949e-20
-1.21846e-20
-1.0703e-20
-1.45713e-20
-7.48879e-21
-1.07568e-20
-1.29798e-20
-9.71521e-21
-7.73744e-21
-6.11564e-21
-6.36572e-21
-3.71516e-21
-1.04343e-20
-7.5809e-21
-7.77067e-21
-4.37377e-21
-3.03063e-21
-1.845e-21
-4.53913e-21
-5.62264e-21
-2.46478e-21
-3.0918e-21
-5.29374e-22
-4.2405e-21
-4.64636e-21
-1.80194e-21
-2.61342e-21
-3.75912e-21
-2.31114e-21
-1.7209e-21
-6.34011e-22
-5.51481e-22
-1.09042e-20
-1.49471e-20
-1.86738e-20
-1.38412e-20
-1.18598e-20
-1.8017e-20
-1.61538e-20
-1.53401e-20
-1.43536e-20
-1.20679e-20
-1.28909e-20
-1.34558e-20
-9.7485e-21
-8.84102e-21
-1.58378e-20
-1.03121e-20
-7.68422e-21
-1.14193e-21
-5.04414e-21
-6.71961e-21
-1.4067e-20
-7.26193e-21
-3.59167e-21
-3.93419e-21
-1.32602e-21
-6.47988e-21
-5.61775e-21
-4.60717e-21
-3.85581e-21
-2.94339e-21
-2.42962e-21
-1.43074e-21
-2.36222e-21
-6.92339e-22
-1.72528e-21
-3.91879e-21
-2.36981e-21
-2.7517e-21
5.88283e-22
3.0805e-22
-9.57203e-21
-1.15493e-20
-1.53822e-20
-1.52967e-20
-1.43757e-20
-1.54104e-20
-1.59056e-20
-1.45204e-20
-1.45646e-20
-1.2617e-20
-1.38174e-20
-1.26165e-20
-1.0085e-20
-6.97475e-21
-1.30958e-20
-1.12254e-20
-9.1806e-21
-7.88325e-21
-1.00857e-20
-9.26845e-21
-1.00564e-20
-1.2329e-21
-4.03637e-21
-4.64178e-21
-2.32855e-21
-3.99658e-21
-5.12636e-21
-3.2166e-21
-3.02337e-21
-2.62704e-21
-6.30047e-21
-1.1699e-21
-1.28391e-21
-1.68602e-21
-6.04818e-22
-1.17856e-21
-2.20946e-21
-9.95913e-22
-2.34426e-21
-2.02065e-21
-9.28126e-21
-1.1595e-20
-1.77267e-20
-1.63526e-20
-1.4191e-20
-1.26922e-20
-1.27145e-20
-1.55149e-20
-1.83783e-20
-1.50075e-20
-1.10879e-20
-1.08378e-20
-1.11658e-20
-1.01736e-20
-1.1991e-20
-1.05937e-20
-7.54419e-21
-6.73727e-21
-1.25943e-20
-8.04982e-21
-8.41306e-21
-6.13854e-21
-3.72916e-21
-4.55266e-21
-1.24994e-21
-1.25272e-21
-9.70833e-21
-7.75126e-21
-3.88095e-21
3.21767e-22
-2.6239e-21
-1.47458e-21
-1.74071e-21
-1.81013e-21
-1.92682e-21
-1.03605e-21
-2.62264e-21
-1.548e-21
-2.64264e-21
-1.85827e-21
-1.19003e-20
-1.47574e-20
-1.6355e-20
-1.43913e-20
-1.10516e-20
-1.33447e-20
-1.36544e-20
-1.33364e-20
-1.54881e-20
-1.51613e-20
-1.53757e-20
-1.34322e-20
-9.53464e-21
-1.27076e-20
-1.2057e-20
-6.10949e-21
-8.14059e-21
-5.85867e-21
-9.66725e-21
-8.75955e-21
-7.68175e-21
-4.58468e-21
-3.05865e-21
-6.07883e-21
-6.06581e-21
-2.49591e-21
-5.00518e-21
-4.82587e-21
-3.70098e-21
-1.87607e-21
-3.77999e-21
-1.50903e-21
-3.12286e-21
1.23037e-22
-1.64438e-21
-2.91548e-21
-1.98505e-21
-2.04142e-21
-7.37749e-22
-2.18716e-21
-1.84204e-20
-1.69798e-20
-1.52564e-20
-1.46268e-20
-1.44939e-20
-1.4101e-20
-1.41789e-20
-1.07284e-20
-1.38176e-20
-1.46601e-20
-1.47952e-20
-1.54219e-20
-1.285e-20
-1.37169e-20
-1.0102e-20
-7.58673e-21
-6.91105e-21
-5.88064e-21
-8.82697e-21
-9.62151e-21
-7.06322e-21
-2.23066e-21
-3.57248e-21
-4.70397e-21
-4.90554e-21
-3.41708e-21
-5.32516e-21
-7.29142e-21
-4.0213e-21
-1.14097e-21
-3.64272e-21
-3.33038e-22
-1.49155e-23
-1.38439e-21
-3.82713e-21
-5.6008e-21
-8.7741e-22
-2.10703e-21
5.89042e-23
6.42443e-22
-1.78634e-20
-1.94847e-20
-1.42866e-20
-1.45541e-20
-1.53251e-20
-1.67605e-20
-1.32489e-20
-1.07023e-20
-1.5905e-20
-1.14128e-20
-1.41343e-20
-1.62357e-20
-1.26933e-20
-9.34889e-21
-8.15777e-21
-8.17549e-21
-6.65087e-21
-3.41617e-21
-4.39683e-21
-9.83231e-21
-8.68474e-21
-4.44086e-21
-6.62824e-21
-5.8249e-21
-5.36172e-21
-5.48358e-21
-4.47531e-21
-4.23182e-21
-3.67221e-21
-2.36544e-21
-3.74894e-21
-1.40161e-21
2.70317e-22
-3.43641e-22
-8.07597e-21
-5.07775e-21
-1.68124e-21
-1.70608e-22
-6.56055e-22
-8.35547e-23
-1.35055e-20
-1.48544e-20
-1.73299e-20
-1.40382e-20
-1.44568e-20
-1.604e-20
-1.49504e-20
-1.49534e-20
-1.1974e-20
-1.33512e-20
-1.5572e-20
-1.58025e-20
-8.29817e-21
-1.26054e-20
-1.3088e-20
-7.54272e-21
-2.83566e-21
-3.27579e-21
-5.70419e-21
-5.92292e-21
-7.18546e-21
-7.52154e-21
-9.55464e-21
-6.88774e-21
-6.19551e-21
-2.34998e-21
-4.87446e-21
-7.01584e-21
-9.12844e-22
-2.58411e-21
-6.16155e-21
-2.52502e-21
9.14315e-22
-3.83771e-21
-8.17833e-21
-5.0577e-21
-3.1827e-21
4.67666e-22
-7.11861e-22
-2.19314e-21
-1.10488e-20
-1.31528e-20
-1.65242e-20
-1.56626e-20
-1.30266e-20
-1.624e-20
-1.46384e-20
-1.38461e-20
-1.05879e-20
-1.45318e-20
-1.77813e-20
-1.38728e-20
-7.3234e-21
-9.8498e-21
-1.06813e-20
-6.59592e-21
-5.49926e-21
-8.56554e-21
-5.02986e-21
-4.84606e-21
-6.87872e-21
-7.55732e-21
-5.71241e-21
-6.61253e-21
-1.0381e-20
-5.28198e-21
-2.96292e-21
-3.83556e-21
-3.97002e-21
-4.02575e-21
-3.31138e-21
-3.40748e-21
-2.16273e-21
-3.14011e-21
-8.37733e-21
-5.02693e-21
-2.76353e-21
-8.20598e-22
-2.35225e-22
-1.12326e-21
-1.50685e-20
-1.68635e-20
-1.49945e-20
-1.29691e-20
-1.14908e-20
-1.42508e-20
-1.45566e-20
-1.69342e-20
-8.99858e-21
-1.18173e-20
-1.9288e-20
-1.56802e-20
-9.65946e-21
-1.01399e-20
-5.7048e-21
-7.5415e-21
-7.87841e-21
-4.59798e-21
-2.00989e-21
-6.41022e-21
-5.92271e-21
-8.5938e-21
-8.72156e-21
-9.9843e-21
-8.40872e-21
-7.79508e-21
-4.06278e-21
-5.696e-21
-4.75588e-21
-1.44277e-21
-2.3623e-21
-2.94208e-21
-3.08924e-21
-2.97906e-21
-4.62524e-21
-5.81368e-21
-3.83827e-21
-1.32673e-21
-1.93267e-23
-2.63975e-22
-1.00812e-20
-1.33169e-20
-1.52385e-20
-1.92608e-20
-1.26237e-20
-1.53642e-20
-1.33179e-20
-1.16931e-20
-1.01562e-20
-1.26986e-20
-1.77433e-20
-1.40913e-20
-8.34028e-21
-9.44905e-21
-6.67296e-21
-1.05639e-20
-7.201e-21
-4.99643e-21
-5.89051e-22
-4.56508e-21
-3.92367e-21
-9.73719e-21
-8.24343e-21
-8.25798e-21
-9.56919e-21
-7.40207e-21
-2.90508e-21
-2.02849e-21
-6.94313e-21
-2.6853e-21
4.03365e-22
-2.67102e-21
-3.69855e-21
-3.04737e-21
-9.39249e-21
-2.7714e-21
-3.95031e-21
-3.17499e-21
-9.09189e-22
-1.97176e-21
-9.67089e-21
-1.40185e-20
-1.47436e-20
-1.61421e-20
-1.34228e-20
-1.45066e-20
-1.33024e-20
-1.19876e-20
-1.1783e-20
-1.22452e-20
-1.70838e-20
-7.84511e-21
-9.4607e-21
-1.20514e-20
-6.75993e-21
-6.74986e-21
-7.63533e-21
-5.25668e-21
-4.74558e-21
-5.39677e-21
-6.12085e-21
-3.98675e-21
-8.05049e-21
-8.77919e-21
-6.68345e-21
-5.71386e-21
-4.81695e-21
-3.76201e-21
-4.99661e-21
-2.96229e-21
-2.11916e-21
-3.07262e-21
-5.6258e-21
-6.66236e-21
-5.98785e-21
-3.92383e-21
-3.80369e-21
-2.28161e-21
-2.18143e-21
-2.79823e-21
-1.29929e-20
-1.85752e-20
-1.50088e-20
-9.98374e-21
-1.73088e-20
-1.63561e-20
-1.37684e-20
-1.12423e-20
-1.18741e-20
-1.31693e-20
-1.35765e-20
-8.22557e-21
-9.29882e-21
-1.24037e-20
-9.19779e-21
-8.30015e-21
-7.48598e-21
-1.82556e-21
-4.46457e-21
-4.37916e-21
-7.52276e-21
-6.19359e-21
-6.17518e-21
-6.69537e-21
-7.87478e-21
-4.45543e-21
-4.3891e-21
-5.70992e-21
-3.75121e-21
-5.42988e-21
-1.17979e-21
-3.39081e-21
-4.90409e-21
-4.18112e-21
-7.48644e-21
-4.81169e-21
-3.41633e-21
-4.27525e-21
-1.34241e-21
-7.35594e-22
-1.16519e-20
-1.57555e-20
-1.77564e-20
-1.19185e-20
-1.30318e-20
-1.80019e-20
-1.41977e-20
-7.10593e-21
-1.11063e-20
-1.6828e-20
-1.16539e-20
-1.09501e-20
-9.89151e-21
-1.36233e-20
-1.00541e-20
-9.43345e-21
-6.53378e-21
-5.97127e-21
-2.5956e-21
-2.84341e-21
-4.58224e-21
-7.9647e-21
-8.84011e-21
-7.67548e-21
-1.07308e-20
-6.84329e-21
-1.99513e-21
7.86406e-22
-3.18022e-21
-2.48078e-21
-4.28849e-21
-6.24927e-21
-5.31409e-21
-2.45912e-21
-4.44944e-21
-6.81579e-21
-4.13631e-21
-1.08031e-21
-7.9284e-22
-7.99995e-22
-1.31173e-20
-1.35944e-20
-1.4531e-20
-1.46566e-20
-1.47794e-20
-1.46228e-20
-1.44371e-20
-1.20593e-20
-1.08368e-20
-1.25029e-20
-1.05236e-20
-1.02479e-20
-1.13027e-20
-1.29875e-20
-1.05526e-20
-1.01002e-20
-5.94379e-21
-6.23419e-21
-3.02898e-21
-4.75209e-21
-6.52177e-21
-7.5136e-21
-1.00144e-20
-8.07405e-21
-8.467e-21
-5.55163e-21
-2.22667e-21
-3.97082e-21
-4.18928e-21
-2.54014e-21
-3.19997e-21
-3.54764e-21
-2.61849e-21
-1.80835e-21
-2.89311e-21
-6.86672e-21
-3.34108e-21
-1.70442e-21
-2.11393e-21
-2.62049e-21
-1.63873e-20
-1.5097e-20
-1.24529e-20
-1.31304e-20
-1.6824e-20
-1.56402e-20
-1.32015e-20
-1.15598e-20
-1.22878e-20
-1.02959e-20
-8.09565e-21
-1.12555e-20
-1.39233e-20
-1.2609e-20
-8.29634e-21
-9.00323e-21
-5.16146e-21
-3.68047e-21
-2.13582e-21
-4.98664e-21
-4.55512e-21
-8.08925e-21
-1.46883e-20
-9.08127e-21
-8.49226e-21
-7.81501e-21
-1.22613e-21
-7.27093e-22
-2.48219e-21
-4.4411e-21
-3.89577e-21
-6.03937e-21
1.00398e-21
-1.58987e-21
-5.75106e-21
-3.1942e-21
-2.56731e-21
1.38401e-22
-1.80758e-21
-3.25105e-21
-1.05944e-20
-1.14323e-20
-1.31428e-20
-1.12785e-20
-1.83161e-20
-1.51898e-20
-1.35806e-20
-1.36657e-20
-1.21738e-20
-1.16511e-20
-1.09929e-20
-8.48329e-21
-1.26805e-20
-1.00767e-20
-6.62276e-21
-9.00896e-21
-7.94378e-21
-4.97595e-21
-3.28175e-21
-6.91962e-22
-4.55066e-21
-7.16068e-21
-1.24546e-20
-1.07053e-20
-9.28579e-21
-7.54118e-21
8.90566e-22
-2.74054e-22
-3.79844e-21
-3.56335e-21
-3.42521e-21
-4.69343e-21
-8.72482e-22
-1.13098e-22
-2.03869e-21
-4.49434e-21
-1.81159e-21
-2.30497e-21
-1.00949e-21
-9.85875e-22
-1.18052e-20
-1.26316e-20
-1.31063e-20
-1.41438e-20
-1.5382e-20
-1.08117e-20
-1.30827e-20
-1.18416e-20
-1.1575e-20
-8.95058e-21
-9.74162e-21
-1.42983e-20
-1.24127e-20
-8.36423e-21
-7.96931e-21
-1.07429e-20
-1.0098e-20
-3.05473e-21
-3.66341e-21
-3.9985e-21
-3.30204e-21
-5.23258e-21
-1.0834e-20
-1.01873e-20
-7.39535e-21
-5.98706e-21
-2.9998e-21
-2.19785e-21
-1.41409e-21
-4.08165e-21
-4.02456e-21
-3.49603e-21
-1.87742e-21
-1.37287e-23
2.14032e-21
-4.69277e-21
-2.87527e-21
6.25578e-22
-1.53015e-21
-2.5548e-21
-1.34278e-20
-1.1012e-20
-1.0399e-20
-1.03373e-20
-1.38772e-20
-1.49457e-20
-1.39022e-20
-1.49822e-20
-1.22858e-20
-9.22846e-21
-5.89493e-21
-1.23607e-20
-7.11e-21
-7.10312e-21
-8.14458e-21
-1.06186e-20
-1.19717e-20
-5.01927e-21
-2.35638e-21
-3.78e-21
-3.7582e-21
-7.76584e-21
-7.24692e-21
-7.71715e-21
-8.47453e-21
-5.1689e-21
-4.30344e-21
-7.23424e-21
-1.47023e-21
-3.12583e-21
-4.99063e-21
-4.20348e-21
-3.80963e-21
-2.46553e-21
1.23769e-21
2.3312e-21
-1.55794e-21
4.44394e-22
1.22794e-21
-2.09964e-22
-8.40655e-21
-1.09578e-20
-1.22194e-20
-9.19152e-21
-1.0123e-20
-1.58614e-20
-1.2347e-20
-1.26029e-20
-1.25567e-20
-1.23203e-20
-1.17314e-20
-6.18524e-21
-8.9843e-21
-7.81505e-21
-8.61617e-21
-8.05823e-21
-7.3695e-21
-5.05302e-21
-5.43519e-21
-5.1916e-21
-4.21638e-21
-6.66265e-21
-7.26491e-21
-8.48886e-21
-7.36605e-21
-4.71795e-21
-2.71078e-21
-2.98911e-21
-4.06965e-21
-1.65176e-21
-5.0471e-21
-4.06054e-21
-2.58354e-21
-3.01524e-21
-2.75931e-21
2.24701e-22
1.24265e-21
1.07967e-21
1.50079e-21
-6.89285e-22
-6.9869e-21
-1.02289e-20
-1.14946e-20
-9.92251e-21
-8.99922e-21
-1.43021e-20
-1.34883e-20
-1.03737e-20
-1.00287e-20
-1.01027e-20
-1.02833e-20
-9.37028e-21
-1.14695e-20
-5.03997e-21
-7.90194e-21
-8.33092e-21
-5.54871e-21
-9.44802e-22
-3.28459e-21
-8.55443e-21
-3.44709e-21
-8.67382e-21
-9.44471e-21
-6.89969e-21
-6.9358e-21
-6.24667e-21
-6.36289e-21
-5.59062e-22
-2.36509e-21
-1.95372e-21
-5.57831e-21
-3.29569e-21
-4.06173e-21
-1.8903e-21
-1.12983e-21
-1.48684e-22
1.1298e-21
-1.67871e-21
-6.04681e-22
-7.29999e-23
-4.8848e-21
-9.27789e-21
-1.22023e-20
-7.56776e-21
-8.15479e-21
-1.20212e-20
-1.04119e-20
-9.69482e-21
-9.45142e-21
-9.92558e-21
-6.5137e-21
-9.77321e-21
-1.06229e-20
-9.92197e-21
-4.15271e-21
-3.96747e-21
-2.91364e-21
-4.65519e-21
-5.85729e-21
-7.45129e-21
-6.42361e-21
-5.65303e-21
-7.72426e-21
-9.1864e-21
-4.7078e-21
-3.81322e-21
-5.51775e-21
-3.57488e-21
-1.26878e-22
-3.17428e-21
-4.69696e-21
-3.6134e-21
-5.77847e-21
-1.8795e-21
-2.23258e-21
-1.73881e-21
1.85358e-21
3.4883e-21
-1.98333e-22
-7.94698e-22
-5.97997e-21
-7.92369e-21
-1.08829e-20
-6.64926e-21
-5.71616e-21
-1.40579e-20
-1.12974e-20
-6.44714e-21
-9.72286e-21
-9.64579e-21
-6.58821e-21
-6.83116e-21
-7.44265e-21
-7.36207e-21
-6.96721e-21
-3.68771e-21
-4.19966e-21
-2.35482e-21
-5.95383e-21
-5.73895e-21
-3.43891e-21
-5.72424e-21
-7.24708e-21
-1.16211e-20
-8.8427e-21
-4.12049e-21
-3.36028e-21
-8.57022e-22
-2.5893e-21
-2.47006e-21
-1.82036e-21
-3.05374e-21
-3.60644e-21
-1.23435e-21
-8.30951e-22
-3.286e-21
6.56381e-23
5.75106e-22
2.12599e-21
1.54086e-22
-5.67651e-21
-6.30391e-21
-6.53961e-21
-3.26257e-21
-4.06436e-21
-3.14317e-21
-8.45307e-21
-4.84038e-21
-6.76011e-21
-6.28024e-21
-2.52769e-21
-2.60688e-21
-5.98348e-21
-4.86676e-21
-3.62108e-21
-3.18308e-21
-1.31401e-21
-1.01832e-22
-5.97198e-21
-1.97827e-21
-5.71759e-21
-7.10751e-21
-6.18357e-21
-5.33029e-21
-4.35915e-21
-2.62051e-21
-1.36248e-21
-8.67177e-22
-7.04948e-22
7.6036e-22
-5.96945e-22
-1.30882e-21
-2.3272e-21
-2.13362e-21
1.20473e-22
-5.33512e-21
-1.76196e-21
-7.50611e-22
-6.85427e-23
6.27712e-22
-6.55014e-21
-9.68147e-21
-1.30781e-20
-9.49741e-21
-9.5637e-21
-1.19482e-20
-8.17841e-21
-4.80585e-21
-1.20498e-20
-1.11905e-20
-4.82196e-21
-9.72344e-21
-1.10147e-20
-6.02743e-21
-7.27456e-21
-9.42767e-21
-5.73587e-21
-1.03252e-22
-3.03209e-21
-7.15506e-21
-3.83065e-21
-3.55925e-21
-4.68479e-21
-4.56324e-21
-2.39948e-21
-1.61983e-21
-3.4079e-21
-3.64505e-21
-6.2021e-21
-5.88902e-21
-6.41666e-21
-2.69334e-21
-1.56092e-21
8.50958e-22
-3.73591e-21
-5.20675e-21
-9.90679e-22
-2.21518e-21
-1.57486e-21
6.7042e-23
-1.04923e-20
-1.35776e-20
-1.70341e-20
-1.47643e-20
-1.27582e-20
-1.55913e-20
-1.47417e-20
-9.74743e-21
-9.72343e-21
-1.72168e-20
-1.28511e-20
-1.33992e-20
-1.29524e-20
-1.06818e-20
-1.10865e-20
-9.88976e-21
-7.57594e-21
-5.89585e-21
-6.48676e-21
-7.12155e-21
-5.92948e-21
-6.31545e-21
-7.43504e-21
-9.79118e-21
-3.2893e-21
-2.95968e-21
-3.368e-21
-2.87918e-21
-9.18824e-21
-5.00596e-21
-2.88575e-21
-1.69293e-21
-2.7595e-21
-2.04072e-21
-7.23682e-21
-3.95599e-21
7.19335e-22
2.34028e-21
3.47764e-22
4.98804e-22
-1.25132e-20
-1.47215e-20
-1.35504e-20
-1.60808e-20
-1.47749e-20
-1.53557e-20
-1.68711e-20
-1.2399e-20
-1.59666e-20
-1.72978e-20
-1.386e-20
-1.36474e-20
-1.1234e-20
-8.22216e-21
-1.06116e-20
-1.06172e-20
-1.02591e-20
-8.6781e-21
-3.32298e-21
-7.13007e-21
-6.24751e-21
-4.05895e-21
-4.87376e-21
-6.66269e-21
-6.71101e-21
-4.2279e-21
-5.27984e-21
-5.14217e-21
-4.97601e-21
-6.94828e-21
-6.85928e-21
-2.91353e-21
-1.40486e-21
-2.10876e-21
-5.21599e-21
-1.98353e-21
9.45066e-22
-1.91681e-22
-4.44601e-22
1.59941e-21
-1.74119e-20
-1.58668e-20
-1.5361e-20
-1.99967e-20
-1.60276e-20
-1.57946e-20
-1.64229e-20
-1.45834e-20
-1.53074e-20
-1.47061e-20
-1.57285e-20
-1.63728e-20
-1.0571e-20
-1.13356e-20
-1.32284e-20
-8.5049e-21
-8.50509e-21
-8.32703e-21
-5.83701e-21
-4.78146e-21
-7.62358e-21
-7.11609e-21
-7.20205e-21
-7.43999e-21
-6.23933e-21
-5.59799e-21
-5.10331e-21
-4.05461e-21
-4.34315e-21
-7.3599e-21
-6.56058e-21
-1.40048e-21
-4.54382e-21
-3.06143e-21
-3.35214e-21
-1.37398e-21
7.81955e-22
-9.46938e-22
-1.23148e-21
-3.04484e-22
-1.86971e-20
-1.68998e-20
-1.564e-20
-1.84792e-20
-1.98341e-20
-1.94522e-20
-1.55902e-20
-1.37393e-20
-1.15758e-20
-1.6169e-20
-1.51768e-20
-1.53487e-20
-1.00075e-20
-1.27126e-20
-1.66407e-20
-1.23687e-20
-8.63737e-21
-7.44291e-21
-5.67932e-21
-5.8476e-21
-6.8271e-21
-6.60997e-21
-7.31982e-21
-8.27711e-21
-8.13206e-21
-4.26585e-21
-5.12966e-21
-5.47841e-21
-4.80898e-21
-4.76619e-21
-5.42781e-21
-4.75171e-21
-1.63606e-21
-1.44133e-21
-3.24333e-21
-1.32516e-21
2.39745e-22
-1.08893e-21
-7.05313e-22
-1.45998e-21
-1.66152e-20
-1.8541e-20
-1.66167e-20
-1.71567e-20
-1.95076e-20
-2.02644e-20
-1.39927e-20
-1.64855e-20
-1.74365e-20
-1.57376e-20
-1.42901e-20
-1.5019e-20
-1.37146e-20
-1.21767e-20
-1.50743e-20
-1.19765e-20
-1.12438e-20
-7.17161e-21
-5.50241e-21
-5.27704e-21
-7.27442e-21
-9.15142e-21
-8.09882e-21
-7.44381e-21
-7.60492e-21
-5.05202e-21
-5.41837e-21
-4.39864e-21
-6.33112e-21
-6.20581e-21
-5.92064e-21
-3.31152e-21
1.35672e-22
-2.53947e-21
-3.57579e-21
-2.12234e-21
-7.6372e-22
5.53003e-22
1.66746e-21
-2.008e-21
-1.90668e-20
-2.11068e-20
-1.7784e-20
-1.83021e-20
-2.01973e-20
-1.77196e-20
-1.68465e-20
-1.65558e-20
-1.79562e-20
-1.6635e-20
-1.6174e-20
-1.46363e-20
-1.18458e-20
-1.3325e-20
-1.55871e-20
-1.14395e-20
-8.19682e-21
-5.93309e-21
-7.64134e-21
-6.13533e-21
-7.37801e-21
-9.16074e-21
-9.17981e-21
-9.24356e-21
-7.23049e-21
-5.68938e-21
-6.43021e-21
-3.72021e-21
-4.35946e-21
-2.67234e-21
-5.99322e-21
-6.13631e-21
1.26997e-21
1.4344e-22
-3.48399e-21
-3.27106e-21
-2.17884e-21
-1.26067e-21
-7.83399e-22
-2.58078e-21
-1.80944e-20
-1.96081e-20
-1.79452e-20
-1.99963e-20
-2.1224e-20
-1.61083e-20
-1.67258e-20
-1.85004e-20
-1.87747e-20
-1.89154e-20
-1.60193e-20
-1.47852e-20
-1.1968e-20
-1.24438e-20
-1.41535e-20
-1.22979e-20
-9.49681e-21
-6.20605e-21
-6.21811e-21
-4.09176e-21
-6.64021e-21
-1.2858e-20
-1.00526e-20
-7.8964e-21
-9.72271e-21
-5.97769e-21
-5.61582e-21
-6.23978e-21
-2.75074e-21
-3.88606e-21
-7.74504e-21
-3.34393e-21
-2.64614e-21
-2.84899e-21
-3.33503e-21
-1.48804e-21
-2.61003e-22
6.70156e-22
-1.77025e-21
-3.99048e-22
-1.89486e-20
-2.24607e-20
-2.0133e-20
-2.04383e-20
-1.90429e-20
-1.80457e-20
-1.77178e-20
-1.80117e-20
-1.87045e-20
-1.7949e-20
-1.53015e-20
-1.60012e-20
-1.19956e-20
-1.25495e-20
-1.37716e-20
-1.16662e-20
-1.05144e-20
-5.25795e-21
-7.28973e-21
-7.18287e-21
-5.32833e-21
-1.18654e-20
-1.15944e-20
-1.13676e-20
-8.17009e-21
-5.53851e-21
-5.66054e-21
-5.95612e-21
-5.74131e-22
-7.9452e-21
-5.82945e-21
-3.55142e-21
-2.48115e-21
-1.95434e-21
-2.44435e-21
-1.07994e-21
-6.20511e-22
-1.39707e-22
-4.1738e-22
-1.20725e-21
-1.89908e-20
-2.00563e-20
-1.82816e-20
-2.09751e-20
-2.18091e-20
-2.02272e-20
-2.11449e-20
-1.83468e-20
-1.49125e-20
-1.64804e-20
-1.70848e-20
-1.37891e-20
-1.30956e-20
-1.40222e-20
-1.47066e-20
-1.20488e-20
-9.30391e-21
-5.64385e-21
-4.38274e-21
-4.28981e-21
-9.21801e-21
-1.28397e-20
-1.23589e-20
-1.17576e-20
-7.69878e-21
-5.92331e-21
-5.44448e-21
-4.1731e-21
-4.82003e-21
-6.55153e-21
-2.65688e-21
-2.73614e-21
-4.19617e-21
-2.65255e-21
-3.60375e-21
-1.11962e-21
7.40265e-22
-7.07084e-22
-6.96175e-22
-4.13532e-22
-2.18809e-20
-2.44323e-20
-2.08596e-20
-1.98103e-20
-2.03918e-20
-1.97426e-20
-2.13173e-20
-2.20285e-20
-1.79592e-20
-1.69009e-20
-1.31027e-20
-1.0032e-20
-1.24685e-20
-1.12399e-20
-1.44273e-20
-1.37915e-20
-9.80661e-21
-6.53058e-21
-5.04854e-21
-6.96144e-21
-1.02951e-20
-1.03268e-20
-1.22031e-20
-1.37258e-20
-7.1824e-21
-5.01394e-21
-4.77034e-21
-5.78696e-21
-5.29292e-21
-5.60286e-21
-3.76284e-21
-2.61551e-21
-3.49293e-21
-2.88691e-21
-3.35872e-21
-1.27398e-21
-6.71648e-22
-1.58658e-21
-2.57373e-21
-2.81107e-21
-2.25268e-20
-2.49074e-20
-2.07818e-20
-1.92911e-20
-1.88855e-20
-2.13318e-20
-2.05914e-20
-1.99966e-20
-1.67939e-20
-1.8539e-20
-1.40603e-20
-1.21195e-20
-1.31264e-20
-1.21191e-20
-1.37886e-20
-1.47681e-20
-1.04331e-20
-5.45139e-21
-3.02167e-21
-6.88993e-21
-1.08192e-20
-1.22601e-20
-1.08289e-20
-1.18646e-20
-4.96232e-21
-6.80949e-21
-6.21965e-21
-4.95583e-21
-2.78096e-21
-5.84818e-21
-4.85742e-21
-3.4179e-21
-2.0921e-21
-2.54419e-21
-2.81178e-21
-2.6382e-21
-3.36351e-23
-1.54681e-21
-2.68213e-21
-1.49056e-21
-2.38174e-20
-2.34925e-20
-2.07725e-20
-2.23997e-20
-2.0224e-20
-2.22711e-20
-1.97688e-20
-1.90115e-20
-1.88211e-20
-1.68456e-20
-1.29735e-20
-1.4489e-20
-1.40199e-20
-1.30341e-20
-1.30629e-20
-1.16213e-20
-7.61039e-21
-7.11242e-21
-6.72839e-21
-7.63191e-21
-8.99878e-21
-9.4082e-21
-1.09669e-20
-1.10458e-20
-7.66414e-21
-4.27332e-21
-5.9434e-21
-4.37513e-21
-4.25122e-21
-3.33635e-21
-4.67791e-21
-4.71724e-21
-2.58717e-21
-1.85988e-21
-8.15198e-21
-1.2451e-21
8.23409e-22
-4.22799e-21
-3.68533e-21
-8.88504e-22
-2.55316e-20
-2.59272e-20
-2.27934e-20
-2.32465e-20
-2.11924e-20
-1.97449e-20
-2.02701e-20
-1.87991e-20
-1.84396e-20
-1.89698e-20
-1.49679e-20
-1.33356e-20
-1.61295e-20
-1.09242e-20
-1.26323e-20
-1.18253e-20
-1.19654e-20
-7.16198e-21
-4.43752e-21
-4.76667e-21
-1.12157e-20
-1.10475e-20
-1.04693e-20
-1.21705e-20
-6.78549e-21
-3.30562e-21
-3.79252e-21
-4.1477e-21
-5.40729e-21
-3.99128e-21
-5.41539e-21
-4.44433e-21
-2.00794e-21
-3.44403e-21
-6.26181e-21
-2.27826e-21
-9.28819e-22
2.25339e-21
-6.31875e-22
-3.93392e-22
-2.84551e-20
-2.54639e-20
-2.12799e-20
-2.02759e-20
-2.11095e-20
-1.89359e-20
-2.09302e-20
-1.92824e-20
-1.96374e-20
-1.61012e-20
-1.48817e-20
-1.61742e-20
-1.66865e-20
-1.36579e-20
-1.22668e-20
-1.00612e-20
-8.94533e-21
-7.58018e-21
-7.67284e-21
-8.49892e-21
-8.72773e-21
-1.08975e-20
-1.26705e-20
-9.29619e-21
-6.53946e-21
-5.17397e-21
-3.18069e-21
-4.28759e-21
-5.48704e-21
-3.98038e-21
-6.1685e-21
-4.29854e-21
-3.60105e-21
-6.9027e-22
-4.96141e-21
-3.8865e-21
2.13408e-21
-2.78393e-22
-9.27806e-22
-1.00344e-22
-2.46096e-20
-2.60084e-20
-2.34742e-20
-2.23467e-20
-2.10468e-20
-2.00938e-20
-2.01358e-20
-1.9327e-20
-1.84085e-20
-1.50485e-20
-1.70411e-20
-1.79725e-20
-1.82834e-20
-1.38846e-20
-1.27021e-20
-1.19281e-20
-8.69767e-21
-8.50282e-21
-7.38726e-21
-6.46176e-21
-1.03367e-20
-1.19209e-20
-1.2238e-20
-8.04594e-21
-6.65384e-21
-5.2233e-21
-3.78333e-21
-4.4392e-21
-5.58119e-21
-3.83504e-21
-4.39608e-21
-3.86378e-21
-3.03148e-21
-2.15276e-21
-4.19389e-21
-2.36459e-21
5.3966e-24
-2.14865e-21
-1.55604e-21
-1.15835e-21
-2.28719e-20
-2.3211e-20
-2.44238e-20
-2.12221e-20
-2.42697e-20
-2.2653e-20
-2.09227e-20
-2.09499e-20
-1.88252e-20
-1.44848e-20
-1.61037e-20
-1.79098e-20
-1.7411e-20
-1.51572e-20
-1.34428e-20
-9.90137e-21
-7.95584e-21
-7.24801e-21
-1.14046e-20
-1.06177e-20
-1.20289e-20
-7.95317e-21
-7.71948e-21
-6.90671e-21
-6.14742e-21
-5.17595e-21
-4.0907e-21
-5.05764e-21
-5.89466e-21