/*--------------------------------*- C++ -*----------------------------------*\
| =========                 |                                                 |
| \\      /  F ield         | OpenFOAM: The Open Source CFD Toolbox           |
|  \\    /   O peration     | Version:  v2012                                 |
|   \\  /    A nd           | Website:  www.openfoam.com                      |
|    \\/     M anipulation  |                                                 |
\*---------------------------------------------------------------------------*/
FoamFile
{
    version     2.0;
    format      ascii;
    class       surfaceScalarField;
    location    "37";
    object      phi;
}
// * * * * * * * * * * * * * * * * * * * * * * * * * * * * * * * * * * * * * //

dimensions      [0 3 -1 0 0 0 0];
oriented        oriented;


internalField   nonuniform List<scalar> 
187200
(
1.875e-06
2.99238e-22
2.74499e-22
1.875e-06
3.10257e-22
3.53516e-22
1.875e-06
3.84794e-22
4.90549e-22
1.875e-06
3.55943e-22
4.02525e-22
1.875e-06
3.16336e-22
2.53775e-22
1.875e-06
4.67403e-22
4.19133e-22
1.875e-06
4.05952e-22
3.39795e-22
1.875e-06
3.10998e-22
2.83321e-22
1.875e-06
2.44811e-22
4.04641e-22
1.875e-06
3.72459e-22
3.6358e-22
1.875e-06
4.51334e-22
2.45172e-22
1.875e-06
3.5915e-22
3.05169e-22
1.875e-06
2.57766e-22
3.72411e-22
1.875e-06
2.04826e-22
1.88162e-22
1.875e-06
2.16482e-22
2.75723e-22
1.875e-06
1.62252e-22
2.87015e-22
1.875e-06
2.00543e-22
2.60411e-22
1.875e-06
9.49491e-23
1.16987e-22
1.875e-06
7.1283e-23
1.18897e-22
1.875e-06
1.41512e-22
2.00246e-22
1.875e-06
6.69845e-23
1.66973e-22
1.875e-06
1.53771e-22
1.64335e-22
1.875e-06
2.15851e-22
1.67504e-22
1.875e-06
2.96556e-22
1.40389e-22
1.875e-06
2.01188e-22
9.43129e-23
1.875e-06
1.41333e-22
5.76885e-23
1.875e-06
1.93669e-22
1.82899e-22
1.875e-06
1.17866e-22
8.42385e-23
1.875e-06
1.26053e-22
1.79454e-22
1.875e-06
6.88976e-23
1.80433e-22
1.875e-06
-1.40084e-23
1.64576e-22
1.875e-06
5.45981e-24
1.07804e-22
1.875e-06
9.1361e-23
9.06303e-23
1.875e-06
1.1386e-22
6.79408e-24
1.875e-06
2.58856e-23
9.51516e-23
1.875e-06
-7.96683e-23
7.46537e-24
1.875e-06
-5.88566e-23
3.63139e-23
1.875e-06
-8.95562e-23
1.85835e-22
1.875e-06
-5.9516e-23
1.02749e-22
-1.43504e-23
5.60408e-23
1.875e-06
4.35558e-24
2.35167e-22
1.875e-06
1.54762e-22
5.52755e-22
1.875e-06
3.16943e-22
7.23815e-22
1.875e-06
3.43742e-22
7.72081e-22
1.875e-06
2.51883e-22
6.38798e-22
1.875e-06
3.21344e-22
6.84881e-22
1.875e-06
3.66797e-22
7.55179e-22
1.875e-06
3.73754e-22
6.98708e-22
1.875e-06
4.59653e-22
7.42287e-22
1.875e-06
3.30214e-22
7.93299e-22
1.875e-06
2.22783e-22
5.95089e-22
1.875e-06
2.01375e-22
5.6635e-22
1.875e-06
2.79373e-22
6.53144e-22
1.875e-06
1.86989e-22
6.05659e-22
1.875e-06
8.80681e-23
5.9677e-22
1.875e-06
4.73276e-23
5.51253e-22
1.875e-06
2.87508e-22
4.98251e-22
1.875e-06
3.20699e-22
5.63228e-22
1.875e-06
1.20738e-22
4.65392e-22
1.875e-06
-2.58829e-23
2.92378e-22
1.875e-06
1.75775e-22
4.29548e-22
1.875e-06
2.0388e-22
3.63477e-22
1.875e-06
1.55818e-22
2.59266e-22
1.875e-06
1.1149e-22
2.39808e-22
1.875e-06
1.24698e-22
1.79804e-22
1.875e-06
1.70923e-22
2.16649e-22
1.875e-06
1.26985e-22
1.92128e-22
1.875e-06
6.4716e-23
1.34725e-22
1.875e-06
-1.51191e-24
3.23591e-22
1.875e-06
7.03554e-23
2.44543e-22
1.875e-06
1.20165e-22
2.4227e-22
1.875e-06
7.85018e-23
1.17554e-22
1.875e-06
-1.53278e-23
1.51512e-23
1.875e-06
-3.69297e-23
4.30607e-23
1.875e-06
2.47304e-23
2.13279e-22
1.875e-06
-4.98747e-24
1.33024e-22
1.875e-06
-7.2944e-23
1.13554e-25
1.875e-06
-7.55918e-23
8.00068e-23
1.875e-06
-8.14637e-23
8.74734e-23
-1.20249e-22
2.43732e-24
1.875e-06
1.66451e-22
3.99779e-22
1.875e-06
1.55528e-22
6.66613e-22
1.875e-06
1.32955e-22
6.99393e-22
1.875e-06
3.05427e-22
8.43924e-22
1.875e-06
3.09316e-22
8.45274e-22
1.875e-06
3.32844e-22
8.29951e-22
1.875e-06
3.04716e-22
9.22553e-22
1.875e-06
2.96834e-22
8.91237e-22
1.875e-06
2.88494e-22
9.52241e-22
1.875e-06
2.9161e-22
8.8447e-22
1.875e-06
3.2173e-22
7.97997e-22
1.875e-06
1.97037e-22
7.47699e-22
1.875e-06
2.43718e-22
6.67776e-22
1.875e-06
1.95387e-22
6.75185e-22
1.875e-06
2.08004e-22
7.04141e-22
1.875e-06
2.07541e-22
7.60595e-22
1.875e-06
1.03781e-22
5.15275e-22
1.875e-06
2.01592e-22
5.61289e-22
1.875e-06
1.4469e-22
5.28369e-22
1.875e-06
7.16157e-23
4.3465e-22
1.875e-06
1.33684e-22
4.39585e-22
1.875e-06
9.52602e-23
2.80098e-22
1.875e-06
2.21344e-22
2.07814e-22
1.875e-06
1.75252e-22
2.45916e-22
1.875e-06
2.52894e-22
3.57642e-22
1.875e-06
5.69922e-23
3.13163e-22
1.875e-06
5.17447e-23
2.98654e-22
1.875e-06
-3.18455e-23
2.59109e-22
1.875e-06
3.48385e-23
3.1037e-22
1.875e-06
5.43522e-23
3.47515e-22
1.875e-06
1.66789e-23
2.35155e-22
1.875e-06
1.99747e-23
1.51606e-22
1.875e-06
-2.77075e-23
7.74212e-23
1.875e-06
1.88619e-23
1.23486e-22
1.875e-06
-1.88555e-24
1.68372e-22
1.875e-06
-2.62011e-23
5.66728e-24
1.875e-06
-3.30931e-24
-2.50828e-23
1.875e-06
3.68802e-23
1.99207e-22
1.875e-06
2.53375e-23
1.14839e-22
-7.11952e-24
1.47156e-23
1.875e-06
2.40598e-22
4.49318e-22
1.875e-06
1.902e-22
7.42994e-22
1.875e-06
1.56316e-22
8.44235e-22
1.875e-06
1.29068e-22
9.37941e-22
1.875e-06
2.11743e-22
9.08044e-22
1.875e-06
1.96986e-22
8.39015e-22
1.875e-06
1.78759e-22
9.00346e-22
1.875e-06
2.2416e-22
9.82649e-22
1.875e-06
1.71096e-22
9.89916e-22
1.875e-06
2.74257e-22
9.25536e-22
1.875e-06
2.45757e-22
8.61812e-22
1.875e-06
1.54374e-22
9.20169e-22
1.875e-06
8.2678e-23
6.26933e-22
1.875e-06
1.40806e-22
7.84216e-22
1.875e-06
3.5189e-22
8.89279e-22
1.875e-06
4.86518e-22
6.70927e-22
1.875e-06
1.83135e-22
5.3942e-22
1.875e-06
9.38403e-23
5.97144e-22
1.875e-06
1.7206e-22
5.96345e-22
1.875e-06
1.401e-22
5.27281e-22
1.875e-06
7.07185e-23
4.46276e-22
1.875e-06
1.33158e-22
3.66671e-22
1.875e-06
1.15902e-22
2.3031e-22
1.875e-06
1.28538e-22
2.99824e-22
1.875e-06
7.69683e-23
2.91916e-22
1.875e-06
1.455e-22
4.30578e-22
1.875e-06
4.77077e-23
3.46901e-22
1.875e-06
5.52959e-23
3.13976e-22
1.875e-06
7.51071e-23
2.50867e-22
1.875e-06
-5.26442e-23
3.39641e-22
1.875e-06
-8.11353e-24
3.48647e-22
1.875e-06
-1.52319e-23
1.81014e-22
1.875e-06
-2.29517e-23
2.18136e-22
1.875e-06
-8.42997e-24
1.52e-22
1.875e-06
4.80122e-23
1.01962e-22
1.875e-06
-5.70488e-23
-7.07977e-24
1.875e-06
1.59628e-23
2.00207e-23
1.875e-06
8.08592e-23
1.18539e-22
1.875e-06
-7.0772e-23
7.62308e-23
4.47925e-23
5.21883e-23
1.875e-06
2.98541e-23
3.3754e-22
1.875e-06
1.49152e-22
7.9277e-22
1.875e-06
9.24964e-23
8.77294e-22
1.875e-06
1.18532e-22
9.84542e-22
1.875e-06
1.53373e-22
1.0432e-21
1.875e-06
7.29334e-23
9.84614e-22
1.875e-06
7.59119e-23
9.90561e-22
1.875e-06
2.90819e-22
1.01934e-21
1.875e-06
3.87198e-22
1.02182e-21
1.875e-06
2.34871e-22
9.46365e-22
1.875e-06
1.58323e-22
8.42734e-22
1.875e-06
2.0802e-22
9.92187e-22
1.875e-06
1.85779e-22
7.71862e-22
1.875e-06
1.38013e-22
8.59728e-22
1.875e-06
1.66644e-22
8.37442e-22
1.875e-06
2.05592e-22
5.74318e-22
1.875e-06
1.90922e-22
5.90712e-22
1.875e-06
7.74372e-23
5.85389e-22
1.875e-06
1.0077e-22
5.98146e-22
1.875e-06
2.3134e-22
5.38236e-22
1.875e-06
1.31142e-22
4.43144e-22
1.875e-06
1.40846e-22
2.97481e-22
1.875e-06
1.11905e-22
3.18721e-22
1.875e-06
1.31561e-22
3.36606e-22
1.875e-06
1.92503e-22
4.27021e-22
1.875e-06
8.0845e-23
4.07443e-22
1.875e-06
1.31598e-22
3.45782e-22
1.875e-06
3.3893e-24
2.88678e-22
1.875e-06
-4.31173e-23
2.27212e-22
1.875e-06
2.84352e-24
3.20986e-22
1.875e-06
8.15335e-23
3.33014e-22
1.875e-06
1.29494e-22
3.44632e-22
1.875e-06
1.36735e-23
1.80521e-22
1.875e-06
-3.64015e-23
1.10666e-22
1.875e-06
-4.13838e-23
4.01104e-23
1.875e-06
-2.57344e-23
4.69457e-23
1.875e-06
1.73931e-23
2.80523e-23
1.875e-06
6.35771e-23
6.40807e-23
1.875e-06
7.99824e-23
1.05137e-22
-2.89931e-23
2.25932e-23
1.875e-06
3.41272e-23
3.37214e-22
1.875e-06
1.48513e-22
7.72746e-22
1.875e-06
6.8866e-23
9.76899e-22
1.875e-06
2.0443e-23
1.00074e-21
1.875e-06
7.14989e-23
1.08282e-21
1.875e-06
1.35414e-22
1.10366e-21
1.875e-06
1.61667e-22
1.07724e-21
1.875e-06
2.18318e-22
1.04534e-21
1.875e-06
3.00255e-22
1.03798e-21
1.875e-06
2.46343e-22
9.49072e-22
1.875e-06
1.92855e-22
9.52267e-22
1.875e-06
2.04273e-22
1.00565e-21
1.875e-06
1.02757e-22
8.86782e-22
1.875e-06
2.36658e-22
8.8469e-22
1.875e-06
1.67636e-22
8.19765e-22
1.875e-06
1.02488e-22
6.46646e-22
1.875e-06
1.20084e-22
6.94681e-22
1.875e-06
4.78515e-23
6.09579e-22
1.875e-06
1.09199e-22
5.77735e-22
1.875e-06
9.48756e-23
4.37398e-22
1.875e-06
1.6155e-22
4.13667e-22
1.875e-06
2.01692e-22
3.65176e-22
1.875e-06
1.82249e-22
3.2941e-22
1.875e-06
1.15917e-22
3.21041e-22
1.875e-06
-1.09068e-23
3.51247e-22
1.875e-06
1.96375e-22
4.27199e-22
1.875e-06
1.67821e-22
3.42056e-22
1.875e-06
-7.21887e-24
3.13606e-22
1.875e-06
-7.36458e-23
2.69079e-22
1.875e-06
-4.29374e-23
3.28347e-22
1.875e-06
1.07172e-22
3.04217e-22
1.875e-06
1.32788e-22
2.15846e-22
1.875e-06
-3.41431e-23
1.61205e-22
1.875e-06
2.14927e-24
1.8533e-22
1.875e-06
9.82168e-24
9.98276e-23
1.875e-06
8.16166e-23
1.0439e-22
1.875e-06
1.93636e-23
2.30632e-23
1.875e-06
-2.64919e-23
-3.31092e-23
1.875e-06
5.52579e-23
-3.31601e-23
9.10918e-23
8.02226e-23
1.875e-06
1.64085e-23
4.03333e-22
1.875e-06
6.79723e-23
7.4645e-22
1.875e-06
1.2118e-22
1.02835e-21
1.875e-06
7.83802e-23
1.11481e-21
1.875e-06
1.20664e-22
1.18488e-21
1.875e-06
1.0609e-22
1.11586e-21
1.875e-06
1.83399e-22
1.1674e-21
1.875e-06
3.54744e-22
1.11043e-21
1.875e-06
2.68026e-22
1.10542e-21
1.875e-06
2.12082e-22
1.06416e-21
1.875e-06
1.47241e-22
1.03367e-21
1.875e-06
9.4884e-23
9.38578e-22
1.875e-06
1.46972e-22
9.19492e-22
1.875e-06
1.87901e-22
8.87485e-22
1.875e-06
1.39567e-22
8.21661e-22
1.875e-06
1.06388e-22
6.97456e-22
1.875e-06
6.98971e-23
6.16437e-22
1.875e-06
1.17474e-22
6.26073e-22
1.875e-06
1.92204e-22
5.57559e-22
1.875e-06
7.44357e-23
4.5804e-22
1.875e-06
9.68404e-23
4.15531e-22
1.875e-06
7.21813e-23
3.58815e-22
1.875e-06
9.96472e-23
3.0426e-22
1.875e-06
1.28324e-22
3.61951e-22
1.875e-06
1.15193e-22
4.43185e-22
1.875e-06
1.21973e-22
3.45547e-22
1.875e-06
1.77161e-23
2.71639e-22
1.875e-06
4.69808e-23
2.86117e-22
1.875e-06
2.06082e-23
2.53623e-22
1.875e-06
6.28084e-23
2.43267e-22
1.875e-06
2.16171e-23
2.51525e-22
1.875e-06
-3.77693e-23
1.84139e-22
1.875e-06
6.59995e-23
1.63307e-22
1.875e-06
9.94395e-23
1.20352e-22
1.875e-06
1.26647e-22
1.09174e-22
1.875e-06
1.30383e-22
6.28061e-23
1.875e-06
1.0281e-23
5.39871e-23
1.875e-06
-3.66612e-23
1.49808e-23
1.875e-06
-4.09117e-24
6.47515e-24
-9.33506e-25
3.9128e-23
1.875e-06
1.09859e-22
3.4072e-22
1.875e-06
4.83773e-23
7.58236e-22
1.875e-06
1.05145e-22
1.02773e-21
1.875e-06
1.46468e-22
1.2182e-21
1.875e-06
1.57997e-22
1.28661e-21
1.875e-06
2.84082e-22
1.21235e-21
1.875e-06
2.94468e-22
1.16925e-21
1.875e-06
6.07955e-23
1.10484e-21
1.875e-06
9.94782e-23
1.12307e-21
1.875e-06
2.33202e-22
1.11547e-21
1.875e-06
1.46589e-22
1.04232e-21
1.875e-06
1.06357e-22
9.75152e-22
1.875e-06
3.16707e-23
8.97378e-22
1.875e-06
1.13885e-22
7.96068e-22
1.875e-06
2.34432e-22
8.46987e-22
1.875e-06
1.32184e-22
7.48732e-22
1.875e-06
6.6105e-23
7.40225e-22
1.875e-06
9.41918e-24
5.37794e-22
1.875e-06
8.39398e-23
3.94934e-22
1.875e-06
1.82899e-22
3.68636e-22
1.875e-06
4.22697e-23
4.17594e-22
1.875e-06
1.04195e-22
5.23935e-22
1.875e-06
1.51765e-22
3.92011e-22
1.875e-06
9.06574e-23
3.63786e-22
1.875e-06
6.67265e-23
4.62956e-22
1.875e-06
4.06924e-23
3.27147e-22
1.875e-06
7.88218e-23
3.15803e-22
1.875e-06
1.32616e-22
3.37477e-22
1.875e-06
2.87997e-23
2.00483e-22
1.875e-06
7.10303e-23
2.07146e-22
1.875e-06
-9.98018e-23
2.69115e-22
1.875e-06
-8.52899e-23
1.72874e-22
1.875e-06
5.33689e-23
2.19469e-22
1.875e-06
6.18502e-23
1.62775e-22
1.875e-06
8.86354e-23
3.82525e-23
1.875e-06
-3.50736e-25
-1.68021e-22
1.875e-06
-3.85352e-23
-5.47771e-23
1.875e-06
-1.46582e-23
2.06853e-23
1.875e-06
-1.58279e-23
-1.58547e-23
-9.8141e-24
-4.01716e-23
1.875e-06
-1.6309e-22
2.14648e-22
1.875e-06
-4.40074e-23
8.43928e-22
1.875e-06
9.80737e-23
1.07311e-21
1.875e-06
9.49342e-23
1.20891e-21
1.875e-06
1.89702e-22
1.20364e-21
1.875e-06
2.1247e-22
1.17408e-21
1.875e-06
2.14539e-22
1.20399e-21
1.875e-06
1.62018e-22
1.22184e-21
1.875e-06
7.21257e-23
1.18607e-21
1.875e-06
5.90519e-23
1.0306e-21
1.875e-06
1.81523e-22
1.00859e-21
1.875e-06
-1.20968e-23
9.95137e-22
1.875e-06
9.47915e-23
9.7687e-22
1.875e-06
1.47201e-22
8.38869e-22
1.875e-06
1.16347e-22
7.57687e-22
1.875e-06
1.25908e-22
7.35222e-22
1.875e-06
1.80238e-22
7.49803e-22
1.875e-06
1.72544e-22
6.48699e-22
1.875e-06
-9.31947e-23
5.09073e-22
1.875e-06
-8.75295e-23
3.63559e-22
1.875e-06
1.38002e-22
4.49302e-22
1.875e-06
1.04889e-22
5.30322e-22
1.875e-06
9.16915e-23
3.77489e-22
1.875e-06
1.11332e-22
4.43553e-22
1.875e-06
1.81975e-22
4.70777e-22
1.875e-06
3.86871e-23
3.70825e-22
1.875e-06
-1.09376e-22
2.59954e-22
1.875e-06
-4.06213e-23
2.47748e-22
1.875e-06
9.55443e-23
1.6538e-22
1.875e-06
4.85134e-24
2.57409e-22
1.875e-06
-3.68968e-23
3.05549e-22
1.875e-06
-4.31789e-23
2.18623e-22
1.875e-06
9.6442e-24
2.03466e-22
1.875e-06
3.54287e-23
1.09579e-22
1.875e-06
3.63736e-23
-1.56904e-22
1.875e-06
-7.09547e-24
-2.60767e-22
1.875e-06
6.41433e-23
-6.72854e-23
1.875e-06
6.09557e-23
-4.67619e-23
1.875e-06
2.23464e-23
-3.36924e-23
-3.87809e-23
-5.34813e-23
1.875e-06
-3.14761e-23
4.1411e-22
1.875e-06
7.19537e-23
8.21901e-22
1.875e-06
1.04733e-22
1.01371e-21
1.875e-06
2.58173e-22
1.27748e-21
1.875e-06
9.28154e-23
1.29639e-21
1.875e-06
1.11824e-22
1.24997e-21
1.875e-06
2.55859e-22
1.3182e-21
1.875e-06
1.0668e-22
1.25724e-21
1.875e-06
1.04407e-22
1.10739e-21
1.875e-06
1.34388e-22
9.92531e-22
1.875e-06
2.14047e-23
9.30549e-22
1.875e-06
8.41335e-23
1.03106e-21
1.875e-06
8.65071e-23
9.75939e-22
1.875e-06
9.28217e-23
8.54579e-22
1.875e-06
9.21898e-23
8.42914e-22
1.875e-06
1.9365e-22
7.77962e-22
1.875e-06
1.41109e-22
6.97576e-22
1.875e-06
6.55402e-23
5.96519e-22
1.875e-06
1.04669e-23
5.66417e-22
1.875e-06
1.20062e-22
4.77637e-22
1.875e-06
1.3128e-22
4.82843e-22
1.875e-06
2.07399e-22
5.66597e-22
1.875e-06
7.91895e-23
4.73489e-22
1.875e-06
7.33161e-23
4.7332e-22
1.875e-06
6.31096e-23
4.01265e-22
1.875e-06
3.66093e-23
3.84168e-22
1.875e-06
-1.35345e-22
3.42582e-22
1.875e-06
-7.54699e-23
2.63408e-22
1.875e-06
7.35702e-24
1.92802e-22
1.875e-06
8.92281e-23
2.34178e-22
1.875e-06
2.54322e-23
2.49109e-22
1.875e-06
-5.09156e-23
2.41113e-22
1.875e-06
5.22502e-23
2.18789e-22
1.875e-06
-1.50585e-23
6.60232e-23
1.875e-06
-9.06105e-23
-1.79723e-22
1.875e-06
-2.1909e-23
-3.08896e-22
1.875e-06
1.42447e-23
-2.57936e-22
1.875e-06
6.93542e-23
-2.03813e-22
1.875e-06
1.0411e-22
-1.59798e-22
8.38187e-23
-1.26705e-22
1.875e-06
7.4165e-23
6.60174e-22
1.875e-06
1.20183e-22
9.99907e-22
1.875e-06
1.50534e-22
1.09009e-21
1.875e-06
9.04674e-23
1.14979e-21
1.875e-06
1.48311e-22
1.31903e-21
1.875e-06
1.83786e-22
1.26642e-21
1.875e-06
7.13535e-24
1.23474e-21
1.875e-06
1.45311e-22
1.39276e-21
1.875e-06
4.57359e-23
1.18185e-21
1.875e-06
3.31642e-23
9.56373e-22
1.875e-06
1.97913e-22
8.88208e-22
1.875e-06
1.28627e-22
9.03032e-22
1.875e-06
1.03432e-22
9.51239e-22
1.875e-06
9.6976e-23
7.8537e-22
1.875e-06
1.33095e-22
8.60905e-22
1.875e-06
1.34863e-23
7.70928e-22
1.875e-06
1.35745e-22
7.0085e-22
1.875e-06
1.57905e-22
7.07878e-22
1.875e-06
1.49382e-22
6.49304e-22
1.875e-06
6.50166e-23
5.38306e-22
1.875e-06
9.00337e-23
4.95237e-22
1.875e-06
1.0517e-22
3.91669e-22
1.875e-06
7.29291e-23
4.84859e-22
1.875e-06
5.05734e-23
5.6299e-22
1.875e-06
1.60495e-23
3.6983e-22
1.875e-06
-1.4099e-22
2.517e-22
1.875e-06
2.02864e-24
3.9083e-22
1.875e-06
2.81688e-23
3.54627e-22
1.875e-06
2.31282e-23
2.58246e-22
1.875e-06
-1.12745e-22
2.11542e-22
1.875e-06
-2.74342e-23
2.8828e-22
1.875e-06
8.57199e-23
2.74973e-22
1.875e-06
-6.24217e-23
1.04317e-22
1.875e-06
-6.33377e-23
5.20246e-23
1.875e-06
-2.70621e-23
-1.30784e-22
1.875e-06
-6.03895e-23
-3.66852e-22
1.875e-06
-5.37849e-23
-2.93988e-22
1.875e-06
2.80049e-23
-1.81096e-22
1.875e-06
1.18762e-22
-1.45768e-22
1.65505e-22
-1.36747e-22
1.875e-06
1.57571e-22
6.39124e-22
1.875e-06
1.42902e-22
9.93921e-22
1.875e-06
1.22384e-22
1.10831e-21
1.875e-06
1.27129e-22
1.18597e-21
1.875e-06
1.38787e-22
1.27905e-21
1.875e-06
1.55386e-23
1.23543e-21
1.875e-06
1.3404e-22
1.28198e-21
1.875e-06
1.74143e-22
1.28007e-21
1.875e-06
1.93639e-22
1.20458e-21
1.875e-06
7.09886e-23
1.0317e-21
1.875e-06
5.01452e-23
7.77696e-22
1.875e-06
1.10603e-22
9.27379e-22
1.875e-06
1.84561e-22
1.03087e-21
1.875e-06
1.69001e-22
8.62407e-22
1.875e-06
1.73952e-23
7.88562e-22
1.875e-06
8.86129e-23
8.17631e-22
1.875e-06
4.54227e-23
7.23938e-22
1.875e-06
5.25278e-23
5.80258e-22
1.875e-06
8.49926e-23
5.67414e-22
1.875e-06
2.01837e-22
6.00822e-22
1.875e-06
1.21695e-22
5.69894e-22
1.875e-06
-1.08988e-23
4.44363e-22
1.875e-06
-2.01541e-24
4.12817e-22
1.875e-06
3.74166e-23
4.31121e-22
1.875e-06
-1.3008e-22
3.28098e-22
1.875e-06
-8.48055e-23
3.69337e-22
1.875e-06
-6.35668e-23
3.66032e-22
1.875e-06
3.419e-23
2.85842e-22
1.875e-06
-3.12043e-23
2.04804e-22
1.875e-06
-8.11065e-23
3.21941e-22
1.875e-06
5.16596e-23
3.57925e-22
1.875e-06
-4.02671e-25
2.23988e-22
1.875e-06
-5.22026e-23
1.0894e-22
1.875e-06
9.42989e-23
3.39752e-23
1.875e-06
7.41506e-23
-1.44063e-22
1.875e-06
-5.29489e-23
-2.60153e-22
1.875e-06
-3.88428e-23
-3.19623e-22
1.875e-06
1.31571e-23
-2.33526e-22
1.875e-06
-6.08043e-23
-2.01514e-22
-5.76872e-23
-2.34497e-22
1.875e-06
1.40336e-22
5.63871e-22
1.875e-06
1.75174e-22
9.51204e-22
1.875e-06
1.43622e-22
1.07379e-21
1.875e-06
1.38024e-22
1.27674e-21
1.875e-06
-3.07397e-23
1.26907e-21
1.875e-06
-7.05097e-23
1.30391e-21
1.875e-06
8.08554e-23
1.24336e-21
1.875e-06
1.64163e-22
1.17476e-21
1.875e-06
4.25537e-23
1.11285e-21
1.875e-06
9.52857e-23
9.56283e-22
1.875e-06
-1.05949e-24
7.94776e-22
1.875e-06
1.91644e-22
1.03065e-21
1.875e-06
2.12669e-22
9.94157e-22
1.875e-06
1.28078e-22
8.82903e-22
1.875e-06
1.3404e-22
8.87403e-22
1.875e-06
6.45445e-23
7.38455e-22
1.875e-06
4.58569e-23
6.05337e-22
1.875e-06
6.17692e-23
6.75345e-22
1.875e-06
1.19686e-22
6.86908e-22
1.875e-06
3.82979e-23
5.22679e-22
1.875e-06
1.08737e-22
4.74697e-22
1.875e-06
1.02772e-22
4.81211e-22
1.875e-06
6.73628e-23
4.67234e-22
1.875e-06
-1.02148e-23
4.45358e-22
1.875e-06
-7.47107e-23
4.46706e-22
1.875e-06
-1.88758e-22
3.06096e-22
1.875e-06
-1.14273e-22
3.36155e-22
1.875e-06
-1.03206e-24
2.38027e-22
1.875e-06
3.10831e-23
2.66738e-22
1.875e-06
-1.5964e-22
2.8951e-22
1.875e-06
-1.276e-22
2.46269e-22
1.875e-06
4.90359e-23
2.58565e-22
1.875e-06
4.88472e-23
1.93001e-22
1.875e-06
-3.08695e-23
-6.78804e-23
1.875e-06
-2.7059e-23
-7.97513e-23
1.875e-06
-1.33049e-23
-2.77359e-22
1.875e-06
3.32042e-23
-3.55206e-22
1.875e-06
-6.23211e-23
-1.92959e-22
1.875e-06
-1.39512e-22
-7.08642e-23
-1.39204e-22
-2.04788e-22
1.875e-06
-1.49677e-22
5.13381e-22
1.875e-06
9.56922e-24
9.25819e-22
1.875e-06
9.54832e-23
1.12487e-21
1.875e-06
1.91559e-24
1.26808e-21
1.875e-06
-2.25908e-23
1.3631e-21
1.875e-06
6.35792e-23
1.36462e-21
1.875e-06
1.34384e-22
1.23455e-21
1.875e-06
1.79926e-22
1.10923e-21
1.875e-06
1.72636e-22
1.14386e-21
1.875e-06
-7.20875e-23
9.80593e-22
1.875e-06
-1.46771e-23
9.27897e-22
1.875e-06
2.06272e-22
9.50148e-22
1.875e-06
2.00698e-22
9.18784e-22
1.875e-06
5.50099e-23
8.15964e-22
1.875e-06
1.4756e-23
8.3384e-22
1.875e-06
4.39664e-23
7.65108e-22
1.875e-06
1.01077e-22
7.22144e-22
1.875e-06
1.89661e-22
7.02591e-22
1.875e-06
1.56664e-22
5.8864e-22
1.875e-06
8.9849e-23
5.09413e-22
1.875e-06
1.31624e-22
5.53047e-22
1.875e-06
4.22307e-23
4.98622e-22
1.875e-06
-2.0983e-23
4.75156e-22
1.875e-06
-9.83443e-23
4.74066e-22
1.875e-06
-7.64041e-23
4.24096e-22
1.875e-06
9.05508e-23
3.95734e-22
1.875e-06
8.18366e-23
3.18905e-22
1.875e-06
-1.06337e-22
2.22496e-22
1.875e-06
-1.49188e-22
2.10086e-22
1.875e-06
1.89936e-23
3.55223e-22
1.875e-06
-1.04229e-22
3.16825e-22
1.875e-06
-1.53682e-22
1.94337e-22
1.875e-06
-1.82961e-24
1.31362e-22
1.875e-06
-4.04084e-23
4.3151e-23
1.875e-06
-7.52348e-23
-1.39703e-22
1.875e-06
4.99109e-24
-3.02908e-22
1.875e-06
-1.00848e-22
-4.0459e-22
1.875e-06
-1.533e-23
-3.87483e-22
1.875e-06
-5.00839e-23
-1.64712e-22
-1.70489e-22
-1.82957e-22
1.875e-06
-4.44953e-23
7.47588e-22
1.875e-06
-1.90422e-22
9.6042e-22
1.875e-06
-5.71567e-23
1.05727e-21
1.875e-06
-2.68918e-23
1.26134e-21
1.875e-06
7.97977e-23
1.38602e-21
1.875e-06
1.03334e-23
1.26371e-21
1.875e-06
-4.00684e-23
1.15534e-21
1.875e-06
4.56816e-24
1.04213e-21
1.875e-06
2.89241e-23
1.12656e-21
1.875e-06
2.68214e-24
1.07371e-21
1.875e-06
1.685e-22
1.01139e-21
1.875e-06
8.72256e-23
9.07674e-22
1.875e-06
1.21676e-22
9.51534e-22
1.875e-06
1.17592e-22
9.73822e-22
1.875e-06
1.68837e-22
8.41358e-22
1.875e-06
1.25241e-22
6.83382e-22
1.875e-06
6.30015e-23
6.31156e-22
1.875e-06
1.02122e-22
6.19912e-22
1.875e-06
3.12359e-23
5.99433e-22
1.875e-06
1.5542e-22
6.00024e-22
1.875e-06
1.50664e-22
4.95845e-22
1.875e-06
7.25536e-23
5.24205e-22
1.875e-06
-2.9065e-23
6.33743e-22
1.875e-06
-1.67243e-22
4.19124e-22
1.875e-06
-1.44295e-22
3.82637e-22
1.875e-06
2.97741e-23
3.37205e-22
1.875e-06
7.75587e-23
2.10673e-22
1.875e-06
-4.13554e-23
2.64302e-22
1.875e-06
-5.00287e-23
3.01607e-22
1.875e-06
-4.76164e-23
2.75332e-22
1.875e-06
-1.11675e-23
3.4597e-22
1.875e-06
-4.46201e-23
2.51712e-22
1.875e-06
-2.4925e-23
1.57143e-22
1.875e-06
-1.91442e-23
-1.74081e-23
1.875e-06
-1.11459e-23
-1.08983e-22
1.875e-06
4.01326e-24
-2.37565e-22
1.875e-06
-8.20884e-23
-3.6121e-22
1.875e-06
-1.25477e-22
-3.17919e-22
1.875e-06
-5.00781e-24
-1.99545e-22
-2.00387e-23
-1.58587e-22
1.875e-06
-4.58483e-23
6.67524e-22
1.875e-06
-1.14212e-22
1.07636e-21
1.875e-06
-1.01201e-22
1.16498e-21
1.875e-06
-1.12398e-22
1.29979e-21
1.875e-06
-6.41426e-23
1.32199e-21
1.875e-06
4.53487e-23
1.35097e-21
1.875e-06
2.56673e-23
1.20629e-21
1.875e-06
-3.0299e-23
1.0762e-21
1.875e-06
2.14981e-23
1.11719e-21
1.875e-06
1.25466e-22
1.05548e-21
1.875e-06
2.07891e-23
1.00976e-21
1.875e-06
1.30406e-22
1.00334e-21
1.875e-06
-6.61235e-23
9.88591e-22
1.875e-06
7.90938e-23
9.59162e-22
1.875e-06
1.50401e-22
7.89516e-22
1.875e-06
8.21129e-23
6.56223e-22
1.875e-06
8.93556e-23
6.68725e-22
1.875e-06
9.71597e-23
6.41802e-22
1.875e-06
2.29015e-22
6.21339e-22
1.875e-06
6.43623e-23
5.32169e-22
1.875e-06
5.6986e-23
4.68664e-22
1.875e-06
-2.72925e-23
5.13197e-22
1.875e-06
-1.03982e-22
5.77157e-22
1.875e-06
-1.12175e-22
4.9548e-22
1.875e-06
-5.18812e-23
4.54813e-22
1.875e-06
-7.19643e-23
3.24881e-22
1.875e-06
2.29613e-23
1.79988e-22
1.875e-06
5.4917e-23
2.48239e-22
1.875e-06
2.28801e-23
2.75693e-22
1.875e-06
2.98324e-23
2.8414e-22
1.875e-06
6.88436e-24
2.7767e-22
1.875e-06
-1.74143e-23
2.20794e-22
1.875e-06
-3.16505e-24
1.20128e-22
1.875e-06
-1.357e-22
2.05532e-23
1.875e-06
-2.16364e-22
-1.68173e-22
1.875e-06
-1.36273e-22
-3.33455e-22
1.875e-06
1.04936e-22
-1.65824e-22
1.875e-06
2.52619e-23
-6.60717e-23
1.875e-06
-5.07365e-23
-1.23404e-22
-3.66376e-23
-7.15024e-23
1.875e-06
-1.47357e-22
5.87894e-22
1.875e-06
-7.1999e-23
1.0454e-21
1.875e-06
-3.47737e-23
1.23664e-21
1.875e-06
-1.5005e-23
1.36675e-21
1.875e-06
-5.48771e-23
1.47867e-21
1.875e-06
4.51267e-23
1.36211e-21
1.875e-06
-1.12198e-22
1.20044e-21
1.875e-06
-1.44827e-22
1.14047e-21
1.875e-06
-4.46376e-24
1.16747e-21
1.875e-06
6.77432e-23
1.03776e-21
1.875e-06
1.23834e-22
1.04513e-21
1.875e-06
1.34222e-23
9.72501e-22
1.875e-06
8.66437e-23
1.14022e-21
1.875e-06
-2.86294e-24
1.00422e-21
1.875e-06
1.16349e-22
7.63661e-22
1.875e-06
8.53727e-23
6.19236e-22
1.875e-06
4.55242e-23
5.80117e-22
1.875e-06
-3.17329e-23
5.75897e-22
1.875e-06
9.11792e-23
6.59452e-22
1.875e-06
1.92742e-22
6.7322e-22
1.875e-06
1.4134e-22
5.37766e-22
1.875e-06
-2.11873e-23
4.96245e-22
1.875e-06
-1.46067e-22
4.69526e-22
1.875e-06
-7.91726e-23
4.4247e-22
1.875e-06
-7.53648e-23
4.21046e-22
1.875e-06
5.92859e-23
3.65339e-22
1.875e-06
4.27719e-23
1.76908e-22
1.875e-06
7.89418e-23
2.34881e-22
1.875e-06
-4.26112e-24
2.82344e-22
1.875e-06
7.01723e-24
2.45145e-22
1.875e-06
9.40906e-24
2.09866e-22
1.875e-06
-5.60478e-23
1.99785e-22
1.875e-06
-2.01832e-22
8.78654e-23
1.875e-06
-1.43837e-22
1.41559e-22
1.875e-06
-9.69408e-23
-2.04019e-24
1.875e-06
-1.12835e-22
-2.59813e-22
1.875e-06
-6.98564e-23
-2.93344e-22
1.875e-06
1.82197e-23
-8.24214e-23
1.875e-06
-5.29333e-23
-9.3868e-23
-6.47016e-24
-1.58596e-22
1.875e-06
-6.38156e-23
6.26377e-22
1.875e-06
-1.46888e-22
1.06966e-21
1.875e-06
-1.33824e-22
1.22054e-21
1.875e-06
-7.34705e-24
1.37666e-21
1.875e-06
1.53076e-23
1.45869e-21
1.875e-06
-1.68889e-22
1.33772e-21
1.875e-06
-9.83683e-23
1.33397e-21
1.875e-06
-7.93591e-23
1.21762e-21
1.875e-06
2.32053e-23
1.20513e-21
1.875e-06
5.93292e-23
1.13376e-21
1.875e-06
6.99722e-23
1.02588e-21
1.875e-06
5.07632e-23
9.99813e-22
1.875e-06
1.69187e-23
1.07157e-21
1.875e-06
6.36888e-24
1.07135e-21
1.875e-06
-2.2947e-23
7.7055e-22
1.875e-06
8.24638e-23
7.26002e-22
1.875e-06
6.66517e-23
6.26556e-22
1.875e-06
2.05161e-22
6.8021e-22
1.875e-06
2.13243e-22
5.60061e-22
1.875e-06
1.67827e-22
5.46459e-22
1.875e-06
-7.86407e-23
3.86799e-22
1.875e-06
-2.04623e-22
5.35068e-22
1.875e-06
-4.29132e-23
5.45191e-22
1.875e-06
-2.09842e-23
4.76554e-22
1.875e-06
-8.01306e-24
5.24716e-22
1.875e-06
-7.20492e-23
3.156e-22
1.875e-06
1.91114e-24
2.10306e-22
1.875e-06
-1.04288e-23
2.3538e-22
1.875e-06
-1.76303e-23
2.21653e-22
1.875e-06
8.26701e-24
1.9978e-22
1.875e-06
7.95006e-23
1.76732e-22
1.875e-06
-5.56646e-23
1.4108e-22
1.875e-06
-8.3275e-23
1.55591e-22
1.875e-06
-5.64503e-25
1.67135e-22
1.875e-06
-1.08294e-22
3.93064e-24
1.875e-06
-1.46239e-22
-7.25437e-23
1.875e-06
-5.86395e-23
-1.23476e-22
1.875e-06
-1.33109e-22
-1.47661e-22
1.875e-06
1.11939e-22
-8.92567e-23
9.6206e-23
-1.45258e-22
1.875e-06
1.14373e-23
7.46017e-22
1.875e-06
6.01714e-24
1.10813e-21
1.875e-06
2.74408e-23
1.215e-21
1.875e-06
-6.97676e-24
1.37763e-21
1.875e-06
-6.25593e-23
1.43941e-21
1.875e-06
-1.51122e-22
1.38874e-21
1.875e-06
-1.71029e-22
1.33986e-21
1.875e-06
-8.95206e-23
1.34246e-21
1.875e-06
6.26833e-23
1.25527e-21
1.875e-06
1.03805e-22
1.11992e-21
1.875e-06
-2.76279e-23
1.02476e-21
1.875e-06
-3.52339e-24
1.06302e-21
1.875e-06
9.98504e-23
1.09491e-21
1.875e-06
1.30279e-22
1.09479e-21
1.875e-06
8.62041e-24
8.24248e-22
1.875e-06
-6.75901e-23
7.52827e-22
1.875e-06
-3.76049e-23
7.05411e-22
1.875e-06
9.9474e-24
5.75009e-22
1.875e-06
1.33506e-22
4.26509e-22
1.875e-06
1.68507e-23
4.4485e-22
1.875e-06
-5.70352e-23
3.92764e-22
1.875e-06
4.46461e-23
6.04044e-22
1.875e-06
-4.00165e-23
5.86586e-22
1.875e-06
-3.08358e-23
5.43346e-22
1.875e-06
-1.75862e-23
4.77211e-22
1.875e-06
-4.30149e-23
3.73531e-22
1.875e-06
1.16652e-22
2.90247e-22
1.875e-06
1.74322e-22
2.89689e-22
1.875e-06
-4.51879e-24
2.1128e-22
1.875e-06
-1.00361e-22
1.7171e-22
1.875e-06
-6.49207e-23
4.1409e-23
1.875e-06
-1.86723e-23
3.5661e-23
1.875e-06
-7.52363e-24
1.15212e-22
1.875e-06
-9.62863e-24
1.98719e-22
1.875e-06
1.62032e-23
1.14112e-22
1.875e-06
-4.29192e-23
-6.20084e-23
1.875e-06
-5.26237e-23
-4.97353e-23
1.875e-06
2.09819e-23
5.39235e-23
1.875e-06
-3.64287e-23
-2.00419e-22
2.83965e-23
-1.86145e-22
1.875e-06
1.33236e-22
7.60869e-22
1.875e-06
1.76539e-22
1.17403e-21
1.875e-06
2.46735e-23
1.0406e-21
1.875e-06
-9.01596e-23
1.24212e-21
1.875e-06
-1.55279e-22
1.43495e-21
1.875e-06
-3.21781e-23
1.38648e-21
1.875e-06
-2.68979e-23
1.3763e-21
1.875e-06
-1.16487e-22
1.34837e-21
1.875e-06
-1.59166e-22
1.19452e-21
1.875e-06
-8.28538e-24
1.29735e-21
1.875e-06
-1.94021e-22
1.10664e-21
1.875e-06
4.602e-22
1.13776e-21
1.875e-06
5.63601e-23
1.02718e-21
1.875e-06
7.85462e-23
1.04094e-21
1.875e-06
1.5789e-23
9.47223e-22
1.875e-06
-1.46682e-22
8.03791e-22
1.875e-06
-7.08565e-23
6.4102e-22
1.875e-06
-8.73583e-23
5.07744e-22
1.875e-06
-4.44137e-23
4.70509e-22
1.875e-06
-1.21736e-23
4.64782e-22
1.875e-06
-4.34194e-23
4.06533e-22
1.875e-06
-8.77497e-23
5.24404e-22
1.875e-06
-4.07986e-23
6.64705e-22
1.875e-06
1.00978e-23
5.09602e-22
1.875e-06
1.35058e-22
4.44551e-22
1.875e-06
7.95732e-23
4.14221e-22
1.875e-06
-9.54992e-23
2.60383e-22
1.875e-06
-9.43741e-23
8.81002e-23
1.875e-06
-1.00037e-22
2.43503e-22
1.875e-06
2.83605e-22
2.2936e-22
1.875e-06
-1.56602e-23
1.36338e-22
1.875e-06
-4.08256e-23
1.60711e-22
1.875e-06
6.75373e-23
1.04243e-22
1.875e-06
-7.60991e-23
1.62745e-22
1.875e-06
2.67674e-23
8.97333e-23
1.875e-06
8.39545e-23
3.43096e-23
1.875e-06
-3.85134e-23
-3.66496e-23
1.875e-06
4.5116e-23
-1.04117e-22
1.875e-06
-1.11995e-22
-3.44172e-22
-6.22894e-23
-2.06962e-22
1.875e-06
2.59007e-22
7.06495e-22
1.875e-06
1.7915e-22
1.01827e-21
1.875e-06
2.53213e-23
1.0558e-21
1.875e-06
5.2368e-24
1.24647e-21
1.875e-06
1.06192e-22
1.41962e-21
1.875e-06
5.75694e-23
1.44854e-21
1.875e-06
-7.83324e-24
1.36696e-21
1.875e-06
-1.40946e-22
1.29988e-21
1.875e-06
-1.49826e-22
1.23991e-21
1.875e-06
-7.68506e-23
1.34745e-21
1.875e-06
-6.50053e-24
1.18607e-21
1.875e-06
7.3206e-23
1.16834e-21
1.875e-06
1.66242e-22
1.08697e-21
1.875e-06
1.94569e-23
9.70139e-22
1.875e-06
-1.11845e-22
8.23242e-22
1.875e-06
-1.48601e-23
8.7144e-22
1.875e-06
-4.89242e-23
7.15586e-22
1.875e-06
-4.76835e-23
5.81756e-22
1.875e-06
-1.59684e-22
5.25941e-22
1.875e-06
-5.58487e-23
4.84648e-22
1.875e-06
-7.65417e-23
4.47925e-22
1.875e-06
-5.46229e-23
5.81917e-22
1.875e-06
-1.78089e-23
6.07763e-22
1.875e-06
-1.84009e-23
3.73827e-22
1.875e-06
1.55128e-23
3.62165e-22
1.875e-06
5.02682e-23
4.371e-22
1.875e-06
2.19526e-23
2.30809e-22
1.875e-06
6.71064e-23
1.99877e-22
1.875e-06
5.6176e-23
2.54956e-22
1.875e-06
-1.39498e-23
1.6829e-22
1.875e-06
2.89596e-24
1.16578e-22
1.875e-06
6.88533e-24
1.83664e-22
1.875e-06
-6.22595e-23
2.00458e-23
1.875e-06
6.53307e-24
1.14888e-22
1.875e-06
1.26734e-22
9.06087e-23
1.875e-06
1.21478e-22
-3.78307e-23
1.875e-06
1.73247e-23
-1.00339e-22
1.875e-06
-7.65468e-24
-1.54772e-22
1.875e-06
-3.41371e-23
-2.99442e-22
-1.35005e-22
-1.50919e-22
1.875e-06
-2.19051e-23
5.68254e-22
1.875e-06
6.43267e-23
9.55448e-22
1.875e-06
-2.24679e-23
1.19878e-21
1.875e-06
1.41428e-23
1.26024e-21
1.875e-06
5.32095e-23
1.30701e-21
1.875e-06
1.09231e-22
1.3461e-21
1.875e-06
2.0751e-23
1.3187e-21
1.875e-06
5.37618e-24
1.32421e-21
1.875e-06
-2.51868e-23
1.29114e-21
1.875e-06
-1.6574e-22
1.42583e-21
1.875e-06
-6.28536e-23
1.27789e-21
1.875e-06
-7.40696e-24
1.09388e-21
1.875e-06
-1.04591e-22
1.00225e-21
1.875e-06
-1.30846e-22
9.42869e-22
1.875e-06
-1.28382e-22
9.39267e-22
1.875e-06
-5.41401e-23
8.6022e-22
1.875e-06
-1.05367e-22