/*--------------------------------*- C++ -*----------------------------------*\
| =========                 |                                                 |
| \\      /  F ield         | OpenFOAM: The Open Source CFD Toolbox           |
|  \\    /   O peration     | Version:  v2012                                 |
|   \\  /    A nd           | Website:  www.openfoam.com                      |
|    \\/     M anipulation  |                                                 |
\*---------------------------------------------------------------------------*/
FoamFile
{
    version     2.0;
    format      ascii;
    class       volVectorField;
    location    "37";
    object      U;
}
// * * * * * * * * * * * * * * * * * * * * * * * * * * * * * * * * * * * * * //

dimensions      [0 1 -1 0 0 0 0];


internalField   nonuniform List<vector> 
64000
(
(0.003 3.10096e-19 2.556e-19)
(0.003 5.11975e-19 4.22726e-19)
(0.003 5.06667e-19 5.27344e-19)
(0.003 4.89038e-19 5.82602e-19)
(0.003 6.05755e-19 5.92813e-19)
(0.003 5.94911e-19 5.29656e-19)
(0.003 5.55833e-19 4.96318e-19)
(0.003 3.92434e-19 4.53737e-19)
(0.003 3.69563e-19 5.47202e-19)
(0.003 5.67906e-19 4.91835e-19)
(0.003 6.00255e-19 3.67349e-19)
(0.003 5.58244e-19 5.25516e-19)
(0.003 4.82162e-19 5.24066e-19)
(0.003 4.52215e-19 3.94718e-19)
(0.003 3.69949e-19 4.42452e-19)
(0.003 3.03199e-19 4.4851e-19)
(0.003 2.39517e-19 3.14631e-19)
(0.003 1.01925e-19 1.54086e-19)
(0.003 9.96929e-20 1.47984e-19)
(0.003 2.14679e-19 2.84755e-19)
(0.003 1.18046e-19 2.29522e-19)
(0.003 2.03829e-19 2.23954e-19)
(0.003 3.30399e-19 2.51109e-19)
(0.003 3.98664e-19 1.92185e-19)
(0.003 3.20167e-19 1.29573e-19)
(0.003 2.11479e-19 1.40225e-19)
(0.003 1.61275e-19 1.84507e-19)
(0.003 2.63513e-19 2.20465e-19)
(0.003 2.67226e-19 2.42626e-19)
(0.003 1.16599e-19 2.86631e-19)
(0.003 -3.91372e-22 2.59207e-19)
(0.003 2.22503e-20 1.43581e-19)
(0.003 1.64763e-19 1.0561e-19)
(0.003 1.0488e-19 4.56606e-20)
(0.003 1.07294e-19 1.78051e-19)
(0.003 9.1982e-20 1.66278e-19)
(0.003 -1.00384e-19 1.79892e-20)
(0.003 -1.39979e-19 1.91016e-19)
(0.003 -1.21865e-19 2.3654e-19)
(0.003 -4.74042e-20 1.29196e-19)
(0.003 2.61038e-19 4.39708e-19)
(0.003 4.18396e-19 8.87639e-19)
(0.003 6.4393e-19 1.10217e-18)
(0.003 5.93269e-19 1.09293e-18)
(0.003 5.02368e-19 1.07325e-18)
(0.003 6.84523e-19 1.12378e-18)
(0.003 6.60564e-19 1.09149e-18)
(0.003 6.15362e-19 8.88669e-19)
(0.003 6.19938e-19 8.6456e-19)
(0.003 5.85638e-19 1.12849e-18)
(0.003 5.60587e-19 1.09128e-18)
(0.003 5.01056e-19 1.0038e-18)
(0.003 4.26948e-19 9.20085e-19)
(0.003 2.98805e-19 8.36637e-19)
(0.003 2.30446e-19 8.30102e-19)
(0.003 1.78326e-19 7.79979e-19)
(0.003 4.14761e-19 6.80679e-19)
(0.003 3.65519e-19 5.03444e-19)
(0.003 1.41652e-19 4.27517e-19)
(0.003 8.46761e-20 5.0032e-19)
(0.003 2.29392e-19 4.11502e-19)
(0.003 3.33521e-19 4.5415e-19)
(0.003 3.04973e-19 4.91765e-19)
(0.003 3.78422e-19 5.5021e-19)
(0.003 2.44709e-19 4.2891e-19)
(0.003 2.3112e-19 3.2713e-19)
(0.003 2.95563e-19 2.86868e-19)
(0.003 1.76597e-19 3.137e-19)
(0.003 8.82468e-20 4.58199e-19)
(0.003 1.00625e-19 3.7026e-19)
(0.003 6.57803e-20 1.88885e-19)
(0.003 8.12619e-20 1.31545e-19)
(0.003 1.21511e-19 2.02724e-19)
(0.003 7.68625e-20 2.01959e-19)
(0.003 3.07708e-20 2.95225e-19)
(0.003 -6.76685e-20 2.4663e-19)
(0.003 -1.16312e-19 -3.06816e-20)
(0.003 -1.38694e-19 3.01068e-20)
(0.003 -1.21205e-19 1.92898e-19)
(0.003 -1.25262e-19 8.90704e-20)
(0.003 1.54605e-19 5.66143e-19)
(0.003 1.84603e-19 9.88648e-19)
(0.003 3.09078e-19 1.2007e-18)
(0.003 5.06134e-19 1.27063e-18)
(0.003 4.60664e-19 1.25073e-18)
(0.003 5.31645e-19 1.2668e-18)
(0.003 5.64833e-19 1.34738e-18)
(0.003 5.57774e-19 1.21179e-18)
(0.003 6.02629e-19 1.23093e-18)
(0.003 5.06114e-19 1.29882e-18)
(0.003 4.10876e-19 1.19566e-18)
(0.003 3.23964e-19 1.13811e-18)
(0.003 3.72545e-19 1.0149e-18)
(0.003 2.81816e-19 9.12942e-19)
(0.003 2.40058e-19 8.67001e-19)
(0.003 1.88678e-19 8.23066e-19)
(0.003 3.07895e-19 8.60851e-19)
(0.003 4.395e-19 7.21188e-19)
(0.003 1.90391e-19 5.02601e-19)
(0.003 9.18769e-20 4.83851e-19)
(0.003 2.48311e-19 5.29168e-19)
(0.003 2.17365e-19 5.29305e-19)
(0.003 2.73383e-19 4.99606e-19)
(0.003 2.42441e-19 5.22478e-19)
(0.003 2.75584e-19 4.68589e-19)
(0.003 1.9567e-19 4.5921e-19)
(0.003 1.27437e-19 4.30729e-19)
(0.003 5.59361e-21 4.36582e-19)
(0.003 1.02469e-20 4.32059e-19)
(0.003 1.01238e-19 4.40368e-19)
(0.003 1.38016e-19 3.71502e-19)
(0.003 8.27736e-20 2.50061e-19)
(0.003 -4.00214e-20 2.04632e-19)
(0.003 -2.63087e-20 1.88768e-19)
(0.003 1.87313e-20 2.72128e-19)
(0.003 1.84849e-20 1.02664e-19)
(0.003 -6.77995e-20 -9.7777e-20)
(0.003 -7.79521e-20 9.38398e-20)
(0.003 -6.18685e-20 1.75092e-19)
(0.003 -1.25329e-19 8.38584e-20)
(0.003 3.57947e-19 7.21626e-19)
(0.003 2.90326e-19 1.16732e-18)
(0.003 2.18138e-19 1.317e-18)
(0.003 3.72556e-19 1.47263e-18)
(0.003 4.34539e-19 1.41303e-18)
(0.003 4.28546e-19 1.45158e-18)
(0.003 3.84245e-19 1.44648e-18)
(0.003 3.70047e-19 1.30517e-18)
(0.003 3.63766e-19 1.28698e-18)
(0.003 4.24029e-19 1.33071e-18)
(0.003 4.16563e-19 1.34075e-18)
(0.003 3.19846e-19 1.29948e-18)
(0.003 2.67017e-19 1.1009e-18)
(0.003 2.66548e-19 1.0165e-18)
(0.003 4.8363e-19 1.00032e-18)
(0.003 6.05419e-19 7.97707e-19)
(0.003 2.67462e-19 7.85647e-19)
(0.003 1.91854e-19 7.92235e-19)
(0.003 2.53167e-19 6.14552e-19)
(0.003 1.83497e-19 5.22169e-19)
(0.003 1.63013e-19 5.80483e-19)
(0.003 2.11443e-19 5.70299e-19)
(0.003 2.68477e-19 5.53317e-19)
(0.003 2.38015e-19 6.14067e-19)
(0.003 2.80093e-19 6.14818e-19)
(0.003 1.60212e-19 4.99971e-19)
(0.003 5.09356e-20 4.156e-19)
(0.003 1.44722e-20 3.80321e-19)
(0.003 8.27513e-20 4.65024e-19)
(0.003 2.97878e-21 4.98018e-19)
(0.003 -2.7028e-20 3.84678e-19)
(0.003 -9.37343e-22 2.81352e-19)
(0.003 -5.09654e-20 2.87998e-19)
(0.003 -2.58069e-20 2.14945e-19)
(0.003 1.26437e-20 2.12575e-19)
(0.003 -8.16499e-20 1.40956e-19)
(0.003 6.39963e-20 3.85069e-20)
(0.003 1.38513e-19 7.90249e-20)
(0.003 1.93929e-20 1.33603e-19)
(0.003 3.0995e-20 9.84776e-20)
(0.003 1.80744e-19 7.52312e-19)
(0.003 2.68171e-19 1.2586e-18)
(0.003 1.70608e-19 1.40645e-18)
(0.003 1.71454e-19 1.54049e-18)
(0.003 2.46107e-19 1.56683e-18)
(0.003 1.93049e-19 1.60141e-18)
(0.003 1.8494e-19 1.5203e-18)
(0.003 4.10303e-19 1.32925e-18)
(0.003 4.63134e-19 1.23468e-18)
(0.003 4.10984e-19 1.42416e-18)
(0.003 3.24763e-19 1.41001e-18)
(0.003 2.68546e-19 1.2693e-18)
(0.003 2.58448e-19 1.06814e-18)
(0.003 2.37403e-19 1.09444e-18)
(0.003 3.93763e-19 1.20985e-18)
(0.003 5.78131e-19 1.0831e-18)
(0.003 3.21682e-19 8.36551e-19)
(0.003 1.6815e-19 6.87208e-19)
(0.003 2.68794e-19 6.08228e-19)
(0.003 2.68353e-19 5.23617e-19)
(0.003 1.10118e-19 5.36729e-19)
(0.003 1.66795e-19 6.02148e-19)
(0.003 2.28523e-19 6.51257e-19)
(0.003 1.96811e-19 6.12542e-19)
(0.003 1.9671e-19 6.31858e-19)
(0.003 1.74388e-19 5.51446e-19)
(0.003 1.54292e-19 4.33439e-19)
(0.003 4.89155e-20 4.47213e-19)
(0.003 4.92963e-20 4.92349e-19)
(0.003 -8.82108e-21 3.78987e-19)
(0.003 3.49922e-20 3.4521e-19)
(0.003 7.64008e-20 3.59431e-19)
(0.003 -1.45742e-20 2.54145e-19)
(0.003 -9.32797e-21 1.86414e-19)
(0.003 -1.61054e-20 2.09995e-19)
(0.003 -9.29441e-20 1.77447e-19)
(0.003 9.13384e-20 1.13903e-19)
(0.003 1.20414e-19 2.70969e-20)
(0.003 -2.72292e-20 8.5807e-20)
(0.003 -2.12306e-20 1.48526e-19)
(0.003 2.22115e-20 7.65497e-19)
(0.003 1.80708e-19 1.31295e-18)
(0.003 1.15887e-19 1.43126e-18)
(0.003 1.04681e-19 1.57183e-18)
(0.003 1.78539e-19 1.63831e-18)
(0.003 1.76343e-19 1.59637e-18)
(0.003 1.93472e-19 1.52586e-18)
(0.003 4.32725e-19 1.57868e-18)
(0.003 5.43865e-19 1.48838e-18)
(0.003 4.07916e-19 1.37079e-18)
(0.003 3.41595e-19 1.34981e-18)
(0.003 3.1844e-19 1.33787e-18)
(0.003 2.22465e-19 1.22527e-18)
(0.003 3.16335e-19 1.06996e-18)
(0.003 2.82772e-19 1.18256e-18)
(0.003 2.10245e-19 1.14497e-18)
(0.003 1.78393e-19 9.34357e-19)
(0.003 6.33397e-20 7.05569e-19)
(0.003 1.8843e-19 6.09164e-19)
(0.003 2.48521e-19 5.20683e-19)
(0.003 1.9363e-19 5.05747e-19)
(0.003 1.89098e-19 6.04658e-19)
(0.003 2.63988e-19 6.59886e-19)
(0.003 3.04274e-19 6.57404e-19)
(0.003 2.34078e-19 6.52569e-19)
(0.003 2.59315e-19 5.35097e-19)
(0.003 2.31914e-19 4.97844e-19)
(0.003 1.9074e-21 3.8417e-19)
(0.003 -1.44388e-19 4.29985e-19)
(0.003 -5.90978e-20 5.11421e-19)
(0.003 1.60582e-19 4.61322e-19)
(0.003 2.20091e-19 3.37751e-19)
(0.003 2.70649e-20 1.76913e-19)
(0.003 -1.28645e-20 2.40525e-19)
(0.003 -3.42266e-20 2.85546e-19)
(0.003 6.10205e-21 1.14123e-19)
(0.003 -2.85004e-21 8.4589e-20)
(0.003 4.73401e-20 2.08608e-20)
(0.003 1.78382e-19 1.00278e-20)
(0.003 1.22657e-19 1.17152e-19)
(0.003 5.25257e-20 9.11404e-19)
(0.003 1.90248e-19 1.45826e-18)
(0.003 1.99341e-19 1.48283e-18)
(0.003 9.57495e-20 1.55506e-18)
(0.003 1.58297e-19 1.70542e-18)
(0.003 1.76769e-19 1.68847e-18)
(0.003 2.82716e-19 1.58821e-18)
(0.003 5.10282e-19 1.55977e-18)
(0.003 4.93276e-19 1.57078e-18)
(0.003 3.85917e-19 1.52795e-18)
(0.003 2.6876e-19 1.47923e-18)
(0.003 2.01444e-19 1.34313e-18)
(0.003 2.24574e-19 1.17916e-18)
(0.003 3.66123e-19 1.15219e-18)
(0.003 2.31337e-19 1.19666e-18)
(0.003 1.35408e-19 1.09461e-18)
(0.003 1.43022e-19 8.49417e-19)
(0.003 1.41474e-19 6.45851e-19)
(0.003 2.01748e-19 5.92127e-19)
(0.003 1.12003e-19 5.50865e-19)
(0.003 1.78206e-19 5.80168e-19)
(0.003 2.80684e-19 6.6892e-19)
(0.003 2.51657e-19 6.88905e-19)
(0.003 1.61322e-19 7.17429e-19)
(0.003 7.91249e-20 6.6897e-19)
(0.003 2.42946e-19 6.00694e-19)
(0.003 1.4922e-19 5.13173e-19)
(0.003 4.89842e-20 3.50705e-19)
(0.003 -9.44343e-21 3.60197e-19)
(0.003 7.12629e-21 3.40455e-19)
(0.003 1.37105e-19 4.244e-19)
(0.003 1.01412e-19 3.82763e-19)
(0.003 2.07598e-20 1.48784e-19)
(0.003 6.65517e-20 1.31282e-19)
(0.003 9.89293e-20 1.99955e-19)
(0.003 1.92478e-19 1.75993e-19)
(0.003 2.37937e-20 1.06313e-19)
(0.003 -5.52737e-20 3.73431e-20)
(0.003 4.47367e-20 1.08552e-19)
(0.003 5.41028e-20 1.42301e-19)
(0.003 1.84239e-19 8.07538e-19)
(0.003 1.85775e-19 1.38437e-18)
(0.003 1.99448e-19 1.55213e-18)
(0.003 1.98211e-19 1.64721e-18)
(0.003 2.36086e-19 1.77041e-18)
(0.003 3.00782e-19 1.67735e-18)
(0.003 3.9613e-19 1.63116e-18)
(0.003 3.41771e-19 1.72266e-18)
(0.003 3.0362e-19 1.70415e-18)
(0.003 3.41361e-19 1.66874e-18)
(0.003 2.10426e-19 1.55582e-18)
(0.003 1.43307e-19 1.31501e-18)
(0.003 1.84643e-19 1.15077e-18)
(0.003 2.74232e-19 1.15495e-18)
(0.003 2.81467e-19 1.15762e-18)
(0.003 1.81506e-19 1.14812e-18)
(0.003 8.95818e-20 8.99233e-19)
(0.003 1.35034e-19 6.33763e-19)
(0.003 2.67166e-19 5.89446e-19)
(0.003 2.08078e-19 4.32232e-19)
(0.003 1.17975e-19 5.15923e-19)
(0.003 1.41723e-19 7.54021e-19)
(0.003 1.09622e-19 6.89945e-19)
(0.003 1.08531e-19 7.40369e-19)
(0.003 1.1125e-19 7.18088e-19)
(0.003 1.28134e-19 6.4162e-19)
(0.003 1.37755e-19 5.41374e-19)
(0.003 1.40715e-19 3.91395e-19)
(0.003 6.11844e-20 2.99072e-19)
(0.003 1.4856e-19 3.46736e-19)
(0.003 -1.40748e-20 4.81541e-19)
(0.003 -9.07117e-20 3.87564e-19)
(0.003 3.56945e-20 2.34753e-19)
(0.003 8.81876e-20 2.18033e-19)
(0.003 2.1666e-19 1.78266e-19)
(0.003 9.84279e-20 -4.81705e-20)
(0.003 -4.33212e-20 -9.92936e-20)
(0.003 -6.28543e-20 8.75259e-20)
(0.003 -6.09732e-20 1.16838e-19)
(0.003 -7.46934e-21 7.24319e-20)
(0.003 -5.60076e-20 8.38204e-19)
(0.003 -1.19109e-20 1.56965e-18)
(0.003 1.49864e-19 1.61877e-18)
(0.003 1.9165e-19 1.70467e-18)
(0.003 3.00944e-19 1.76023e-18)
(0.003 4.91114e-19 1.79746e-18)
(0.003 4.4885e-19 1.7659e-18)
(0.003 1.55541e-19 1.69618e-18)
(0.003 1.20678e-19 1.70389e-18)
(0.003 2.42919e-19 1.72539e-18)
(0.003 2.11036e-19 1.52842e-18)
(0.003 8.63116e-20 1.34565e-18)
(0.003 1.51386e-19 1.20221e-18)
(0.003 2.12965e-19 1.16792e-18)
(0.003 2.67258e-19 1.1933e-18)
(0.003 2.20306e-19 1.13214e-18)
(0.003 2.54979e-19 9.27788e-19)
(0.003 1.65697e-19 6.34058e-19)
(0.003 -3.81168e-20 6.30211e-19)
(0.003 6.5775e-20 5.61214e-19)
(0.003 1.91012e-19 5.22886e-19)
(0.003 1.2884e-19 7.20654e-19)
(0.003 1.75788e-19 8.1183e-19)
(0.003 2.10059e-19 8.13928e-19)
(0.003 1.82737e-19 6.77743e-19)
(0.003 2.26181e-20 5.88311e-19)
(0.003 -4.2283e-20 5.2811e-19)
(0.003 7.14524e-20 4.26458e-19)
(0.003 1.10971e-19 2.79405e-19)
(0.003 6.51971e-20 4.20632e-19)
(0.003 -1.13415e-19 4.57659e-19)
(0.003 -1.25101e-19 3.4152e-19)
(0.003 6.11768e-20 2.41837e-19)
(0.003 9.25185e-20 1.74873e-19)
(0.003 7.2192e-20 -3.68744e-20)
(0.003 -1.01608e-20 -2.86877e-19)
(0.003 3.62563e-20 -7.2806e-20)
(0.003 1.30124e-20 7.75881e-20)
(0.003 -4.4385e-20 5.97243e-20)
(0.003 -4.68887e-20 3.27597e-20)
(0.003 -2.06558e-19 9.20856e-19)
(0.003 -1.66987e-20 1.44264e-18)
(0.003 1.86758e-19 1.61773e-18)
(0.003 3.44705e-19 1.80439e-18)
(0.003 2.61811e-19 1.93342e-18)
(0.003 2.49881e-19 1.91268e-18)
(0.003 3.82337e-19 1.86329e-18)
(0.003 2.55667e-19 1.78646e-18)
(0.003 1.72015e-19 1.62183e-18)
(0.003 1.5017e-19 1.62112e-18)
(0.003 2.17423e-19 1.5369e-18)
(0.003 9.65923e-20 1.27877e-18)
(0.003 4.60729e-20 1.16994e-18)
(0.003 1.47525e-19 1.19567e-18)
(0.003 2.17584e-19 1.25389e-18)
(0.003 3.18098e-19 1.19699e-18)
(0.003 3.24643e-19 9.51155e-19)
(0.003 1.98973e-19 6.69089e-19)
(0.003 -1.20976e-19 5.00174e-19)
(0.003 -4.77119e-20 4.99652e-19)
(0.003 2.25524e-19 6.52723e-19)
(0.003 2.86168e-19 8.2107e-19)
(0.003 1.86385e-19 9.15865e-19)
(0.003 1.56657e-19 8.70436e-19)
(0.003 2.11017e-19 7.51786e-19)
(0.003 3.6828e-20 5.78102e-19)
(0.003 -2.28621e-19 4.23485e-19)
(0.003 -1.36643e-19 3.70021e-19)
(0.003 5.69071e-20 3.87163e-19)
(0.003 5.79254e-20 4.07916e-19)
(0.003 -2.75732e-21 3.30287e-19)
(0.003 -5.912e-20 3.47438e-19)
(0.003 5.70806e-20 3.34901e-19)
(0.003 6.3746e-20 1.93492e-19)
(0.003 -1.82623e-20 -1.18934e-20)
(0.003 -2.34263e-20 -3.54476e-19)
(0.003 5.65599e-20 -4.12911e-19)
(0.003 1.10532e-19 -2.84428e-19)
(0.003 6.1733e-20 -1.38194e-19)
(0.003 2.31941e-21 -1.38826e-19)
(0.003 6.61479e-20 9.96003e-19)
(0.003 1.85778e-19 1.59443e-18)
(0.003 2.64046e-19 1.77275e-18)
(0.003 2.86798e-19 1.86273e-18)
(0.003 1.9605e-19 1.89744e-18)
(0.003 2.09169e-19 1.91929e-18)
(0.003 2.02112e-19 1.94429e-18)
(0.003 2.15762e-19 1.87177e-18)
(0.003 1.40564e-19 1.71177e-18)
(0.003 1.61838e-19 1.60731e-18)
(0.003 2.24702e-19 1.40366e-18)
(0.003 1.91103e-19 1.19659e-18)
(0.003 1.54005e-19 1.10403e-18)
(0.003 1.44724e-19 1.06784e-18)
(0.003 1.96523e-19 1.23892e-18)
(0.003 2.59452e-19 1.28271e-18)
(0.003 2.41276e-19 1.03337e-18)
(0.003 1.53734e-19 6.7316e-19)
(0.003 8.27799e-20 4.90707e-19)
(0.003 1.01391e-19 5.67649e-19)
(0.003 2.11074e-19 7.47837e-19)
(0.003 3.28436e-19 9.02957e-19)
(0.003 1.60099e-19 9.53971e-19)
(0.003 5.7465e-20 9.28321e-19)
(0.003 1.92519e-20 6.91011e-19)
(0.003 -8.47982e-20 4.41481e-19)
(0.003 -1.09475e-19 4.0408e-19)
(0.003 -2.19029e-20 4.21943e-19)
(0.003 2.51286e-20 4.0808e-19)
(0.003 -5.19698e-20 5.00127e-19)
(0.003 -7.89247e-20 4.45018e-19)
(0.003 -2.88928e-21 3.11053e-19)
(0.003 7.20788e-20 2.83209e-19)
(0.003 -4.0482e-20 1.70701e-19)
(0.003 -1.39569e-19 -8.55176e-21)
(0.003 -6.42597e-20 -3.42905e-19)
(0.003 -2.20046e-20 -4.56476e-19)
(0.003 1.12387e-19 -2.89375e-19)
(0.003 1.78912e-19 -2.1603e-19)
(0.003 1.57554e-19 -2.28916e-19)
(0.003 2.44556e-19 1.03977e-18)
(0.003 2.33042e-19 1.66778e-18)
(0.003 1.70345e-19 1.79394e-18)
(0.003 1.63545e-19 1.80987e-18)
(0.003 2.39292e-19 1.91526e-18)
(0.003 1.96368e-19 1.9977e-18)
(0.003 1.39103e-19 1.89159e-18)
(0.003 2.67616e-19 1.85868e-18)
(0.003 2.1633e-19 1.6492e-18)
(0.003 7.75312e-20 1.62826e-18)
(0.003 1.56676e-19 1.47304e-18)
(0.003 2.10704e-19 1.24443e-18)
(0.003 2.51229e-19 1.20765e-18)
(0.003 2.45556e-19 1.15711e-18)
(0.003 1.65432e-19 1.21116e-18)
(0.003 6.52907e-20 1.21533e-18)
(0.003 7.90203e-20 9.50825e-19)
(0.003 1.62769e-19 6.61563e-19)
(0.003 2.90744e-19 5.72252e-19)
(0.003 2.77651e-19 6.16855e-19)
(0.003 1.58178e-19 7.76934e-19)
(0.003 3.11365e-20 8.83283e-19)
(0.003 -1.45041e-20 8.73012e-19)
(0.003 1.31488e-20 8.99214e-19)
(0.003 -1.19579e-19 7.39612e-19)
(0.003 -1.99585e-19 4.70296e-19)
(0.003 -2.88106e-20 4.43675e-19)
(0.003 5.17138e-20 4.37082e-19)
(0.003 -1.58093e-20 3.44848e-19)
(0.003 -1.44744e-19 4.20608e-19)
(0.003 -1.46083e-20 4.12201e-19)
(0.003 6.0122e-20 3.30265e-19)
(0.003 -8.39168e-20 2.88639e-19)
(0.003 1.7661e-20 1.25554e-19)
(0.003 6.67024e-20 -2.67153e-20)
(0.003 -1.02116e-19 -2.8016e-19)
(0.003 -1.23953e-19 -4.39264e-19)
(0.003 3.64031e-20 -3.2373e-19)
(0.003 1.2512e-19 -2.81204e-19)
(0.003 1.46611e-19 -3.1186e-19)
(0.003 2.41128e-19 1.03826e-18)
(0.003 2.43032e-19 1.65178e-18)
(0.003 1.79175e-19 1.78292e-18)
(0.003 2.09297e-19 1.92795e-18)
(0.003 9.11085e-20 1.97404e-18)
(0.003 -1.24519e-20 1.97032e-18)
(0.003 1.4837e-19 1.92974e-18)
(0.003 2.0749e-19 1.86087e-18)
(0.003 2.04726e-19 1.71942e-18)
(0.003 1.50948e-19 1.55632e-18)
(0.003 5.87486e-20 1.39891e-18)
(0.003 2.29517e-19 1.32264e-18)
(0.003 3.30473e-19 1.27972e-18)
(0.003 2.64209e-19 1.2496e-18)
(0.003 1.32207e-19 1.22185e-18)
(0.003 4.61484e-20 1.12546e-18)
(0.003 6.77258e-20 8.6345e-19)
(0.003 1.03642e-19 7.01936e-19)
(0.003 1.80228e-19 6.89834e-19)
(0.003 2.18352e-19 6.9174e-19)
(0.003 1.58564e-19 7.27299e-19)
(0.003 6.32018e-20 8.31053e-19)
(0.003 8.30771e-20 8.4317e-19)
(0.003 1.2359e-20 8.4816e-19)
(0.003 -2.01664e-19 6.59448e-19)
(0.003 -2.65301e-19 4.56817e-19)
(0.003 -1.83625e-19 4.6898e-19)
(0.003 3.66982e-20 4.55259e-19)
(0.003 -1.41802e-20 3.7084e-19)
(0.003 -1.97787e-19 3.34221e-19)
(0.003 5.92097e-21 4.13352e-19)
(0.003 9.00953e-20 3.75747e-19)
(0.003 -4.07346e-20 2.24277e-19)
(0.003 4.37867e-20 1.42918e-19)
(0.003 6.34264e-20 4.13526e-20)
(0.003 -6.59862e-20 -3.82e-19)
(0.003 -1.45015e-20 -5.13551e-19)
(0.003 -5.02372e-20 -2.32947e-19)
(0.003 -1.96772e-19 -1.13475e-19)
(0.003 -1.66114e-19 -2.33076e-19)
(0.003 -3.13402e-20 1.10201e-18)
(0.003 1.599e-19 1.7456e-18)
(0.003 2.01094e-19 1.83577e-18)
(0.003 6.76408e-20 1.94436e-18)
(0.003 -7.01524e-20 1.95672e-18)
(0.003 -2.99994e-20 1.95539e-18)
(0.003 1.67577e-19 1.89304e-18)
(0.003 2.57773e-19 1.77435e-18)
(0.003 1.69901e-19 1.67557e-18)
(0.003 2.74948e-20 1.6091e-18)
(0.003 -1.22602e-21 1.45108e-18)
(0.003 2.94117e-19 1.3554e-18)
(0.003 3.74007e-19 1.36679e-18)
(0.003 2.00935e-19 1.26702e-18)
(0.003 9.27565e-20 1.21325e-18)
(0.003 7.78096e-20 1.11025e-18)
(0.003 1.18388e-19 9.45539e-19)
(0.003 2.18411e-19 7.60025e-19)
(0.003 2.38083e-19 6.37441e-19)
(0.003 1.38185e-19 6.4909e-19)
(0.003 1.75754e-19 7.65587e-19)
(0.003 8.80293e-20 8.63795e-19)
(0.003 4.54979e-20 8.91518e-19)
(0.003 -4.7217e-20 8.44495e-19)
(0.003 -1.24392e-19 6.78083e-19)
(0.003 -3.18768e-20 3.54966e-19)
(0.003 -4.52233e-20 2.94864e-19)
(0.003 -1.36163e-19 4.62993e-19)
(0.003 -1.0731e-19 4.2021e-19)
(0.003 -1.08559e-19 3.00952e-19)
(0.003 -2.213e-19 4.50503e-19)
(0.003 -1.14372e-19 4.56888e-19)
(0.003 3.77882e-20 2.72586e-19)
(0.003 -6.96495e-20 1.3647e-19)
(0.003 -9.73449e-20 -1.28374e-20)
(0.003 4.2806e-22 -3.98888e-19)
(0.003 -6.9501e-20 -5.44509e-19)
(0.003 -9.45257e-20 -4.40587e-19)
(0.003 -1.50265e-19 -3.52547e-19)
(0.003 -2.51192e-19 -3.76797e-19)
(0.003 -2.21025e-19 1.14744e-18)
(0.003 -1.98569e-19 1.71666e-18)
(0.003 4.84919e-20 1.85378e-18)
(0.003 9.17184e-21 1.85997e-18)
(0.003 2.63106e-20 1.89916e-18)
(0.003 4.30997e-20 1.92526e-18)
(0.003 9.41529e-20 1.93765e-18)
(0.003 1.66724e-19 1.85957e-18)
(0.003 7.51288e-20 1.72485e-18)
(0.003 -7.34039e-20 1.5661e-18)
(0.003 1.41694e-19 1.46483e-18)
(0.003 2.96191e-19 1.48458e-18)
(0.003 2.62804e-19 1.47391e-18)
(0.003 1.20236e-19 1.2975e-18)
(0.003 1.14055e-19 1.11681e-18)
(0.003 1.07643e-19 1.08862e-18)
(0.003 1.38002e-19 9.33274e-19)
(0.003 2.92113e-19 7.81175e-19)
(0.003 2.36259e-19 7.60874e-19)
(0.003 1.85518e-19 7.29475e-19)
(0.003 2.12511e-19 7.9228e-19)
(0.003 7.23879e-20 8.08708e-19)
(0.003 -9.2674e-20 9.22724e-19)
(0.003 -2.18711e-19 8.12739e-19)
(0.003 -1.48003e-19 6.4672e-19)
(0.003 1.11888e-19 4.69029e-19)
(0.003 1.75652e-19 3.22102e-19)
(0.003 -9.67508e-20 3.72844e-19)
(0.003 -1.83356e-19 3.86151e-19)
(0.003 -3.52829e-20 2.90439e-19)
(0.003 -1.12015e-19 3.56987e-19)
(0.003 -1.8782e-19 4.0957e-19)
(0.003 -7.55607e-20 3.35555e-19)
(0.003 -5.97682e-20 7.19538e-20)
(0.003 -6.39602e-20 -4.26599e-21)
(0.003 -6.74149e-21 -2.83067e-19)
(0.003 -1.11278e-19 -5.31666e-19)
(0.003 -1.07574e-19 -4.04651e-19)
(0.003 -4.66678e-20 -3.36118e-19)
(0.003 -1.14985e-19 -3.93888e-19)
(0.003 -8.4344e-20 1.06334e-18)
(0.003 -2.71354e-19 1.71751e-18)
(0.003 -1.8999e-19 1.95189e-18)
(0.003 -1.47403e-19 1.94418e-18)
(0.003 1.98465e-20 1.97544e-18)
(0.003 5.5651e-20 1.97219e-18)
(0.003 -2.4728e-20 1.892e-18)
(0.003 -1.19783e-20 1.81577e-18)
(0.003 1.88807e-20 1.70929e-18)
(0.003 8.11325e-20 1.49537e-18)
(0.003 1.73011e-19 1.51309e-18)
(0.003 1.56673e-19 1.57755e-18)
(0.003 3.03405e-20 1.56711e-18)
(0.003 1.28834e-19 1.34378e-18)
(0.003 2.70881e-19 1.20632e-18)
(0.003 1.78329e-19 1.12338e-18)
(0.003 1.23095e-19 8.98082e-19)
(0.003 1.48768e-19 7.83539e-19)
(0.003 1.80765e-19 7.30112e-19)
(0.003 1.52012e-19 7.36483e-19)
(0.003 1.50174e-19 8.164e-19)
(0.003 7.76074e-20 8.86584e-19)
(0.003 -4.47292e-20 9.19736e-19)
(0.003 -2.15508e-19 7.18114e-19)
(0.003 -1.75414e-19 5.39139e-19)
(0.003 -4.92237e-20 5.03303e-19)
(0.003 4.26684e-20 3.45536e-19)
(0.003 4.22376e-20 2.98896e-19)
(0.003 -1.17788e-21 3.90922e-19)
(0.003 -6.62664e-22 3.12814e-19)
(0.003 -3.92261e-20 3.46903e-19)
(0.003 -3.35411e-20 3.03006e-19)
(0.003 -4.83927e-20 2.63951e-19)
(0.003 -1.26882e-19 1.59982e-19)
(0.003 -1.66509e-19 -2.3079e-20)
(0.003 -1.21712e-19 -3.41314e-19)
(0.003 -3.05688e-20 -3.50008e-19)
(0.003 -8.78298e-20 -1.77874e-19)
(0.003 -4.67122e-20 -2.43605e-19)
(0.003 -2.13622e-20 -2.88186e-19)
(0.003 -1.6255e-19 9.92381e-19)
(0.003 -1.4226e-19 1.63396e-18)
(0.003 -7.39418e-20 1.92305e-18)
(0.003 -1.62234e-19 1.9615e-18)
(0.003 -1.49974e-19 2.02392e-18)
(0.003 -1.17763e-20 2.02553e-18)
(0.003 -7.81447e-20 1.99736e-18)
(0.003 -1.16893e-19 1.89401e-18)
(0.003 4.59929e-20 1.77617e-18)
(0.003 2.15702e-19 1.56191e-18)
(0.003 1.43365e-19 1.50689e-18)
(0.003 8.66285e-20 1.5789e-18)
(0.003 -4.68495e-20 1.5201e-18)
(0.003 3.21571e-20 1.43148e-18)
(0.003 2.16771e-19 1.25186e-18)
(0.003 1.60952e-19 1.05668e-18)
(0.003 9.65345e-20 8.32645e-19)
(0.003 -4.01769e-20 7.80503e-19)
(0.003 1.40852e-19 8.59634e-19)
(0.003 2.26604e-19 8.00764e-19)
(0.003 2.3699e-19 8.89066e-19)
(0.003 9.69528e-21 7.79284e-19)
(0.003 -2.28183e-19 7.64946e-19)
(0.003 -1.78803e-19 6.28518e-19)
(0.003 -6.53056e-20 5.00266e-19)
(0.003 -2.15985e-20 4.72234e-19)
(0.003 3.16198e-20 3.48593e-19)
(0.003 9.95183e-20 4.27586e-19)
(0.003 4.12668e-20 3.84851e-19)
(0.003 1.70319e-20 2.99599e-19)
(0.003 1.72194e-20 2.81991e-19)
(0.003 -1.99108e-20 2.87523e-19)
(0.003 -1.30676e-19 2.57998e-19)
(0.003 -2.57531e-19 2.3905e-19)
(0.003 -3.31809e-19 6.89032e-20)
(0.003 -2.21438e-19 -2.36762e-19)
(0.003 6.94844e-20 -3.44855e-19)
(0.003 8.02082e-20 -1.36329e-19)
(0.003 -6.72321e-20 -2.14158e-19)
(0.003 -6.07889e-20 -3.2517e-19)
(0.003 -1.78057e-19 9.01374e-19)
(0.003 -1.95829e-19 1.66253e-18)
(0.003 -1.42972e-19 1.97682e-18)
(0.003 -3.07846e-20 1.97529e-18)
(0.003 -5.44087e-20 1.95779e-18)
(0.003 -1.158e-19 2.03749e-18)
(0.003 -1.80885e-19 1.97163e-18)
(0.003 -1.77612e-19 1.86142e-18)
(0.003 1.53226e-20 1.83966e-18)
(0.003 8.4042e-20 1.66152e-18)
(0.003 1.32712e-19 1.54306e-18)
(0.003 9.72548e-20 1.58217e-18)
(0.003 8.72716e-20 1.51954e-18)
(0.003 -6.70563e-21 1.41227e-18)
(0.003 1.94001e-20 1.35557e-18)
(0.003 5.59543e-20 1.15866e-18)
(0.003 1.216e-19 9.47537e-19)
(0.003 2.16248e-19 6.71522e-19)
(0.003 2.75162e-19 7.02635e-19)
(0.003 2.84193e-19 7.86555e-19)
(0.003 5.67692e-20 8.86446e-19)
(0.003 -1.91968e-19 8.86206e-19)
(0.003 -1.63929e-19 7.19243e-19)
(0.003 -7.69096e-20 5.92928e-19)
(0.003 -8.5856e-20 5.29305e-19)
(0.003 -1.61231e-20 5.19448e-19)
(0.003 6.3008e-20 4.76201e-19)
(0.003 1.81971e-21 4.41565e-19)
(0.003 -3.03657e-21 3.73227e-19)
(0.003 2.99058e-20 3.10906e-19)
(0.003 9.36372e-20 2.55282e-19)
(0.003 -1.25675e-19 2.05784e-19)
(0.003 -2.3048e-19 2.12483e-19)
(0.003 -9.23567e-20 2.38323e-19)
(0.003 -1.36475e-19 7.13619e-20)
(0.003 -2.40884e-19 -2.86902e-20)
(0.003 -1.92669e-19 -3.47899e-20)
(0.003 -8.85152e-20 -1.02406e-19)
(0.003 5.55884e-20 -2.72908e-19)
(0.003 8.84221e-20 -2.57495e-19)
(0.003 -4.42747e-20 9.77988e-19)
(0.003 -1.398e-19 1.59846e-18)
(0.003 -1.58184e-19 1.83355e-18)
(0.003 2.21004e-20 1.97102e-18)
(0.003 -6.59954e-21 1.99763e-18)
(0.003 -2.21201e-19 1.98145e-18)
(0.003 -2.42959e-19 1.97476e-18)
(0.003 -1.53642e-19 1.95725e-18)
(0.003 8.4355e-20 1.87788e-18)
(0.003 1.40041e-19 1.6992e-18)
(0.003 3.89672e-21 1.59973e-18)
(0.003 -1.64503e-20 1.56601e-18)
(0.003 8.54711e-20 1.49167e-18)
(0.003 1.39309e-19 1.41043e-18)
(0.003 4.47321e-20 1.34952e-18)
(0.003 1.02775e-20 1.18772e-18)
(0.003 3.91635e-20 1.08979e-18)
(0.003 2.02006e-19 8.62458e-19)
(0.003 3.24965e-19 7.82532e-19)
(0.003 1.65476e-19 7.4657e-19)
(0.003 -1.30938e-19 7.67314e-19)
(0.003 -1.50323e-19 7.59464e-19)
(0.003 -6.01307e-20 7.90124e-19)
(0.003 -1.36374e-20 6.85904e-19)
(0.003 -1.48244e-20 5.09467e-19)
(0.003 -9.04198e-20 4.81264e-19)
(0.003 8.55859e-20 4.84567e-19)
(0.003 1.04481e-19 4.2521e-19)
(0.003 -1.23799e-20 3.23746e-19)
(0.003 -2.41608e-20 2.70287e-19)
(0.003 5.02494e-21 2.77902e-19)
(0.003 -9.19335e-20 1.49914e-19)
(0.003 -8.87092e-20 1.62549e-19)
(0.003 1.18074e-22 2.62307e-19)
(0.003 -4.29743e-20 1.52478e-19)
(0.003 -1.78235e-19 1.50593e-20)
(0.003 -8.79143e-20 6.89335e-20)
(0.003 -6.82897e-20 2.56012e-20)
(0.003 4.78698e-20 -2.00435e-19)
(0.003 1.28352e-19 -1.91154e-19)
(0.003 1.22035e-19 1.04167e-18)
(0.003 1.76454e-19 1.66981e-18)
(0.003 7.89639e-20 1.76841e-18)
(0.003 -9.01978e-20 1.85925e-18)
(0.003 -1.79173e-19 1.96394e-18)
(0.003 -1.85535e-19 1.91528e-18)
(0.003 -2.09176e-19 1.88708e-18)
(0.003 -1.89971e-19 1.9204e-18)
(0.003 -1.02736e-19 1.98405e-18)
(0.003 5.91314e-20 1.86353e-18)
(0.003 9.56264e-20 1.59376e-18)
(0.003 8.43556e-20 1.58759e-18)
(0.003 1.62995e-19 1.45546e-18)
(0.003 2.05706e-19 1.44526e-18)
(0.003 1.51835e-20 1.41186e-18)
(0.003 -1.10913e-19 1.22584e-18)
(0.003 -1.06779e-19 9.63617e-19)
(0.003 -1.22642e-19 8.04162e-19)
(0.003 -1.94024e-20 9.35609e-19)
(0.003 2.25074e-20 7.77842e-19)
(0.003 -4.68364e-20 7.18574e-19)
(0.003 2.05694e-21 8.05581e-19)
(0.003 -6.01865e-20 8.43549e-19)
(0.003 -2.7816e-20 6.5937e-19)
(0.003 1.22175e-19 4.64529e-19)
(0.003 2.38233e-20 4.61678e-19)
(0.003 3.67683e-20 6.18087e-19)
(0.003 7.81524e-20 5.09986e-19)
(0.003 3.05251e-20 3.00895e-19)
(0.003 -6.03192e-21 1.683e-19)
(0.003 -5.95647e-20 2.50007e-19)
(0.003 -2.72822e-20 1.82826e-19)
(0.003 4.53758e-21 1.13477e-19)
(0.003 -2.74919e-20 2.1574e-19)
(0.003 4.01272e-20 1.95056e-19)
(0.003 5.50216e-20 1.12191e-19)
(0.003 2.96328e-20 8.30753e-20)
(0.003 -2.32604e-20 -6.1412e-20)
(0.003 -9.23615e-20 -3.07693e-19)
(0.003 -4.46671e-20 -3.10499e-19)
(0.003 2.9285e-19 1.01419e-18)
(0.003 2.59026e-19 1.59407e-18)
(0.003 3.92927e-20 1.75454e-18)
(0.003 -1.02048e-19 1.8174e-18)
(0.003 -6.19206e-20 1.85931e-18)
(0.003 4.17456e-20 1.92468e-18)
(0.003 -2.18461e-20 1.87438e-18)
(0.003 -2.40139e-19 1.83083e-18)
(0.003 -2.8879e-19 1.87585e-18)
(0.003 -8.78867e-20 1.94252e-18)
(0.003 1.58926e-19 1.79599e-18)
(0.003 1.49311e-19 1.68761e-18)
(0.003 1.48588e-19 1.52055e-18)
(0.003 1.26706e-19 1.46952e-18)
(0.003 -6.01075e-20 1.36688e-18)
(0.003 -1.2875e-19 1.13946e-18)
(0.003 -7.66955e-20 9.84551e-19)
(0.003 -1.06695e-19 8.24799e-19)
(0.003 -2.07745e-19 9.14665e-19)
(0.003 -9.29186e-20 8.87467e-19)
(0.003 -5.9366e-20 7.79775e-19)
(0.003 -1.00096e-19 7.3517e-19)
(0.003 -7.17195e-20 7.3242e-19)
(0.003 -2.64303e-20 6.42263e-19)
(0.003 1.20004e-19 5.96626e-19)
(0.003 1.37853e-19 5.02675e-19)
(0.003 -4.36585e-20 4.61881e-19)
(0.003 7.42913e-21 4.18218e-19)
(0.003 9.57758e-20 2.98918e-19)
(0.003 3.23606e-20 1.90581e-19)
(0.003 -2.15577e-20 2.51891e-19)
(0.003 -1.58453e-20 1.93113e-19)
(0.003 -4.59734e-20 1.18708e-19)
(0.003 -1.27409e-20 1.58296e-19)
(0.003 1.3179e-19 1.87063e-19)
(0.003 2.53199e-19 1.48989e-19)
(0.003 6.65949e-20 -3.90868e-20)
(0.003 -1.39694e-20 -1.42276e-19)
(0.003 -1.41154e-19 -2.58887e-19)
(0.003 -2.43552e-19 -1.46203e-19)
(0.003 2.451e-19 9.95826e-19)
(0.003 2.47077e-19 1.58857e-18)
(0.003 -6.92697e-21 1.80487e-18)
(0.003 2.87825e-20 1.79042e-18)
(0.003 1.54991e-19 1.86373e-18)
(0.003 1.50324e-19 1.86736e-18)
(0.003 4.72055e-20 1.87437e-18)
(0.003 -1.08282e-19 1.78287e-18)
(0.003 -1.79562e-19 1.79555e-18)
(0.003 -2.15232e-19 1.9553e-18)
(0.003 -8.68661e-20 1.88785e-18)
(0.003 5.12466e-20 1.69751e-18)
(0.003 3.55751e-20 1.54518e-18)
(0.003 -1.69699e-19 1.49583e-18)
(0.003 -2.22984e-19 1.3497e-18)
(0.003 -7.87591e-20 1.19506e-18)
(0.003 -1.51325e-19 1.03239e-18)
(0.003 -1.6094e-19 8.48345e-19)
(0.003 -2.24829e-19 8.67415e-19)
(0.003 -8.4796e-20 8.75505e-19)
(0.003 -2.89636e-20 8.08875e-19)
(0.003 -1.71144e-20 7.45145e-19)
(0.003 9.47713e-20 7.45848e-19)
(0.003 7.21339e-20 5.97657e-19)
(0.003 3.12699e-20 4.91334e-19)
(0.003 1.09485e-19 4.84861e-19)
(0.003 2.20177e-20 4.874e-19)
(0.003 4.35991e-20 4.94751e-19)
(0.003 5.96581e-20 3.83269e-19)
(0.003 -1.22429e-20 1.6301e-19)
(0.003 3.11961e-20 1.77984e-19)
(0.003 7.34367e-20 1.35288e-19)
(0.003 -1.94792e-20 4.7392e-20)
(0.003 3.89163e-20 1.66465e-19)
(0.003 2.33055e-19 2.91595e-19)
(0.003 2.13129e-19 1.83573e-19)
(0.003 1.21693e-19 -1.80056e-19)
(0.003 3.58966e-20 -2.48879e-19)
(0.003 1.02961e-20 -2.0616e-19)
(0.003 -6.25162e-20 -1.02834e-19)
(0.003 -9.63982e-20 1.06412e-18)
(0.003 -3.64203e-20 1.69922e-18)
(0.003 6.93937e-20 1.77542e-18)
(0.003 5.27662e-20 1.75747e-18)
(0.003 3.35897e-20 1.82851e-18)
(0.003 9.87858e-20 1.94836e-18)
(0.003 8.12217e-20 1.8637e-18)
(0.003 1.09801e-19 1.69612e-18)
(0.003 -7.45246e-20 1.77916e-18)
(0.003 -1.8846e-19 1.83357e-18)
(0.003 -1.34165e-19 1.78466e-18)
(0.003 -1.31964e-19 1.75613e-18)
(0.003 -2.68918e-19 1.62956e-18)
(0.003 -1.95157e-19 1.36193e-18)
(0.003 -9.86092e-20 1.16453e-18)
(0.003 -1.53424e-19 1.12747e-18)
(0.003 -2.43678e-19 1.05141e-18)
(0.003 -1.82947e-19 9.16183e-19)
(0.003 -1.60374e-19 8.94304e-19)
(0.003 -2.01119e-19 9.37545e-19)
(0.003 -9.71296e-20 8.13193e-19)
(0.003 8.06983e-20 7.54725e-19)
(0.003 1.86941e-19 7.92392e-19)
(0.003 1.69317e-19 6.41995e-19)
(0.003 1.19659e-19 5.64309e-19)