/*--------------------------------*- C++ -*----------------------------------*\
| =========                 |                                                 |
| \\      /  F ield         | OpenFOAM: The Open Source CFD Toolbox           |
|  \\    /   O peration     | Version:  v2012                                 |
|   \\  /    A nd           | Website:  www.openfoam.com                      |
|    \\/     M anipulation  |                                                 |
\*---------------------------------------------------------------------------*/
FoamFile
{
    version     2.0;
    format      ascii;
    class       volScalarField;
    location    "690/bottomWater";
    object      p;
}
// * * * * * * * * * * * * * * * * * * * * * * * * * * * * * * * * * * * * * //

dimensions      [1 -1 -2 0 0 0 0];


internalField   nonuniform List<scalar> 
1460
(
353.45817
353.45566
353.45618
353.46024
353.45964
353.45595
353.45255
353.45432
353.44938
353.46529
353.44501
353.45484
353.43873
353.44913
353.45722
353.45201
353.46494
353.47351
353.4613
353.45896
353.45992
353.46234
353.45128
353.46688
353.4593
353.46193
353.45852
353.46734
353.46496
353.45648
274.41682
274.40606
274.42088
274.46606
274.49045
274.45907
274.43204
274.41933
274.43763
274.45875
274.43896
274.4239
274.43471
274.45751
274.49053
274.45938
274.50438
274.48652
274.41815
274.40595
274.40739
274.41032
274.42922
274.45502
274.43298
274.41092
274.42739
274.45711
274.4754
274.45044
196.32924
196.29052
196.253
196.23613
196.2349
196.25303
196.30977
196.27638
196.29736
196.23033
196.32545
196.27343
196.2736
196.25902
196.26891
196.30026
196.24852
196.24452
196.26081
196.27825
196.29765
196.2882
196.24951
196.25457
196.27766
196.26348
196.30474
196.25973
196.28042
196.29974
117.6884
117.67313
117.65207
117.65255
117.66565
117.67729
117.68754
117.69392
117.64204
117.67389
117.66323
117.7074
117.65601
117.67243
117.69238
117.67678
117.65491
117.66025
117.66627
117.66476
117.67616
117.67408
117.66491
117.68359
117.66587
117.71772
117.67542
117.6986
117.6562
117.64577
39.268283
39.259378
39.249294
39.24325
39.230185
39.216649
39.232814
39.241438
39.249544
39.247876
39.231535
39.235738
39.228394
39.22096
39.227738
39.224069
39.241878
39.252471
39.23388
39.241564
39.252132
39.260229
39.255428
39.237374
39.240229
39.239992
39.234868
39.234946
39.223261
39.248586
353.45805
353.45327
353.46699
353.47591
353.46102
353.45756
353.45123
353.46013
353.454
353.46112
353.45179
353.4544
353.44537
353.46348
353.45357
353.45879
353.4634
353.45853
353.46079
353.45587
353.45894
353.46296
353.45462
353.45518
353.48021
353.45677
353.4673
353.45935
353.46725
353.45843
274.41188
274.41019
274.43072
274.49137
274.47386
274.44446
274.42549
274.41317
274.41337
274.44371
274.43954
274.41298
274.42896
274.47883
274.48404
274.47229
274.45809
274.42038
274.40326
274.41347
274.40059
274.39624
274.39755
274.41746
274.45633
274.42058
274.40901
274.4187
274.44594
274.44234
196.30183
196.26131
196.23311
196.22316
196.23152
196.25724
196.29336
196.27736
196.31067
196.22858
196.31025
196.25261
196.25439
196.23422
196.27009
196.27058
196.25873
196.25726
196.28593
196.29796
196.30842
196.31656
196.26697
196.25968
196.23215
196.26519
196.27312
196.30675
196.24974
196.29083
117.68259
117.6578
117.65483
117.65976
117.65782
117.66613
117.66845
117.68434
117.67472
117.66033
117.6382
117.69087
117.6326
117.6474
117.65931
117.66662
117.65366
117.62147
117.67834
117.65166
117.67346
117.6822
117.66596
117.64164
117.65882
117.64247
117.69452
117.64266
117.62328
117.62687
39.262899
39.257781
39.250258
39.24694
39.234936
39.220511
39.226942
39.251715
39.254327
39.254079
39.26042
39.238072
39.242184
39.236502
39.221961
39.224449
39.230482
39.245817
39.245649
39.256844
39.258833
39.262763
39.256813
39.25246
39.253209
39.245596
39.239655
39.235863
39.241909
39.271955
353.4533
353.44401
353.47218
353.44646
353.45421
353.44677
353.46229
353.44752
353.45185
353.45394
353.45506
353.45538
353.44959
353.4535
353.46606
353.46668
353.46174
353.4763
353.4586
353.47689
353.46064
353.47356
353.46603
353.46682
353.47275
353.4644
353.45437
353.46256
353.45716
353.45759
274.41609
274.42668
274.46071
274.4314
274.41111
274.42501
274.44128
274.42986
274.4087
274.43275
274.42184
274.4116
274.40891
274.42662
274.48462
274.45232
274.4128
274.39993
274.42078
274.43447
274.40248
274.39217
274.40001
274.40186
274.4694
274.45508
274.41733
274.4241
274.42774
274.41018
196.28234
196.25505
196.2293
196.26862
196.2556
196.31669
196.25769
196.28205
196.29414
196.29119
196.30796
196.29912
196.26937
196.24339
196.2317
196.26173
196.28154
196.27724
196.30897
196.2381
196.2883
196.30285
196.30787
196.25882
196.25166
196.24033
196.28025
196.29571
196.29821
196.31838
117.68628
117.65331
117.69101
117.64578
117.69777
117.65364
117.65763
117.63562
117.69713
117.63912
117.63633
117.68628
117.65995
117.64601
117.64991
117.66356
117.66088
117.68388
117.6689
117.66743
117.65045
117.70131
117.67268
117.64748
117.64731
117.6514
117.65008
117.6806
117.62275
117.67438
39.250078
39.250761
39.236738
39.249499
39.235973
39.227319
39.236993
39.260522
39.241035
39.259782
39.286757
39.261234
39.254456
39.250991
39.24082
39.233343
39.230522
39.24036
39.244871
39.264623
39.275974
39.266976
39.270566
39.254759
39.262011
39.254425
39.232111
39.260788
39.259886
39.243207
353.45178
353.44677
353.46365
353.44666
353.4607
353.45123
353.45894
353.47016
353.44679
353.45294
353.4466
353.4481
353.45399
353.4483
353.44817
353.44464
353.44442
353.45159
353.46549
353.4698
353.46035
353.47496
353.46306
353.46407
353.47141
353.46277
353.46381
353.45257
353.45873
353.4602
274.41828
274.43422
274.45601
274.42418
274.40802
274.42174
274.46682
274.47403
274.42136
274.425
274.42742
274.40557
274.40726
274.40462
274.43598
274.44201
274.42105
274.42071
274.45552
274.45655
274.40701
274.3924
274.39604
274.42633
274.45146
274.46608
274.4452
274.41745
274.40413
274.40772
196.28435
196.26426
196.2354
196.27435
196.28841
196.29467
196.24892
196.23435
196.26538
196.28258
196.28939
196.3066
196.32485
196.27751
196.26858
196.29427
196.26996
196.31561
196.26124
196.25513
196.27074
196.2993
196.26901
196.24651
196.25674
196.25689
196.24887
196.25275
196.27287
196.31597
117.68726
117.65603
117.67319
117.66389
117.72608
117.6813
117.6698
117.66546
117.64641
117.66373
117.63239
117.68167
117.67848
117.65979
117.64372
117.63632
117.6609
117.64985
117.67021
117.65729
117.64602
117.68918
117.66621
117.61459
117.6524
117.65577
117.67147
117.64223
117.66626
117.67656
39.25397
39.260492
39.243442
39.230679
39.256169
39.227597
39.232286
39.254603
39.251434
39.264263
39.291567
39.268377
39.269366
39.253897
39.247594
39.269981
39.234208
39.231191
39.227508
39.228338
39.239398
39.250257
39.25274
39.251441
39.234132
39.231461
39.235391
39.249134
39.248143
39.258791
353.45143
353.44829
353.46183
353.44812
353.46293
353.45151
353.47453
353.4639
353.46567
353.46552
353.47759
353.45163
353.45938
353.47752
353.48601
353.49921
353.4714
353.48508
353.47798
353.48153
353.48238
353.47353
353.47049
353.47335
353.45477
353.46381
274.4189
274.43283
274.46704
274.44413
274.41646
274.42394
274.47093
274.45848
274.40793
274.44029
274.45531
274.42331
274.41698
274.41433
274.44675
274.46439
274.41703
274.39573
274.40056
274.43641
274.47853
274.48877
274.49629
274.47431
274.41367
274.41657
196.28731
196.26138
196.26155
196.26619
196.29326
196.29292
196.22367
196.25968
196.26966
196.31274
196.23732
196.28353
196.29888
196.3071
196.26608
196.2356
196.27341
196.28518
196.27698
196.24747
196.26417
196.26106
196.26903
196.23059
196.25547
196.28865
117.67685
117.64048
117.67656
117.67969
117.71552
117.67913
117.66906
117.66088
117.68692
117.62301
117.65354
117.62838
117.68551
117.69679
117.67145
117.66156
117.64178
117.67788
117.64991
117.65785
117.68775
117.69715
117.67985
117.65435
117.64671
117.68716
39.248056
39.247443
39.225062
39.222651
39.234582
39.210998
39.234237
39.237339
39.225831
39.2612
39.274652
39.272868
39.261612
39.235661
39.219172
39.251256
39.255299
39.233249
39.223736
39.212031
39.227271
39.229658
39.221018
39.247924
39.257832
39.259545
353.45257
353.44774
353.46073
353.46038
353.45702
353.46292
353.46898
353.46054
353.46598
353.45922
353.47254
353.45707
353.45316
353.47786
353.48032
353.49159
353.49623
353.48552
353.48734
353.48823
353.48866
353.48177
353.47454
353.47349
353.4548
353.46426
274.42599
274.42965
274.457
274.47661
274.41956
274.47328
274.44574
274.40519
274.39855
274.41676
274.45605
274.44453
274.40897
274.39295
274.3888
274.42733
274.43996
274.42403
274.38994
274.42812
274.4651
274.48052
274.47699
274.4681
274.40885
274.41236
196.29936
196.28214
196.26694
196.26815
196.27529
196.26085
196.2546
196.27784
196.2921
196.31314
196.27602
196.29405
196.29739
196.3168
196.27524
196.25866
196.22945
196.29803
196.25505
196.24388
196.2541
196.24329
196.2584
196.22116
196.24608
196.27678
117.68285
117.66289
117.68953
117.67343
117.66761
117.65145
117.65361
117.67401
117.69235
117.648
117.66856
117.60791
117.67338
117.67643
117.62846
117.62617
117.64669
117.61758
117.68224
117.60281
117.67584
117.6871
117.67975
117.64826
117.64904
117.6788
39.247271
39.241788
39.228875
39.222251
39.224775
39.245574
39.264348
39.25054
39.267875
39.236703
39.246947
39.25971
39.242319
39.233226
39.240362
39.272983
39.271835
39.269312
39.239332
39.22906
39.213621
39.226129
39.225451
39.245354
39.254455
39.253405
353.45228
353.44964
353.44837
353.46111
353.47699
353.47325
353.4618
353.45689
353.45789
353.45607
353.45592
353.45535
353.45639
353.47178
353.46443
353.49542
353.48923
353.48137
353.48131
353.49014
353.4774
353.48281
353.47682
353.48112
353.4857
353.45554
353.45982
353.45689
353.45845
353.46241
274.42817
274.42536
274.42147
274.46406
274.50834
274.47783
274.39693
274.39771
274.40206
274.40381
274.41775
274.41874
274.40927
274.41287
274.41244
274.46622
274.46228
274.40487
274.38207
274.37081
274.36679
274.37507
274.38273
274.44177
274.47293
274.42263
274.42775
274.42508
274.38906
274.4061
196.31224
196.29945
196.27073
196.22697
196.23917
196.23354
196.24868
196.2812
196.30753
196.30245
196.29977
196.30246
196.31695
196.31851
196.28846
196.25967
196.26117
196.27435
196.29225
196.31033
196.30296
196.31123
196.26526
196.24643
196.22756
196.29035
196.2884
196.27715
196.29512
196.33197
117.68235
117.68123
117.65678
117.65445
117.66076
117.65382
117.65838
117.67473
117.6798
117.67263
117.6507
117.64637
117.66627
117.70172
117.65454
117.67001
117.67295
117.65398
117.67259
117.68363
117.67964
117.67983
117.64866
117.6331
117.63861
117.65106
117.66073
117.61785
117.66389
117.6774
39.250483
39.232828
39.229013
39.244312
39.246092
39.255806
39.266805
39.255326
39.265629
39.253666
39.260876
39.243644
39.227764
39.234983
39.226792
39.233822
39.232047
39.23959
39.243923
39.263646
39.258196
39.262425
39.248574
39.244007
39.238421
39.226194
39.250786
39.261799
39.260462
39.268006
353.44438
353.45732
353.46354
353.4495
353.47693
353.47477
353.47787
353.47316
353.46652
353.46965
353.49016
353.47677
353.46676
353.47895
353.46656
353.50821
353.49357
353.48845
353.4852
353.48318
353.48236
353.48486
353.48132
353.48256
353.49335
353.45583
353.46628
353.459
353.46248
353.46531
274.43898
274.46156
274.42629
274.43733
274.44792
274.41672
274.39549
274.40961
274.40535
274.43382
274.49976
274.48294
274.43201
274.42117
274.42433
274.45301
274.42978
274.39529
274.38721
274.40024
274.40819
274.38594
274.37629
274.4292
274.46722
274.43181
274.42043
274.42681
274.39504
274.40799
196.32011
196.27668
196.29636
196.27207
196.23926
196.27672
196.29444
196.31622
196.26756
196.2516
196.23577
196.23422
196.27307
196.29918
196.28938
196.24072
196.24535
196.28838
196.30879
196.328
196.30669
196.3322
196.26972
196.24923
196.22482
196.26461
196.29425
196.27457
196.30383
196.33709
117.69177
117.6505
117.67412
117.64756
117.65873
117.62869
117.69032
117.67997
117.65276
117.64507
117.65731
117.6439
117.66566
117.67559
117.62567
117.644
117.62885
117.65048
117.68877
117.64295
117.61739
117.68389
117.64674
117.62852
117.65389
117.65001
117.68942
117.63606
117.67125
117.68269
39.240328
39.220626
39.237022
39.25611
39.267795
39.277812
39.279872
39.272015
39.262385
39.252033
39.255238
39.238175
39.224848
39.238255
39.258544
39.265489
39.24543
39.247082
39.244032
39.253898
39.285913
39.277308
39.254839
39.248729
39.241903
39.235784
39.229067
39.26241
39.259699
39.270379
353.44183
353.46099
353.45531
353.4571
353.44726
353.46439
353.45806
353.45446
353.46468
353.47573
353.48812
353.48332
353.49026
353.49313
353.49699
353.4983
353.49847
353.49931
353.48793
353.49881
353.47802
353.48174
353.48383
353.47645
353.48667
353.45405
353.47317
353.46449
353.45731
353.46478
274.43999
274.45243
274.43203
274.41308
274.42238
274.43113
274.41615
274.41208
274.44034
274.47883
274.49857
274.48347
274.46642
274.44111
274.41408
274.38939
274.38164
274.38143
274.40257
274.43429
274.41378
274.3901
274.37305
274.40538
274.45095
274.4315
274.45343
274.45182
274.41721
274.40994
196.3112
196.24383
196.31312
196.25945
196.3386
196.2763
196.30654
196.26365
196.23987
196.23026
196.23435
196.25421
196.27179
196.2647
196.25895
196.27351
196.3036
196.29896
196.26857
196.27092
196.26264
196.32574
196.28547
196.27508
196.26027
196.29386
196.27471
196.25509
196.26043
196.29127
117.6641
117.63156
117.6154
117.69892
117.65789
117.64104
117.66498
117.6383
117.64774
117.64747
117.65218
117.64897
117.68421
117.66024
117.63436
117.62379
117.6782
117.68965
117.65262
117.68908
117.63698
117.69099
117.66279
117.58963
117.62435
117.62952
117.66472
117.64823
117.62635
117.67103
39.239553
39.259527
39.259695
39.241147
39.229492
39.242162
39.24727
39.246241
39.250624
39.240828
39.243211
39.224201
39.227577
39.225717
39.238734
39.267027
39.263642
39.267417
39.277003
39.246094
39.273221
39.273103
39.271493
39.269142
39.256709
39.228505
39.225648
39.242206
39.255987
39.254333
353.4426
353.44387
353.44815
353.44935
353.44104
353.47494
353.46373
353.4679
353.46033
353.46004
353.46402
353.46775
353.47328
353.4802
353.48291
353.48831
353.48779
353.4836
353.49345
353.49398
353.47621
353.48188
353.48343
353.47852
353.48911
353.47321
353.47879
353.46972
353.46429
353.46613
274.43118
274.43889
274.41283
274.42039
274.43213
274.44329
274.40543
274.40723
274.41913
274.41138
274.41429
274.42174
274.42001
274.40961
274.38672
274.38739
274.39419
274.42589
274.45874
274.46314
274.42277
274.40071
274.38707
274.41101
274.44383
274.46614
274.48282
274.47564
274.43398
274.41302
196.32044
196.29024
196.32546
196.2936
196.29454
196.24758
196.32073
196.31571
196.29632
196.32512
196.32213
196.31552
196.31851
196.30242
196.31596
196.32239
196.31357
196.26229
196.28218
196.27835
196.27364
196.3168
196.29292
196.26756
196.25867
196.2672
196.2663
196.25856
196.2506
196.28618
117.64678
117.62349
117.67375
117.68875
117.65556
117.64665
117.65796
117.67272
117.64719
117.68141
117.68271
117.64047
117.67188
117.64685
117.64758
117.67468
117.68988
117.65929
117.69123
117.69015
117.63018
117.68964
117.66157
117.59503
117.63299
117.64822
117.69398
117.6755
117.6413
117.68016
39.260585
39.277455
39.261682
39.250323
39.243943
39.262831
39.267007
39.245943
39.251681
39.220803
39.233861
39.256565
39.242977
39.250531
39.251567
39.268204
39.265968
39.26824
39.243364
39.243485
39.265182
39.267165
39.26349
39.257671
39.228869
39.21852
39.233064
39.23032
39.249257
39.247602
)
;

boundaryField
{
    minX
    {
        type            calculated;
        value           nonuniform List<scalar> 
50
(
353.45817
274.41682
196.32924
117.6884
39.268283
353.45805
274.41188
196.30183
117.68259
39.262899
353.4533
274.41609
196.28234
117.68628
39.250078
353.45178
274.41828
196.28435
117.68726
39.25397
353.45143
274.4189
196.28731
117.67685
39.248056
353.45257
274.42599
196.29936
117.68285
39.247271
353.45228
274.42817
196.31224
117.68235
39.250483
353.44438
274.43898
196.32011
117.69177
39.240328
353.44183
274.43999
196.3112
117.6641
39.239553
353.4426
274.43118
196.32044
117.64678
39.260585
)
;
    }
    maxX
    {
        type            calculated;
        value           nonuniform List<scalar> 
50
(
353.45648
274.45044
196.29974
117.64577
39.248586
353.45843
274.44234
196.29083
117.62687
39.271955
353.45759
274.41018
196.31838
117.67438
39.243207
353.4602
274.40772
196.31597
117.67656
39.258791
353.46381
274.41657
196.28865
117.68716
39.259545
353.46426
274.41236
196.27678
117.6788
39.253405
353.46241
274.4061
196.33197
117.6774
39.268006
353.46531
274.40799
196.33709
117.68269
39.270379
353.46478
274.40994
196.29127
117.67103
39.254333
353.46613
274.41302
196.28618
117.68016
39.247602
)
;
    }
    minY
    {
        type            calculated;
        value           nonuniform List<scalar> 
292
(
392.4
392.4
392.4
392.4
392.4
392.4
392.4
392.4
392.4
392.4
392.4
392.4
392.4
392.4
392.4
392.4
392.4
392.4
392.4
392.4
392.4
392.4
392.4
392.4
392.4
392.4
392.4
392.4
392.4
392.4
392.4
392.4
392.4
392.4
392.4
392.4
392.4
392.4
392.4
392.4
392.4
392.4
392.4
392.4
392.4
392.4
392.4
392.4
392.4
392.4
392.4
392.4
392.4
392.4
392.4
392.4
392.4
392.4
392.4
392.4
392.4
392.4
392.4
392.4
392.4
392.4
392.4
392.4
392.4
392.4
392.4
392.4
392.4
392.4
392.4
392.4
392.4
392.4
392.4
392.4
392.4
392.4
392.4
392.4
392.4
392.4
392.4
392.4
392.4
392.4
392.4
392.4
392.4
392.4
392.4
392.4
392.4
392.4
392.4
392.4
392.4
392.4
392.4
392.4
392.4
392.4
392.4
392.4
392.4
392.4
392.4
392.4
392.4
392.4
392.4
392.4
392.4
392.4
392.4
392.4
392.4
392.4
392.4
392.4
392.4
392.4
392.4
392.4
392.4
392.4
392.4
392.4
392.4
392.4
392.4
392.4
392.4
392.4
392.4
392.4
392.4
392.4
392.4
392.4
392.4
392.4
392.4
392.4
392.4
392.4
392.4
392.4
392.4
392.4
392.4
392.4
392.4
392.4
392.4
392.4
392.4
392.4
392.4
392.4
392.4
392.4
392.4
392.4
392.4
392.4
392.4
392.4
392.4
392.4
392.4
392.4
392.4
392.4
392.4
392.4
392.4
392.4
392.4
392.4
392.4
392.4
392.4
392.4
392.4
392.4
392.4
392.4
392.4
392.4
392.4
392.4
392.4
392.4
392.4
392.4
392.4
392.4
392.4
392.4
392.4
392.4
392.4
392.4
392.4
392.4
392.4
392.4
392.4
392.4
392.4
392.4
392.4
392.4
392.4
392.4
392.4
392.4
392.4
392.4
392.4
392.4
392.4
392.4
392.4
392.4
392.4
392.4
392.4
392.4
392.4
392.4
392.4
392.4
392.4
392.4
392.4
392.4
392.4
392.4
392.4
392.4
392.4
392.4
392.4
392.4
392.4
392.4
392.4
392.4
392.4
392.4
392.4
392.4
392.4
392.4
392.4
392.4
392.4
392.4
392.4
392.4
392.4
392.4
392.4
392.4
392.4
392.4
392.4
392.4
392.4
392.4
392.4
392.4
392.4
392.4
392.4
392.4
392.4
392.4
392.4
392.4
392.4
392.4
392.4
392.4
392.4
392.4
)
;
    }
    minZ
    {
        type            calculated;
        value           nonuniform List<scalar> 
150
(
353.45817
274.41682
196.32924
117.6884
39.268283
353.45566
274.40606
196.29052
117.67313
39.259378
353.45618
274.42088
196.253
117.65207
39.249294
353.46024
274.46606
196.23613
117.65255
39.24325
353.45964
274.49045
196.2349
117.66565
39.230185
353.45595
274.45907
196.25303
117.67729
39.216649
353.45255
274.43204
196.30977
117.68754
39.232814
353.45432
274.41933
196.27638
117.69392
39.241438
353.44938
274.43763
196.29736
117.64204
39.249544
353.46529
274.45875
196.23033
117.67389
39.247876
353.44501
274.43896
196.32545
117.66323
39.231535
353.45484
274.4239
196.27343
117.7074
39.235738
353.43873
274.43471
196.2736
117.65601
39.228394
353.44913
274.45751
196.25902
117.67243
39.22096
353.45722
274.49053
196.26891
117.69238
39.227738
353.45201
274.45938
196.30026
117.67678
39.224069
353.46494
274.50438
196.24852
117.65491
39.241878
353.47351
274.48652
196.24452
117.66025
39.252471
353.4613
274.41815
196.26081
117.66627
39.23388
353.45896
274.40595
196.27825
117.66476
39.241564
353.45992
274.40739
196.29765
117.67616
39.252132
353.46234
274.41032
196.2882
117.67408
39.260229
353.45128
274.42922
196.24951
117.66491
39.255428
353.46688
274.45502
196.25457
117.68359
39.237374
353.4593
274.43298
196.27766
117.66587
39.240229
353.46193
274.41092
196.26348
117.71772
39.239992
353.45852
274.42739
196.30474
117.67542
39.234868
353.46734
274.45711
196.25973
117.6986
39.234946
353.46496
274.4754
196.28042
117.6562
39.223261
353.45648
274.45044
196.29974
117.64577
39.248586
)
;
    }
    maxZ
    {
        type            calculated;
        value           nonuniform List<scalar> 
150
(
353.4426
274.43118
196.32044
117.64678
39.260585
353.44387
274.43889
196.29024
117.62349
39.277455
353.44815
274.41283
196.32546
117.67375
39.261682
353.44935
274.42039
196.2936
117.68875
39.250323
353.44104
274.43213
196.29454
117.65556
39.243943
353.47494
274.44329
196.24758
117.64665
39.262831
353.46373
274.40543
196.32073
117.65796
39.267007
353.4679
274.40723
196.31571
117.67272
39.245943
353.46033
274.41913
196.29632
117.64719
39.251681
353.46004
274.41138
196.32512
117.68141
39.220803
353.46402
274.41429
196.32213
117.68271
39.233861
353.46775
274.42174
196.31552
117.64047
39.256565
353.47328
274.42001
196.31851
117.67188
39.242977
353.4802
274.40961
196.30242
117.64685
39.250531
353.48291
274.38672
196.31596
117.64758
39.251567
353.48831
274.38739
196.32239
117.67468
39.268204
353.48779
274.39419
196.31357
117.68988
39.265968
353.4836
274.42589
196.26229
117.65929
39.26824
353.49345
274.45874
196.28218
117.69123
39.243364
353.49398
274.46314
196.27835
117.69015
39.243485
353.47621
274.42277
196.27364
117.63018
39.265182
353.48188
274.40071
196.3168
117.68964
39.267165
353.48343
274.38707
196.29292
117.66157
39.26349
353.47852
274.41101
196.26756
117.59503
39.257671
353.48911
274.44383
196.25867
117.63299
39.228869
353.47321
274.46614
196.2672
117.64822
39.21852
353.47879
274.48282
196.2663
117.69398
39.233064
353.46972
274.47564
196.25856
117.6755
39.23032
353.46429
274.43398
196.2506
117.6413
39.249257
353.46613
274.41302
196.28618
117.68016
39.247602
)
;
    }
    bottomWater_to_rightSolid
    {
        type            calculated;
        value           nonuniform List<scalar> 
130
(
0.012471045
-0.0061195632
0.0015643664
0.012131619
0.020228692
0.015427591
-0.0026255246
0.00022941733
-7.8791203e-06
-0.0051316565
-0.005053556
-0.016739305
0.0085861217
0.0058173034
0.0056488388
0.016844424
0.018832909
0.022762758
0.01681322
0.012459842
0.013208599
0.0055959344
-0.00034450899
-0.0041374921
0.001909471
0.031954947
0.00036045657
0.0048713622
0.024622985
0.035974261
0.02697588
0.030565557
0.014758519
0.022011273
0.014424671
-0.0078885651
0.020787731
0.019886239
0.0032066638
-0.0088085249
-0.012491657
-0.011662371
-0.00060235507
0.010256619
0.012740399
0.011441351
-0.0058679151
-0.0085390373
-0.0046085998
0.0091340205
0.0081430585
0.018790667
-0.004339477
-0.020827584
0.011255932
0.015298512
-0.0067507848
-0.016263702
-0.027969285
-0.012729473
-0.010342239
-0.018982059
0.0079236204
0.017831836
0.019545277
-0.0067742642
0.00036208554
0.03298318
0.031835042
0.02931221
-0.00066802264
-0.010940318
-0.026379221
-0.013870672
-0.014549406
0.0053538815
0.014455053
0.013405257
-0.00041032848
0.0039231267
0.023645639
0.018195912
0.022424723
0.0085738405
0.0040065762
-0.001578529
-0.013805836
0.01078571
0.021799011
0.020462013
0.028005921
0.0070821569
0.0040321126
0.013898192
0.045912723
0.037307813
0.014838516
0.008729273
0.0019027336
-0.0042164525
-0.010933409
0.022410292
0.019699437
0.030378681
0.027417165
0.037003329
0.0060937338
0.033220779
0.033102505
0.031492612
0.029141529
0.016708842
-0.0114953
-0.014352478
0.0022055032
0.015986781
0.014332646
0.028239734
0.0033642095
0.0034851717
0.025181602
0.02716502
0.023490495
0.017671194
-0.011131442
-0.021480176
-0.0069363092
-0.0096802577
0.00925727
0.0076024387
)
;
    }
    bottomWater_to_leftSolid
    {
        type            calculated;
        value           nonuniform List<scalar> 
130
(
0.028283315
0.019378411
0.0092939708
0.0032497688
-0.0098148743
-0.023350511
-0.0071862459
0.0014381592
0.0095436491
0.0078763551
-0.0084645268
-0.0042620513
-0.011606041
0.022899347
0.01778123
0.010258369
0.0069404282
-0.0050635926
-0.019489141
-0.013057613
0.01171472
0.014327249
0.014078614
0.020419965
-0.001928499
0.0021842108
0.010078326
0.010760902
-0.0032622209
0.009498791
-0.0040270397
-0.012681332
-0.0030068074
0.020521694
0.0010353081
0.01978182
0.04675686
0.021234198
0.014455543
0.013969659
0.020492245
0.003441585
-0.0093213332
0.016168786
-0.012403391
-0.0077135219
0.014602521
0.011433705
0.024263395
0.051566862
0.02837707
0.029366
0.0080555191
0.007443
-0.014937884
-0.017349017
-0.0054176828
-0.029001656
-0.0057631522
-0.0026607126
-0.014168995
0.021199996
0.034651811
0.032867584
0.021611894
0.0072709305
0.0017880931
-0.011124769
-0.017749429
-0.015225342
0.005574437
0.024347614
0.010539614
0.02787461
-0.0032965747
0.0069465441
0.019710075
0.002319325
0.010483468
-0.0071715008
-0.010987011
0.0043117681
0.0060918115
0.015806387
0.02680525
0.015326054
0.025628582
0.013665923
0.020875939
0.0036444941
-0.012236182
0.00032813397
-0.01937425
-0.0029781325
0.016110407
0.027795353
0.037811772
0.0398725
0.032015196
0.022384979
0.012032553
0.015238465
-0.0018250952
-0.015152056
-0.00044697253
0.019527341
0.019695197
0.0011467706
-0.010508111
0.0021619008
0.0072695667
0.0062407049
0.010623871
0.00082772799
0.0032109171
-0.015799419
-0.012422965
0.020584767
0.037455487
0.021681931
0.010323324
0.0039426673
0.0228307
0.027007328
0.0059427556
0.011681218
-0.019196608
-0.0061386383
0.016565028
0.0029767521
)
;
    }
    bottomWater_to_heater
    {
        type            calculated;
        value           nonuniform List<scalar> 
92
(
-0.019039852
-0.012261706
-0.015931439
0.0018783801
-0.0034980906
-0.018039049
-0.015551192
-0.0095176398
0.010990971
0.00081982329
-0.006656642
-0.0094778862
353.4483
353.44817
353.44464
353.44442
274.40462
274.43598
274.44201
274.42105
196.27751
196.26858
196.29427
196.26996
117.65979
117.64372
117.63632
117.6609
0.013896688
39.253897
0.0075943547
39.247594
0.029981137
39.269981
-0.0057917535
39.234208
353.45938
353.47752
274.41698
274.41433
196.29888
196.3071
117.68551
117.69679
39.261612
39.235661
353.45316
353.47178
353.46443
353.49542
353.47786
353.48923
274.40897
274.41287
274.41244
274.46622
274.39295
274.46228
196.29739
196.31851
196.28846
196.25967
196.3168
196.26117
117.67338
117.70172
117.65454
117.67001
117.67643
117.67295
39.242319
39.234983
39.226792
39.233822
39.233226
39.232047
-0.0050166943
-0.013207819
-0.0061777052
-0.0079528765
-0.0017453213
0.018543579
0.025488866
0.0054302747
-0.014283347
-0.0012656698
0.027027442
0.023641801
0.010530834
0.011567251
0.028204223
0.025968274
)
;
    }
}


// ************************************************************************* //
