/*--------------------------------*- C++ -*----------------------------------*\
| =========                 |                                                 |
| \\      /  F ield         | OpenFOAM: The Open Source CFD Toolbox           |
|  \\    /   O peration     | Version:  v2012                                 |
|   \\  /    A nd           | Website:  www.openfoam.com                      |
|    \\/     M anipulation  |                                                 |
\*---------------------------------------------------------------------------*/
FoamFile
{
    version     2.0;
    format      ascii;
    class       volScalarField;
    location    "690/bottomWater";
    object      T;
}
// * * * * * * * * * * * * * * * * * * * * * * * * * * * * * * * * * * * * * //

dimensions      [0 0 0 1 0 0 0];


internalField   nonuniform List<scalar> 
1460
(
971.89586
969.51231
967.95812
966.77961
966.38082
966.35234
966.7596
957.79192
947.391
945.13616
943.36103
930.50503
927.52455
924.88743
922.86992
920.66202
918.51576
917.56241
920.04566
922.50364
925.13159
926.72297
924.80754
923.00854
926.16586
927.80117
925.85584
922.45048
923.47757
926.09146
968.23305
966.76986
965.96347
965.53266
965.26344
964.90124
964.7077
956.37245
946.87896
945.54029
939.91902
927.61222
924.41377
924.28644
922.42549
916.34574
915.22435
916.06381
916.39325
917.98471
920.47715
924.00661
921.5812
921.37363
922.44128
923.76053
922.49932
921.8054
922.49772
923.2973
968.11125
966.75504
966.06157
965.89827
965.42264
964.93821
963.10547
956.27701
954.13354
946.28584
939.20351
928.07141
924.39476
927.54959
924.38495
916.11109
915.10863
916.28671
917.08778
918.15976
920.16934
921.83647
921.72302
921.18794
922.56147
923.7717
921.73928
921.79742
922.51538
923.40073
968.00046
967.06627
966.72875
966.34759
965.9267
965.68925
963.09261
957.52061
956.03144
952.19537
944.44457
932.78776
931.22334
930.38004
926.06759
916.00551
915.35489
916.58946
916.94046
918.04943
920.31887
921.06938
921.07985
920.15869
921.37264
923.31176
920.91578
921.49235
922.5339
922.85082
967.45642
966.91677
966.54005
966.26058
966.0672
965.81081
963.63732
954.46424
953.60406
951.44121
947.1557
941.79927
937.38602
933.07689
926.49953
914.96016
914.16971
914.84418
915.17748
916.93798
918.81953
919.45722
919.08033
919.10964
919.18497
919.11591
918.97823
921.52498
923.1027
922.41845
972.34557
969.4955
967.27496
966.60944
967.01654
966.7401
967.38503
964.77263
952.85258
943.825
943.12486
932.59141
930.47382
927.9977
928.03602
921.42805
920.12567
921.72915
921.7269
921.86882
925.48903
925.9617
927.53926
925.72848
922.88525
926.46536
927.15332
925.7693
924.71791
927.38368
968.49751
966.77728
966.37941
966.63315
965.53371
964.17614
964.5198
963.55536
948.34055
943.80055
940.47496
928.72197
926.75204
926.75002
926.6867
919.387
916.01982
916.37266
917.15383
918.60586
920.68191
923.47963
923.90077
922.93015
923.12008
923.98237
924.87213
923.48908
924.01666
924.63613
968.47232
967.26706
967.09654
966.64576
965.15272
963.51334
962.20119
962.53371
951.41063
945.27115
934.51906
928.79118
927.15015
927.17024
927.28353
919.3771
913.90758
915.15943
916.47502
917.92639
920.30286
922.65679
923.3722
923.11231
923.07941
924.14012
924.44823
923.8912
924.31303
924.41962
968.40711
967.933
967.52445
966.96536
966.00643
965.38779
962.62572
961.07372
954.4987
952.86769
939.46465
930.00786
929.39657
928.35466
928.83447
920.99974
914.61921
914.61538
915.86214
918.50887
920.43077
922.1689
922.7734
922.5652
922.43544
923.35178
923.78319
924.14638
924.58131
925.10178
968.06724
967.71273
967.41613
967.02417
966.60997
965.85971
962.80917
959.32281
953.55495
950.36494
942.07581
938.26329
935.25282
931.76062
929.67519
920.4881
913.22917
914.29776
915.81985
917.92358
919.51529
920.82327
920.70502
920.70863
920.77474
921.0885
920.29498
924.31905
924.96915
924.33542
972.34383
969.44269
965.70172
970.14123
971.07303
970.76854
965.53649
967.16414
962.22678
949.4601
945.76994
934.5503
930.861
927.63765
924.28164
916.811
920.80504
920.2037
917.61842
918.10425
921.20152
923.26691
926.79573
926.47521
925.18739
925.8536
929.21562
928.92111
928.22475
930.13113
967.74964
965.55293
965.43129
966.43889
967.29516
966.55873
961.20231
961.97199
958.35416
944.51531
941.93479
931.67726
926.79212
924.86306
922.60697
914.75421
915.58032
916.22609
915.0869
917.64193
918.66666
920.50291
924.43591
924.05049
923.70877
924.47484
926.87415
927.07896
926.04612
926.38141
967.51099
966.49826
965.78453
965.66539
966.90011
961.55605
960.76593
960.06162
956.91552
946.02641
937.80175
931.79503
928.25589
926.65994
921.81703
914.27054
911.49457
914.86127
914.58859
917.66322
919.74604
920.31054
924.09691
923.9323
923.45038
924.44779
925.0831
926.5993
926.59753
926.13314
967.30584
966.9247
966.24394
965.12358
965.36824
960.17312
960.03787
958.50288
955.94462
953.13939
939.80143
931.94361
930.07454
928.55202
927.8765
919.82955
911.58669
914.01598
913.96979
916.33076
919.93903
919.93874
923.65568
923.53468
923.09896
922.91605
922.2408
925.29509
926.95739
926.2253
966.83955
966.51523
966.41171
965.6871
965.67232
959.32082
955.96159
955.68574
947.67968
941.11913
939.30242
934.89912
933.75885
930.28888
927.96609
922.66813
912.40759
913.01039
914.8304
917.15453
918.86009
919.01795
922.11277
921.73266
921.77727
921.4373
921.22909
925.70311
926.86193
925.31962
971.59541
968.52365
965.08754
970.28616
967.87804
966.16498
959.91331
959.07525
961.70456
959.15788
957.38416
953.00327
947.13012
925.01322
920.21849
916.6667
915.47537
912.99797
913.95793
918.964
920.49318
922.18351
926.62813
926.74465
926.21027
927.12219
929.37766
931.65441
932.14137
933.2304
966.6467
964.17796
963.68256
964.43893
964.30582
962.51941
959.24764
957.6901
958.83263
955.14816
952.849
948.90152
929.1457
919.08026
915.25875
911.18633
910.6615
910.67417
912.61726
918.66159
918.85655
921.00142
924.54568
924.24453
924.02412
925.35264
927.43714
929.05227
929.4542
929.57099
966.46677
964.98159
963.99752
964.284
963.98779
960.13318
959.27606
957.49029
954.81569
951.11217
943.27557
947.58651
929.74572
917.98847
915.88647
907.42574
908.72353
909.29103
912.85453
918.82406
919.7015
920.7963
924.19749
923.33416
922.9705
924.89502
926.94643
927.94646
929.00669
928.8684
966.29349
965.18429
964.01468
964.12211
963.9586
956.49349
956.74508
956.46132
955.33551
951.61309
942.93923
943.86609
930.121
921.19807
920.56174
913.20498
906.84446
911.18873
915.2571
917.9774
919.50613
920.31249
923.40363
923.13902
922.62592
923.5591
926.73404
928.36058
929.0545
928.8902
965.47508
965.10373
965.06526
965.05443
964.41157
955.34188
953.83066
952.97878
948.09691
945.95881
943.34242
943.54029
933.85615
927.97639
924.7262
914.65323
912.21474
911.67416
914.56979
916.93037
917.97368
918.55751
921.67085
921.31898
920.80318
921.63475
925.94695
927.74964
928.00947
928.14993
971.01487
967.64065
964.38921
965.47348
965.5119
963.22071
958.3879
960.30391
961.34756
949.51143
943.18255
946.20565
935.33616
900.5368
910.42468
915.26234
916.11887
919.2388
924.07753
924.6364
925.67474
927.86457
929.84221
930.87224
933.44925
935.51786
965.63586
963.01402
962.25211
961.27709
961.84883
960.25139
957.94181
957.39168
955.43304
945.62463
942.15008
942.64238
935.68669
901.40517
910.63189
918.10838
917.46478
920.11457
923.1644
922.76817
924.61282
927.11639
929.1922
930.40961
931.21667
932.45975
965.72649
963.84838
962.27339
960.96428
960.79613
958.3525
957.75606
956.08352
955.41301
950.38917
941.66259
936.19171
932.28189
903.69157
910.28839
918.00168
919.95542
920.42047
923.29902
919.68857
922.96712
926.6011
929.1033
930.42118
931.3164
931.9434
965.54808
963.65181
962.49661
960.8631
957.65131
954.99292
956.27166
955.23789
953.58421
952.95416
943.42155
933.82997
929.1273
908.9485
915.37124
918.72792
920.28261
920.63346
920.90405
918.85356
921.40666
926.30917
928.93709
930.85236
931.3667
931.68261
964.69204
964.00903
963.32414
961.83571
956.99954
954.13876
952.85237
951.11773
948.3426
946.59034
941.40219
935.46099
925.93663
911.44931
915.37628
916.45712
917.60658
917.00713
916.99349
917.37051
919.22083
925.56519
928.31611
929.2696
930.01293
930.31495
969.68235
966.08283
963.08524
962.91039
963.28136
961.03625
960.55477
962.36216
960.96293
949.66969
945.29078
943.41776
931.88519
910.57147
918.76636
917.06959
915.82606
916.88963
919.14804
919.81781
919.50695
919.75928
926.09799
928.65943
931.21867
935.03751
965.29799
962.71414
961.17528
960.20039
960.71366
959.04251
958.98542
958.98555
952.89601
946.33501
945.71711
939.88012
931.44957
903.57783
914.8419
916.47899
916.60301
917.78393
920.1528
920.24874
919.96659
919.5772
927.74834
929.7736
930.14827
931.91817
965.43895
963.13488
961.0821
959.78928
959.18997
958.53049
958.9017
958.08298
952.91455
952.11965
947.19341
933.09383
928.27414
904.49021
908.58904
911.7149
916.25732
919.83924
920.53164
919.84567
919.4121
919.76013
928.17136
930.21458
931.48018
932.19087
964.68231
961.81185
959.89184
959.18041
958.18698
957.34715
957.93142
957.15354
953.21716
953.11691
943.99199
927.26712
925.3932
911.74761
914.07661
916.65787
919.48664
920.16078
920.47594
919.73924
918.24204
920.25807
929.11624
931.91806
932.40445
932.57941
963.58761
962.84719
959.74596
958.78274
958.60477
958.59618
958.70383
958.48791
955.91386
951.30005
938.52133
930.97947
924.97285
913.82565
915.4846
916.274
917.50624
918.4279
918.15039
917.63769
917.2692
920.34979
929.37921
930.42717
931.09763
931.36738
969.76554
966.33367
964.54223
962.27169
960.17289
959.64087
960.91664
961.38414
961.80647
959.18686
954.42791
936.86751
929.0864
921.78574
917.58586
913.33244
912.54492
913.33447
916.16187
918.46562
917.91918
918.02726
919.97084
919.76347
919.42883
922.46762
926.05574
929.27092
932.36937
937.46108
965.94964
963.74552
962.30717
961.52994
960.05069
958.5485
958.99732
959.60311
959.21532
950.41134
941.04278
932.22246
925.21408
920.09619
918.00515
916.88127
915.9097
912.19194
913.94802
917.12953
918.45816
919.00756
919.95837
919.87713
919.91982
920.72878
924.24261
926.69257
928.70113
931.91
965.15655
963.04383
962.08575
961.74129
960.02253
957.7569
957.62552
959.4267
958.82622
951.11454
940.84571
927.47344
924.78107
918.03765
916.39753
917.5726
916.73511
912.15445
913.42899
917.05982
918.42569
918.97752
919.695
919.67466
919.74937
919.71515
925.65535
927.35776
928.77344
931.8554
962.76933
959.89375
959.42434
959.92667
958.42993
957.91512
957.82187
959.57542
957.99286
953.34116
949.39984
929.39377
928.51057
917.83009
917.54923
918.52367
919.90734
917.96437
914.77782
917.55089
918.52714
919.03403
919.43366
919.51529
919.32496
918.48985
926.86888
929.97384
930.04576
931.97245
961.51118
959.31942
958.41126
958.41338
957.68633
957.60428
957.9285
959.69139
957.88525
955.794
949.11956
940.63392
934.59023
919.45803
920.99044
922.0433
920.82567
918.39385
916.68004
916.99122
917.93656
918.04771
917.90505
917.84499
917.61396
918.82978
928.46421
929.71434
930.34696
931.44614
966.62101
962.24793
965.7078
962.86946
959.10067
959.93202
952.81033
945.89064
945.07006
944.01356
942.14113
933.96752
936.05136
936.6015
934.80228
929.00344
924.24141
923.35647
922.66964
920.77124
918.5682
917.22037
918.64008
919.56819
919.66654
923.46832
925.04204
927.52525
929.79491
933.63516
963.87391
960.64438
961.88857
961.5377
958.61983
958.71525
955.75208
947.11221
946.61552
946.2785
942.75435
932.37776
934.03454
934.2913
932.91558
931.30561
927.21324
923.59012
922.2161
921.90067
920.35913
919.32344
920.13313
920.53735
921.01318
922.26004
923.36646
925.12358
926.67285
928.98882
962.26448
960.60885
961.94381
962.15417
958.36892
956.12748
954.63067
947.63029
950.93166
950.8975
943.5904
932.01351
933.86808
928.26437
929.26283
931.29667
926.51055
922.28051
921.61
922.11307
921.37942
919.50859
919.99872
920.18736
921.11302
922.08301
922.777
925.58255
926.59892
928.93326
960.7707
958.77778
960.50725
960.92385
956.5914
954.51132
954.00831
948.27344
953.18013
953.19728
951.05292
935.67988
939.03978
925.42208
925.16544
928.98858
926.67128
923.45203
921.71377
922.23987
922.28596
919.8711
920.02205
920.06899
920.10631
920.8978
921.8369
927.74546
927.43356
929.09978
960.16818
958.55906
957.14175
956.13665
954.47289
953.70802
953.13028
948.55397
953.08581
953.61088
951.45055
947.40653
941.43823
926.1427
926.4842
928.29789
926.47461
922.29475
919.7754
919.83744
921.36546
919.22104
918.80023
918.49056
918.42147
918.1153
921.67911
927.45545
927.81958
928.66858
969.80324
965.89752
968.66902
964.77428
959.76646
955.6591
951.56909
947.77822
946.08002
944.25507
941.52691
938.54232
940.36953
938.07465
937.79543
934.97991
928.89817
918.94484
919.5896
919.27021
919.00845
916.62231
915.4795
918.13163
918.69091
924.1035
924.09034
927.10997
929.5299
932.25362
967.39924
964.74365
964.64872
962.5677
958.28013
955.89731
951.56794
948.0934
948.10901
946.75799
942.90395
938.9934
941.44898
936.75475
936.83846
935.98068
933.00999
922.99316
922.34355
921.43118
921.14585
919.75204
920.08359
921.08
921.45339
922.19784
922.61345
927.0779
927.85138
929.28283
964.33647
964.6478
962.96159
962.47381
955.62721
955.50085
952.84345
949.59014
949.41034
948.61718
943.64926
940.58127
942.33702
934.0011
936.51043
936.23461
933.45269
924.5844
924.81446
921.17675
920.75925
920.01708
920.19454
921.17684
920.96617
920.88695
922.27237
927.40171
928.27315
929.36807
962.9049
961.66029
962.09355
961.76546
955.21053
954.64756
953.37534
950.2311
951.43093
951.62281
949.11133
943.83514
945.26085
933.31705
935.66226
934.81127
932.67585
925.32452
925.68492
919.22884
920.27974
920.19032
920.23881
920.43053
920.48988
920.15807
922.11989
928.32975
928.96157
929.45699
963.1944
962.82788
962.32478
959.82755
955.14288
953.50548
952.32963
949.82543
951.7085
952.27971
951.02257
949.46177
946.69597
929.76293
930.89073
931.98826
929.13976
925.02093
924.50327
918.75284
918.79029
919.05112
919.37902
919.27844
919.2839
918.77755
921.82824
927.54485
928.15435
928.53593
974.60368
970.03117
967.07357
962.15387
958.87745
955.94392
957.31691
950.56357
948.06722
945.68543
943.4771
941.89698
941.89269
939.43416
935.13901
927.21293
920.51471
919.78756
920.436
917.41866
917.57985
916.58104
917.14736
920.03383
920.9769
923.31182
924.46057
927.51443
929.35087
931.70824
971.47761
968.91828
965.92815
959.20265
957.2087
956.13545
956.2159
948.668
946.1981
944.09974
941.75457
939.309
940.82193
939.7567
938.70733
935.32718
924.84804
924.09114
922.32866
918.97703
919.49105
919.16099
920.87186
921.60387
921.65899
922.15061
924.0293
927.64232
927.98634
929.0072
971.30549
968.41888
966.08948
959.44512
959.29066
956.32912
952.51887
948.64133
947.7056
948.1168
944.49709
939.78319
935.29797
939.30095
939.34891
936.59263
927.78371
926.88674
922.43462
918.90604
919.88037
919.54629
920.92147
921.52601
920.70229
920.83059
923.84811
927.77394
928.71625
929.05796
969.09883
966.3983
965.64086
959.74221
958.9794
957.6863
951.13867
949.57946
951.04235
951.54883
947.74669
943.98706
936.189
927.51407
938.9703
936.65919
929.22516
924.97508
920.93528
918.02311
919.83213
919.83038
920.85518
920.94054
920.07495
919.7725
923.3843
927.32305
928.89425
929.0375
964.83861
965.88854
964.95439
961.34197
956.4766
955.97344
951.72494
950.96168
951.42209
951.64829
947.69013
941.34326
938.27394
928.18667
932.76344
933.43296
927.15511
923.82655
921.03755
917.56489
918.10226
918.7155
919.71272
919.62524
919.01141
918.50244
922.62422
926.75263
927.12165
927.25892
)
;

boundaryField
{
    minX
    {
        type            zeroGradient;
    }
    maxX
    {
        type            zeroGradient;
    }
    minY
    {
        type            fixedValue;
        value           uniform 1073;
    }
    minZ
    {
        type            zeroGradient;
    }
    maxZ
    {
        type            zeroGradient;
    }
    bottomWater_to_rightSolid
    {
        type            compressible::turbulentTemperatureCoupledBaffleMixed;
        refValue        nonuniform List<scalar> 
130
(
750.694
758.75766
767.19129
775.55743
783.51892
790.84923
797.40886
803.11077
807.90634
811.77251
814.7011
816.66112
817.63763
744.95657
754.34388
763.93886
773.23503
781.90178
789.74515
796.6666
802.61943
807.58734
811.56849
814.57631
816.57872
817.57502
733.40235
745.83194
757.91397
769.07743
779.08044
787.86464
795.42476
801.80992
807.06893
811.24697
814.3802
816.45572
817.4829
716.10802
734.30088
750.3967
764.21138
775.93721
785.83656
794.12047
800.98105
806.56262
810.95842
814.21109
816.35642
817.4226
695.64851
723.3625
744.22298
760.57243
773.71471
784.43591
793.22811
800.41908
806.22543
810.75649
814.08953
816.28411
817.3743
695.74832
723.4388
744.27183
760.59616
773.71707
784.41263
793.17865
800.34348
806.13423
810.68841
814.0345
816.23689
817.33128
716.41707
734.5325
750.54004
764.27319
775.92157
785.7447
793.97474
800.79837
806.36513
810.7861
814.05837
816.22142
817.30149
733.89165
746.2
758.14375
769.18024
779.06529
787.74734
795.23602
801.57406
806.81315
811.0065
814.16208
816.25427
817.30052
745.5574
754.79661
764.20426
773.33998
781.87807
789.62466
796.47278
802.3761
807.32126
811.31787
814.34715
816.36437
817.37371
751.31275
759.21723
767.46366
775.66684
783.50188
790.73947
797.22658
802.87777
807.65248
811.53644
814.48301
816.44983
817.43449
)
;
        refGradient     uniform 0;
        valueFraction   uniform 0.99248593;
        value           nonuniform List<scalar> 
130
(
751.92747
759.93302
768.31649
776.63392
784.54037
791.81278
798.32334
803.98298
808.74199
812.57808
815.5038
817.46094
818.42496
746.22901
755.55722
765.09592
774.33422
782.94565
790.72918
797.59867
803.50727
808.4402
812.38548
815.40094
817.39319
818.37722
734.75193
747.10179
759.11052
770.20293
780.13196
788.87336
796.37384
802.71136
807.9283
812.07339
815.21672
817.28535
818.29321
717.57757
735.65544
751.64805
765.36677
777.00886
786.85721
795.07623
801.88139
807.42732
811.82248
815.06425
817.19541
818.25464
697.27007
724.80532
745.51718
761.75238
774.79141
785.43195
794.16093
801.31179
807.12218
811.63983
814.955
817.13869
818.22295
697.387
724.88188
745.5643
761.7752
774.80444
785.41753
794.11384
801.22208
806.99236
811.58025
814.90909
817.09999
818.18818
717.93477
735.90121
751.79081
765.42786
776.98953
786.73777
794.90552
801.67615
807.2101
811.67031
814.92743
817.07898
818.15921
735.30735
747.50425
759.35873
770.32377
780.11843
788.73208
796.16216
802.45207
807.6495
811.838
815.01339
817.0926
818.13737
746.90597
756.07185
765.36556
774.4329
782.9088
790.59965
797.39555
803.25456
808.15875
812.14823
815.19774
817.20438
818.209
752.60898
760.43315
768.59153
776.7371
784.51789
791.70858
798.14628
803.7504
808.48541
812.37117
815.32661
817.28142
818.25972
)
;
        Tnbr            T;
        thicknessLayers List<scalar> 0();
        kappaLayers     List<scalar> 0();
        kappaMethod     fluidThermo;
        kappa           none;
        alphaAni        none;
        alpha           none;
        field           T;
    }
    bottomWater_to_leftSolid
    {
        type            compressible::turbulentTemperatureCoupledBaffleMixed;
        refValue        nonuniform List<scalar> 
130
(
925.73099
925.67995
925.57318
925.40573
925.17369
924.87461
924.5095
924.09842
923.70961
923.34066
923.00457
922.73695
922.58027
925.7633
925.71282
925.6057
925.43612
925.20083
924.89902
924.54089
924.15411
923.75563
923.37682
923.03049
922.77085
922.62221
925.79158
925.74195
925.63567
925.46417
925.22397
924.90565
924.55954
924.2026
923.81603
923.4387
923.11693
922.86717
922.72498
925.81228
925.76346
925.65958
925.4927
925.25529
924.94443
924.6276
924.29967
923.94969
923.609
923.29963
923.05415
922.88359
925.82475
925.77533
925.67167
925.50856
925.28294
925.02284
924.74526
924.44664
924.12437
923.79284
923.46315
923.18244
922.99866
925.82123
925.77227
925.67055
925.53098
925.35535
925.14921
924.9165
924.65446
924.35554
924.02651
923.67611
923.38685
923.21272
925.80181
925.75325
925.66635
925.54657
925.39282
925.21209
925.00713
924.77955
924.52068
924.24116
923.9498
923.69654
923.54184
925.7953
925.74934
925.66311
925.54115
925.38627
925.2079
925.00709
924.78356
924.57484
924.35253
924.12646
923.92963
923.80292
925.83536
925.79744
925.71389
925.58066
925.40986
925.22576
925.02537
924.81315
924.61133
924.40637
924.20454
924.03694
923.93333
925.87009
925.83842
925.75377
925.61404
925.44036
925.25659
925.0468
924.83786
924.63058
924.41717
924.19557
924.00845
923.90193
)
;
        refGradient     uniform 0;
        valueFraction   uniform 0.99248593;
        value           nonuniform List<scalar> 
130
(
926.0445
925.98979
925.881
925.7127
925.48095
925.1822
924.80341
924.32653
923.93416
923.55174
923.18596
922.88008
922.6914
926.08118
926.02841
925.91986
925.74861
925.51198
925.20681
924.82837
924.41833
923.97952
923.5796
923.17358
922.88733
922.71713
926.10002
926.04833
925.94208
925.76642
925.52793
925.16426
924.7955
924.43923
923.99563
923.57158
923.23851
922.95768
922.80793
926.11032
926.05908
925.95569
925.78998
925.54951
925.17279
924.84706
924.51524
924.13127
923.777
923.45029
923.20809
922.96608
926.11681
926.06263
925.95462
925.78156
925.52125
925.24165
924.95652
924.64716
924.30647
923.96422
923.598
923.27465
923.02081
926.10502
926.05087
925.92663
925.78087
925.60523
925.40058
925.17044
924.90877
924.59277
924.23167
923.78786
923.44397
923.22609
926.07016
926.00551
925.91244
925.79358
925.63554
925.45554
925.25455
925.04192
924.7714
924.47828
924.13902
923.82397
923.62506
926.05358
925.99586
925.89962
925.77103
925.60485
925.42206
925.21841
924.96219
924.78908
924.57237
924.33177
924.10604
923.93558
926.11606
926.07568
925.98897
925.83795
925.63326
925.43828
925.23057
925.00113
924.81495
924.6158
924.40602
924.22797
924.10443
926.16287
926.13935
926.04831
925.88243
925.6736
925.48747
925.2473
925.03421
924.83191
924.62179
924.37194
924.13861
924.0099
)
;
        Tnbr            T;
        thicknessLayers List<scalar> 0();
        kappaLayers     List<scalar> 0();
        kappaMethod     fluidThermo;
        kappa           none;
        alphaAni        none;
        alpha           none;
        field           T;
    }
    bottomWater_to_heater
    {
        type            compressible::turbulentTemperatureCoupledBaffleMixed;
        refValue        nonuniform List<scalar> 
92
(
731.64033
733.68442
737.6969
743.50269
722.42482
724.84449
729.59195
736.45511
702.9573
706.09278
712.39483
721.71698
345.4544
342.70608
342.69587
345.3202
421.98591
418.61436
418.75949
422.20523
487.46345
484.65054
485.29087
488.92744
543.19693
541.51577
543.38029
547.80066
671.15951
589.31973
675.10095
589.5696
683.57586
594.15416
697.31922
601.67624
345.4544
345.3202
421.98591
422.20523
487.46345
488.92744
543.19693
547.80066
589.31973
601.67624
345.4305
345.4305
342.70068
342.70387
345.36462
345.36462
421.95939
421.95939
418.61941
418.78836
422.25143
422.25143
487.43398
487.43398
484.65408
485.33245
488.98679
488.98679
543.16191
543.16191
541.51267
543.41957
547.88057
547.88057
589.30041
589.30041
589.57687
594.20243
601.75439
601.75439
671.30896
675.30806
683.87247
697.65456
703.31734
706.50759
712.89605
722.26707
722.95309
725.43157
730.26699
737.1462
732.22712
734.35774
738.45558
744.23102
)
;
        refGradient     uniform 0;
        valueFraction   nonuniform List<scalar> 
92
(
0.99248593
0.99248593
0.99248593
0.99248593
0.99248593
0.99248593
0.99248593
0.99248593
0.99248593
0.99248593
0.99248593
0.99248593
0.99248593
0.99248593
0.99248593
0.99248593
0.99248593
0.99248593
0.99248593
0.99248593
0.99248593
0.99248593
0.99248593
0.99248593
0.99248593
0.99248593
0.99248593
0.99248593
0.99248593
0.99248593
0.99248593
0.99248593
0.99248593
0.99248593
0.99248593
0.99248593
0.99248593
0.99248593
0.99248593
0.99248593
0.99248593
0.99248593
0.99248593
0.99248593
0.99248593
0.99248593
0.99248593
0.99248593
0.99248593
0.99248593
0.99248593
0.99248593
0.99248593
0.99248593
0.99248593
0.99248593
0.99248593
0.99248593
0.99248593
0.99248593
0.99248593
0.99248593
0.99248593
0.99248593
0.99248593
0.99248593
0.99248593
0.99248593
0.99248593
0.99248593
0.99248593
0.99248593
0.99248593
0.99248593
0.99248593
0.99248593
0.99248593
0.99248593
0.99248593
0.99248593
0.99248593
0.99248593
0.99248593
0.99248593
0.99248593
0.99248593
0.99248593
0.99248593
0.99248593
0.99248593
0.99248593
0.99248593
)
;
        value           nonuniform List<scalar> 
92
(
733.15383
735.13316
739.02887
744.78512
723.99778
726.38361
731.0263
737.78341
704.66549
707.75997
713.97488
723.14981
349.80929
347.04555
347.00873
349.6044
425.72114
422.3462
422.4596
425.8755
490.69847
487.89097
488.46283
492.08179
546.0373
544.364
546.15922
550.49852
673.08931
591.86447
676.97671
592.08805
685.31227
596.56249
698.93404
604.00974
349.8868
349.4921
425.84589
425.80603
490.80584
492.04401
546.09682
550.51435
591.84916
604.00391
349.83715
349.76132
347.02047
346.99167
349.6117
349.6265
425.78772
425.70244
422.37187
422.53112
425.86803
425.96084
490.74649
490.66957
487.89824
488.58037
492.10896
492.20096
546.03403
545.97719
544.3382
546.23805
550.61472
550.67602
591.82281
591.78122
592.06709
596.6658
604.09934
604.15192
673.17355
677.1541
685.66205
699.33149
704.99168
708.16051
714.51457
723.80149
724.50711
726.97535
731.78271
738.58885
733.69946
735.84845
739.92055
745.60547
)
;
        Tnbr            T;
        thicknessLayers List<scalar> 0();
        kappaLayers     List<scalar> 0();
        kappaMethod     fluidThermo;
        kappa           none;
        alphaAni        none;
        alpha           none;
        field           T;
    }
}


// ************************************************************************* //
