/*--------------------------------*- C++ -*----------------------------------*\
| =========                 |                                                 |
| \\      /  F ield         | OpenFOAM: The Open Source CFD Toolbox           |
|  \\    /   O peration     | Version:  v2012                                 |
|   \\  /    A nd           | Website:  www.openfoam.com                      |
|    \\/     M anipulation  |                                                 |
\*---------------------------------------------------------------------------*/
FoamFile
{
    version     2.0;
    format      ascii;
    class       volVectorField;
    location    "690/bottomWater";
    object      U;
}
// * * * * * * * * * * * * * * * * * * * * * * * * * * * * * * * * * * * * * //

dimensions      [0 1 -1 0 0 0 0];


internalField   nonuniform List<vector> 
1460
(
(-0.00046474838 -0.016080062 1.5641215e-05)
(-0.0025497682 -0.015134833 -0.00071229034)
(-0.0030441635 -0.015048291 -0.0014054242)
(-0.0022145442 -0.013642953 -0.00098205534)
(-0.00036694416 -0.012211192 0.00047122555)
(0.0021441819 -0.011170266 6.5928716e-05)
(0.0023304147 -0.015966176 0.00037193902)
(0.00056416629 -0.017147609 0.0003723155)
(-0.0025143539 -0.014958161 0.0010302437)
(-0.00045935863 -0.010696592 0.0012577588)
(0.0017844994 -0.015089511 0.00088675802)
(-0.002530895 -0.016335189 0.00068166774)
(-0.0039000894 -0.013496623 -0.00011874183)
(-0.0046893572 -0.01230867 -0.0002672934)
(-0.0025692553 -0.012444649 0.00046291389)
(-0.0011410138 -0.014427726 0.00018796501)
(-0.00055109055 -0.01438801 0.0012513391)
(0.0024149214 -0.01271736 0.0014606452)
(0.0041567184 -0.014363354 0.0013728083)
(0.0032263968 -0.014927662 0.00076048827)
(0.0019138281 -0.016027235 0.00105459)
(-0.00053613586 -0.014472604 0.00043593893)
(-0.0013046717 -0.0095420893 0.00083042848)
(0.00082636269 -0.010423504 0.0020634338)
(0.002114791 -0.015887331 -0.00060311724)
(0.00098350643 -0.017701759 0.0010765932)
(-0.0021411122 -0.016220869 0.00039490274)
(-0.00050128341 -0.01066333 0.0012555311)
(0.0017576402 -0.011497589 0.0017045904)
(0.0022197861 -0.017538922 0.0018558092)
(-0.0027288057 0.017540985 -0.00085018592)
(-0.0054921031 0.017292203 -0.0017461619)
(-0.006513192 0.016055162 -0.0015917688)
(-0.0031191541 0.0088220595 -0.00036634093)
(-0.00066494084 0.0029953615 0.00075549744)
(0.0023215407 0.004283725 0.00032046035)
(0.0059228472 0.01581348 0.00071668086)
(0.000502942 0.018663718 0.0014254621)
(-0.0042425738 0.013386094 0.0023497134)
(-0.0016621162 -0.0013859689 0.00079152895)
(0.0044459588 0.015353456 0.00072971186)
(-0.0031676421 0.018186771 0.00083432141)
(-0.0064141238 0.014648251 0.0001251295)
(-0.0042923082 0.0077592291 -6.8922513e-05)
(-0.0021419073 0.0033068686 -2.7673551e-05)
(-0.00083928355 0.011556027 -0.00087822141)
(0.0019430762 0.0056094776 0.00094769661)
(0.002704143 0.0010857855 -3.9008212e-05)
(0.0067524513 0.012004438 -9.0631538e-05)
(0.0061093692 0.016651376 -0.00017538959)
(0.0036905805 0.018129826 0.00073633004)
(-0.0031842182 0.016496504 0.0016082136)
(0.00031205758 0.0065181894 0.0002523282)
(0.0012523526 -0.00036512829 0.0010245468)
(0.0055692166 0.015399904 -0.00044976842)
(0.0026557329 0.019334009 -0.00013956888)
(-0.0055534531 0.016259064 0.0018511505)
(0.0005547698 -0.0012201369 0.00023057448)
(0.00048151202 0.0011760322 0.0019365925)
(0.003884737 0.01763804 0.0025215867)
(4.7872452e-05 0.0029765936 0.00045898789)
(0.00079730282 0.0013081185 1.2197784e-05)
(0.0029452553 -0.0081231535 0.00048593293)
(0.0040408718 -0.01474486 0.0010139524)
(-0.0010749652 -0.014640909 -0.0001340583)
(-0.0025912872 -0.013714913 -0.00060260565)
(0.00045066429 -0.010715909 0.0015525483)
(0.0013302444 0.0017223424 0.0014058956)
(0.0060236364 -0.013498583 -0.00083466001)
(-0.0015311206 -0.015290256 2.8552726e-06)
(-0.0040074478 -0.012026628 0.00038391802)
(0.0011155447 0.0011012307 0.0021029376)
(0.00029241797 -0.01066575 0.0020719475)
(0.001627622 -0.013673275 0.0018675295)
(-0.0016525111 -0.013660338 -0.00019354998)
(0.00084270848 -0.013898361 -0.00019056384)
(0.0043568776 -0.015390388 -0.0017340531)
(-0.0027890765 -0.015757084 -0.0032668665)
(-0.0033306552 -0.014165735 -0.0034173928)
(0.0015712984 -0.0043304326 -0.0013985307)
(0.002445244 0.0024793743 -5.7788839e-05)
(0.0038644778 -0.0067447457 -0.0010813347)
(0.0049388741 -0.013232012 -0.0020640378)
(0.0016183857 -0.014529801 -0.00049241412)
(-0.0022535236 -0.015085328 0.0043739114)
(0.00070113004 0.0056511321 -8.6412271e-05)
(0.0012552535 -0.011591202 0.0018618293)
(0.0035271353 -0.013968687 -0.0014588857)
(-0.00025544106 -0.012919719 0.00063792072)
(-0.00078772804 -0.013994054 0.0023224687)
(0.0012728764 0.00895065 0.00073310743)
(0.0034053465 0.0077601223 0.00097403466)
(0.0052212086 0.0087370143 0.00084653125)
(0.003540892 0.010614494 0.00051625903)
(0.0008760397 0.0083591693 -0.00031529425)
(0.0030228166 -0.00013202895 -0.00067533256)
(0.00096398162 0.001134744 0.00025171799)
(0.0042847795 0.0062519071 0.001345141)
(0.0051043755 0.011727845 -0.00044467017)
(0.001183163 0.0092396515 0.00033114922)
(-0.0010245964 0.0036072251 -0.0014260324)
(0.0011989257 0.0050875334 0.0013840035)
(0.0046104678 0.0071138523 0.0017373434)
(0.0010933238 0.0024409184 0.00027155951)
(0.0011145122 -0.0028687934 -0.00023855417)
(-0.00058366424 -0.0012593289 -0.00098313852)
(0.002052484 0.010989038 -0.00089976479)
(-0.0032763069 0.010974052 -0.00015212227)
(-0.0020752436 0.0067886718 -0.0018974819)
(-0.0018634454 0.0058370328 -1.0684164e-05)
(0.0019344385 0.008330063 0.00023934642)
(0.0035023787 0.0092236286 -0.0011041578)
(0.0020052708 0.0083923783 -0.0012621594)
(0.0030250466 0.0033141073 0.00061858129)
(-0.0023198681 0.0071308027 0.00088818524)
(8.5736557e-05 0.0077123684 0.0028943243)
(0.0037567748 0.0052810999 -0.0014128176)
(0.0029600641 -0.0021704449 -0.00072837552)
(0.0026197873 -0.00052727297 -0.0010094996)
(0.0032613443 0.010174719 0.00072234976)
(0.0021057409 0.0011778304 0.00050532515)
(0.0041463187 -0.0017279056 0.00034456319)
(0.0054626921 -0.0054755935 -0.00014290396)
(0.0063952825 -0.0074792814 -0.00066994707)
(0.0076142119 -0.0092921194 -0.0013150423)
(0.0066886522 -0.0096849784 -0.0017182401)
(0.0017707093 -0.010313469 -0.0013782513)
(-0.0010384037 -0.0062294013 -0.0014347868)
(0.0023345681 -0.0050901926 -0.0010496783)
(0.0040319838 -0.0094338897 -0.0020236474)
(0.0034494964 -0.010234268 -0.00375458)
(0.0024697365 -0.0080918865 -0.0032179442)
(0.0036532505 -0.010194954 -0.0034772489)
(0.0036307823 -0.009926345 -0.0036720778)
(0.0020010591 -0.0096645143 -0.002506144)
(-0.0043628042 -0.0093184882 -0.0013586306)
(-0.00426851 -0.0075070242 -0.00033025915)
(-0.001834694 -0.0062402853 -0.00062600239)
(-0.00056061189 -0.010805964 -0.0022910004)
(-0.0027702805 -0.0080731579 -0.0021638019)
(-0.001232505 -0.0019790711 -0.0008512595)
(0.0021416727 -0.0027373639 -0.0012283038)
(0.0041526755 -0.0080372826 -0.0020028098)
(0.0044393118 -0.0086726816 -0.0029996272)
(0.0034674801 -0.010574825 -0.0033426107)
(0.0038498109 -0.008770698 -0.002961613)
(0.0040581376 -0.010654283 -0.002795212)
(0.0010498775 -0.010680126 -0.0034602085)
(-0.0033959972 -0.0086263174 -0.003721638)
(-0.0019437515 -0.0045803625 -0.0021987378)
(-0.00054984385 -0.01558551 -0.00070821769)
(-0.0031905867 -0.014714857 -0.0015825849)
(-0.0030141846 -0.013321667 -0.0028079457)
(4.5500565e-05 -0.012878616 0.00019853712)
(0.002598513 -0.013533084 0.00093904661)
(0.0032377813 -0.012271547 0.0013436843)
(0.0027884905 -0.01487223 0.00057631083)
(0.0018450065 -0.017445473 0.0014191228)
(-0.00091255987 -0.016414603 0.001654979)
(-0.00012106742 -0.010325757 0.0017780342)
(0.0014627235 -0.017259427 0.00065866823)
(-0.00262388 -0.015811659 0.0010581497)
(-0.0040563431 -0.013900754 0.00078511534)
(-0.0031577073 -0.012136419 0.0014451499)
(-0.0013287657 -0.012718566 0.0010072893)
(0.00099509631 -0.012261889 -0.0007294403)
(0.0023852604 -0.013028699 0.00067217618)
(0.0027216532 -0.015422899 0.00045476705)
(0.0015974848 -0.016207634 -0.00074479037)
(0.001180162 -0.014159625 -0.0032554601)
(-0.00013826505 -0.015331605 -0.0016576331)
(-0.00084574611 -0.016341784 -0.0024141297)
(-0.001740171 -0.013722707 -0.00040842209)
(-0.0032353336 -0.013436036 0.0010219238)
(0.00018040001 -0.011398237 -8.3911953e-05)
(0.0025834812 -0.015172064 -0.0006728528)
(0.0011329646 -0.017827872 0.00037782744)
(-0.00057115954 -0.016420842 0.0025219927)
(0.0007958413 -0.011167719 0.0029737592)
(0.0019436617 -0.018034976 0.002367034)
(-0.0031380011 0.017532475 -0.0027047909)
(-0.0050401856 0.01632931 -0.0040000552)
(-0.0034900453 0.0095483119 -0.0034175525)
(0.00057864179 -0.00012394526 -0.0010297611)
(0.0018176505 0.0077578213 0.0013798244)
(0.0029959541 0.0076602202 0.00050146204)
(0.0056724818 0.015707471 -0.0002587446)
(0.0051866926 0.019071892 -0.000575169)
(-0.0031453589 0.016752206 0.0025137762)
(-0.0012655882 0.0026398147 0.00027823638)
(0.0042689732 0.017822216 0.0023245599)
(-0.0039486002 0.018059576 0.0024593586)
(-0.0065512364 0.013353483 0.0028154257)
(-0.0025058373 0.0025503649 0.0025728604)
(-0.0017527646 0.0060822304 0.0024375772)
(0.0028999026 0.0050110505 0.00029150173)
(0.0047588507 0.0070038556 0.0016493621)
(0.0072454971 0.015366065 0.0041697477)
(0.0051751576 0.017929765 0.0016333289)
(0.0034765534 0.016632893 -0.0016424922)
(0.003501201 0.017466846 -0.0015248204)
(-0.00065849644 0.018117861 0.0010903759)
(-0.0035508133 0.016030076 0.0034009851)
(-0.0040047699 0.013050689 0.0040335105)
(0.000626181 -0.0015712692 0.00087219932)
(0.0048338823 0.015395158 -0.0023336954)
(0.0017241959 0.019439706 -0.00019267705)
(-0.0036803483 0.016239849 0.0038333344)
(7.2055589e-05 0.0036513555 0.0023920205)
(0.002343048 0.018939954 0.0047049761)
(-0.000188847 0.0027925499 -0.00047491344)
(0.0033651479 -0.0059073056 -0.00082901518)
(0.0057957508 -0.013782571 9.4316045e-05)
(0.0026428621 -0.015384596 -0.0024571546)
(-0.0029642784 -0.014588519 -0.003201948)
(-0.0021355832 -0.014219071 -0.0021060285)
(-0.001500641 -0.014332874 0.004419907)
(0.0031602127 0.0033384772 0.00016228697)
(0.0017588009 0.00063616287 0.0017376797)
(0.0010669165 -0.014532891 -0.0014992195)
(-0.0029682158 -0.012419573 0.002663105)
(6.1199924e-05 0.0033513472 0.0015959675)
(0.0034772771 -0.014361003 0.0019856117)
(0.0015361646 -0.015494351 0.0017681352)
(-0.0022212776 -0.012973819 0.0027090448)
(0.00093873205 -0.013470832 -0.00056177046)
(0.00086149742 -0.014415813 -0.0036693279)
(-0.0017522919 -0.01315498 -0.0036567712)
(0.0015281638 -0.00067176025 -0.0015061605)
(0.00027675206 -0.0072952425 0.00129193)
(0.0013440359 -0.00094959465 -0.00023389835)
(0.0020295239 0.0020956255 0.00015792636)
(0.0021974746 -0.0020920319 -0.00081838232)
(0.0055873253 -0.013679626 -0.00098212895)
(0.00076343503 -0.015794748 0.0022729255)
(-0.0038636988 -0.011831031 0.0021522415)
(-0.00061694989 0.0039309499 0.00096915116)
(0.0019955028 -0.008296544 -0.00065677963)
(0.0019286844 -0.014060318 -0.0003260918)
(-0.0045243546 -0.013167617 0.0014091294)
(0.0018558918 0.0081189344 -0.00039526975)
(0.0046757441 0.0076931201 0.00076592399)
(0.004428392 0.0092807025 -0.001517859)
(0.003006876 0.010583063 -0.00068964268)
(0.00082047998 0.0095114757 -0.0041073021)
(0.0031142222 0.0031608401 -0.00053063706)
(-0.00046539714 0.0032540848 0.0017324496)
(0.002435786 0.0073115474 0.0030204485)
(0.0033831712 0.0082280043 0.00010859607)
(0.0056589616 0.0087975409 0.0019522684)
(-0.0020354388 0.012609135 0.0035380563)
(0.00044785996 0.0072030382 0.0025519926)
(0.0054030371 0.010583605 0.0021845168)
(0.0012433965 0.010469849 0.0032411868)
(0.0016004902 0.0029061385 0.0011626681)
(0.00051639855 -0.0024544345 -0.0016814607)
(0.002214651 0.0057298993 -0.0020272251)
(-0.0022300437 0.011313309 -0.0035462944)
(-0.00059056792 0.007891963 -0.0015430331)
(6.655199e-05 0.0094094344 0.0013890282)
(-0.001283258 0.0081646417 0.0017545153)
(0.0018232103 0.0087507954 -0.0011502716)
(0.0046273567 0.007246367 -0.0013642769)
(0.0050995307 0.0097573971 0.00046294248)
(0.0014483663 0.010138937 0.0026767306)
(-0.0031678072 0.011122942 0.0060622598)
(0.00015840137 0.0067206418 0.0019084383)
(0.0044661168 0.0045208762 -0.00025830674)
(0.0047270493 0.0085843856 0.0012178512)
(0.0018457041 0.012354213 -0.0013421631)
(0.0022441031 0.00054039067 0.00082652212)
(0.0040578092 -0.0039821019 0.00094801534)
(0.0049209443 -0.0069918018 0.00068573286)
(0.0054853977 -0.0070378209 -0.00024585642)
(0.0066625751 -0.0082220176 -0.0011411001)
(0.0062346405 -0.0094962688 -0.0015211175)
(4.5283039e-05 -0.0097675251 -0.0010084807)
(-0.0016382522 -0.0011022996 0.00078043354)
(0.0017759263 -0.0015143995 0.00024934515)
(0.0014451586 -0.0082156104 -0.000890803)
(0.0012527955 -0.0051215508 -0.0022004654)
(0.0030760768 -0.0043741146 -0.0026702466)
(0.0033482076 -0.0069972158 -0.003062374)
(0.0044475578 -0.0069905843 -0.003317737)
(0.004919507 -0.0091752341 -0.0037268046)
(6.2957028e-05 -0.01023866 -0.0031280404)
(-0.0050196458 -0.0086885958 -0.00032187781)
(-0.003424285 -0.003620341 -0.0011960064)
(-0.0022662046 -0.0021581404 -0.0013153076)
(-0.0019891312 -0.0026923206 -0.00058179764)
(-0.0015287526 -0.00051895197 3.1528325e-05)
(0.0015687981 -0.00062385833 -0.00027513877)
(0.0027315427 -0.0038261449 -0.0020463366)
(0.0034210676 -0.0059833295 -0.0021589174)
(0.0032468977 -0.0055828259 -0.0015782526)
(0.0024744709 -0.005888658 0.00012750238)
(0.0035204987 -0.0082907088 -0.00012321446)
(-0.0023576221 -0.011024901 -0.0038485103)
(-0.0035526877 -0.0072017485 -0.0033534107)
(-0.0014665653 -0.0014586231 -0.00067197909)
(-0.00057500118 -0.014973308 -0.0007988811)
(-0.0035705239 -0.01441981 -0.0018572475)
(-0.00012095069 -0.011455234 -0.003050638)
(0.0030894016 -0.015429244 0.00074254194)
(0.0022907432 -0.016741659 0.00070395602)
(0.00086160456 -0.016040164 0.0018877498)
(0.0014143755 -0.012181204 -0.00012294759)
(0.0029239048 -0.015458214 -0.0005496669)
(0.00028214769 -0.016243773 0.0014868978)
(-6.3116209e-05 -0.017018394 0.0031367557)
(0.00065864587 -0.019814154 0.0020294177)
(-0.0016865278 -0.01600959 0.0017806014)
(-0.0034306288 -0.013699831 0.0010660839)
(-0.0041836829 -0.013252572 0.0018579615)
(-0.0026059208 -0.011758948 0.00057609113)
(0.0017706066 -0.010643481 0.00056408379)
(0.00053580353 -0.015373153 0.0028015858)
(0.0012504419 -0.019502903 0.0020391293)
(-0.0013449133 -0.015506898 -0.0026882928)
(0.00051595544 -0.010506319 -0.002399001)
(0.0018775435 -0.014622478 -0.0020260497)
(-0.0013029558 -0.018230474 -0.0030687039)
(-0.0019839582 -0.016423681 -0.0019480395)
(-0.0032812101 -0.01494755 -0.00088854091)
(-0.0022243192 -0.013606366 0.00027558638)
(0.0013095003 -0.011207617 -0.0012781382)
(0.0020615377 -0.013090876 -0.0014210784)
(0.00075613618 -0.018106273 0.00065976842)
(0.0014589601 -0.016758856 0.0028866645)
(0.00080360315 -0.017008685 0.0022255004)
(-0.0034190873 0.017107579 -0.0029979527)
(-0.0039334965 0.014165911 -0.0042312721)
(0.0003150816 -0.0030383772 -0.0034494579)
(0.0054331924 0.01490793 0.0021153385)
(0.0038898357 0.018159542 0.0042605448)
(-0.00039789279 0.017181927 0.0036610852)
(0.0024866872 0.0065369685 0.00094343921)
(0.0053021512 0.016204693 -0.0025734755)
(0.001851304 0.018167187 -0.0003717654)
(-0.0028527491 0.016415438 0.0022028107)
(0.0039657533 0.020950302 0.0032215417)
(-0.0016880271 0.018234794 0.0028452384)
(-0.0056726708 0.015742043 0.0030415483)
(-0.005307461 0.011191029 0.002873027)
(-0.0015311608 -0.0010852679 -0.00030936555)
(0.0018277586 0.0013013224 -0.0012486045)
(0.0060525933 0.015181925 0.0015318513)
(0.0044783964 0.020389409 0.0016393374)
(-0.0028106497 0.015907989 -0.0043401494)
(0.00062238703 0.0010867853 -0.00023840881)
(0.0051815608 0.015473126 -0.0014544741)
(0.0021669919 0.019649132 -0.0019667094)
(-0.0053440874 0.018115103 -0.00026545681)
(-0.0069328897 0.015886808 8.5026259e-05)
(-0.0029020548 0.0066474754 4.3202207e-06)
(-0.00086875605 0.003751236 -0.00011314477)
(0.0036647256 0.014615814 -0.0033006038)
(0.0010784559 0.019406066 -0.00085756558)
(0.0021401107 0.017769212 0.0041121264)
(0.0027589056 0.018583598 0.0051071962)
(-0.0011303024 1.7163472e-05 -0.0019639017)
(0.0060963316 -0.015189452 -0.0024943701)
(0.00094726296 -0.016244089 -0.0029827057)
(-0.004437275 -0.014435992 -0.0043188652)
(-0.00066330781 -2.4152651e-05 0.00030183591)
(0.0012872979 -0.010054859 -0.0020305269)
(0.0031201412 -0.015338494 0.0031665322)
(-0.0020555382 -0.014353972 0.0049649527)
(0.0012376072 0.0022449631 0.0018337394)
(-0.00027153563 -0.017759335 -0.0032290421)
(-0.0010160424 -0.013342581 0.0030631759)
(0.00069788279 0.0050213036 0.00058522952)
(0.0007539421 -0.0020762021 -0.0015577044)
(0.0047640767 -0.013115594 -0.003833981)
(4.5895979e-06 -0.015445666 -0.0025401701)
(-0.0032823949 -0.013768725 -0.0027501518)
(-0.0029012961 -0.012129261 -0.0016549635)
(0.002494486 0.0036771654 -0.0014241628)
(0.0029166422 -0.0044622838 -0.0018177498)
(-0.00021020707 -0.014887502 0.0020248488)
(-0.0063459397 -0.012661426 0.0013869818)
(0.00045086735 0.0054553798 -0.0016275443)
(-0.0019026702 0.00521128 -0.00072626559)
(-1.3610549e-05 -0.003985541 0.00027214957)
(0.0021645893 -0.015078722 -0.00034655804)
(-0.0049983174 -0.0140067 0.0026741662)
(-0.0038651292 -0.008884962 0.0023390596)
(-0.0012281576 -0.00534202 0.0021418014)
(-0.0027778493 -0.013366718 0.00041532539)
(-5.9947108e-05 -0.00030685573 0.0030279775)
(0.0023580951 0.0071327025 -0.0019190138)
(0.002623904 0.011319108 -0.0013180953)
(0.0024682352 0.0083869817 -0.0023309543)
(-0.0018849388 0.012010198 -0.0034024891)
(-0.00059834623 0.0058834732 -0.0048354674)
(0.0023666873 0.0029822303 -0.00175121)
(0.0033299102 0.0085680595 0.00044819512)
(-0.0023203201 0.012042694 0.0035712459)
(0.00028589192 0.0078365164 0.0027363906)
(0.0063564364 0.013097278 0.0013807161)
(-0.0024880929 0.013708869 0.0023549793)
(-0.00091999817 0.009062386 0.0011121959)
(0.0036309304 0.0073216443 -0.002937822)
(0.0043761317 0.009495178 -0.0026470724)
(0.00065280524 0.010102889 0.00032196866)
(0.00040404108 0.0013850648 -0.0011312159)
(-0.0035049359 0.0018887942 -0.00046931864)
(0.0017696627 0.0074821795 -0.002521429)
(0.0037170044 0.0090455691 -0.0015230258)
(0.0022237947 0.010062713 -0.00017279066)
(-0.004835112 0.011626694 0.00082778011)
(-0.0015264665 0.0092665061 -0.0018060181)
(0.0015411431 0.0096400658 -0.00097715751)
(0.0033031135 0.0072323415 0.00078597413)
(0.0024043791 0.010106445 0.0015660551)
(-0.0024186398 0.0094788519 0.0026931885)
(-0.00089865978 0.0029916771 0.0027995161)
(0.0031532946 0.0081300471 0.0013495874)
(-0.0023590386 0.012516176 -0.0029897486)
(-0.0039338253 0.0070751908 -0.00097176832)
(0.0015198172 -0.0026052642 1.0152959e-05)
(0.0031461697 -0.0098486284 -0.00028010998)
(0.002993415 -0.011360541 0.00033103498)
(0.001458475 -0.0055373594 -0.00043916465)
(0.0047614618 -0.0067652924 -0.001987124)
(-0.0013210506 -0.010506531 -0.00010848569)
(-0.0050708011 -0.0074122504 0.0013893733)
(-0.0025642214 -0.0035555788 0.002149532)
(-0.0015891233 -0.0096121312 0.00092741543)
(-0.0046363911 -0.01149835 -0.0003511862)
(-0.0018775759 0.00092005313 0.00011182438)
(0.0024340837 0.00050560186 -0.0015228221)
(0.0030335628 -0.0028221156 -0.0031338999)
(0.0042902945 -0.0039838263 -0.0031871323)
(0.0044923619 -0.0079944832 -0.0035036278)
(0.0038135748 -0.0082396761 -0.0046598092)
(-0.0027295898 -0.010177324 0.0010280907)
(-0.0030698517 -0.0056518802 0.0021676605)
(-0.0026057745 -0.004411016 0.002322672)
(-0.0030593402 -0.0048788726 0.0029743373)
(-0.0025880891 -0.0041185412 0.0024529526)
(-0.0014498597 -0.0005795008 0.00075246212)
(0.001776348 0.0027879195 -0.0008855684)
(0.0031725551 -0.0015792093 6.235656e-05)
(0.0029034267 -0.0020552737 0.0018451286)
(0.0039410216 -0.0047070089 0.0023672414)
(0.0022607509 -0.0095857399 0.0014467326)
(-0.0031726498 -0.0052535058 -0.002221014)
(-0.00070832483 0.0004584146 -0.0027599776)
(0.0030037774 -0.0089226087 0.00042966598)
(-0.00089638993 -0.01494983 -0.0011460248)
(-0.0031078335 -0.014558485 -0.0019207162)
(-0.00083241212 -0.01062254 -0.0019658845)
(0.00092524498 -0.014007438 -0.0026872606)
(-0.0009371414 -0.018905268 -0.0015683439)
(-0.0013515858 -0.016074366 -0.00027631827)
(-0.00091140578 -0.011727889 0.00033619443)
(0.0020953966 -0.011660757 0.00098396197)
(0.003780047 -0.01358503 -0.00011552901)
(0.0023414268 -0.01636558 -3.5037654e-05)
(0.0025625672 -0.016988164 -0.0014317218)
(0.00096395816 -0.015989495 5.1045951e-05)
(0.00074867774 -0.016151183 -0.001024191)
(-0.0011645154 -0.013980413 0.0017149127)
(-0.0014918452 -0.016750973 0.0024316395)
(-0.0018303468 -0.016211985 0.0016767332)
(-0.0036463232 -0.014665783 -5.3642664e-05)
(-0.0041341209 -0.01418016 -0.001910681)
(-0.0017840858 -0.010701113 -0.0020900464)
(0.00089376731 -0.011258667 -0.0022637969)
(0.0017028309 -0.015284217 -0.0024051204)
(-0.0011283537 -0.018712961 -0.0029998469)
(-0.0024407341 -0.015251251 -0.0029993683)
(-0.0041553623 -0.014625378 -0.0027606968)
(-0.0030793271 -0.012958347 -0.0022003835)
(-0.00080219677 -0.012085796 -0.0017833993)
(0.0020205246 -0.0111487 -0.0026754274)
(0.0028847671 -0.013183034 -0.0025018261)
(0.0017817514 -0.015017164 -0.00032167696)
(0.00044492664 -0.016086496 0.00049830024)
(-0.0035862715 0.016962538 -0.0026673729)
(-0.003343172 0.013603795 -0.0035968455)
(-0.00063685298 0.0012467741 -0.003548026)
(0.0043536658 0.014706573 -0.0034787238)
(-9.6063723e-05 0.020091646 -0.00086488776)
(-0.0052847613 0.017001689 0.0013425498)
(0.0011433639 0.0041645476 0.0017116337)
(0.00014988458 -0.0011228204 0.0028412165)
(0.0055129183 0.014485025 0.0019235824)
(0.0014306847 0.018166679 0.0014484478)
(0.0035612026 0.019033788 -0.00077328268)
(0.0035797926 0.01816601 -0.00051976579)
(-0.0029273166 0.017706344 0.0015746609)
(-0.004940006 0.016753534 0.0034038415)
(-0.0041469113 0.017711416 0.0035713011)
(0.00039079992 0.018228517 0.001403651)
(-0.0023126658 0.01715424 -0.0017130195)
(-0.0045909773 0.014113018 -0.0020495892)
(0.00081311902 -0.0011713208 0.00035547551)
(-1.4190729e-05 0.00082711718 -0.00033076521)
(0.0062423215 0.015949041 -0.001699365)
(0.00086839303 0.020071363 -0.0026787717)
(-0.0072620702 0.017587761 -0.0026561531)
(-0.0074134758 0.015211451 -0.0030034004)
(-0.004505457 0.0075700014 -0.0017665472)
(-0.0014178505 0.0045610557 -0.0013360201)
(0.0014995972 0.0038853091 -0.0013950348)
(0.0049650327 0.014354405 -0.0034094184)
(0.0043229781 0.01745136 -0.00064915679)
(0.0023608363 0.017980423 0.0010476034)
(-0.0014790625 -0.00051820585 -0.002973062)
(0.0052448397 -0.015574963 -0.0040819984)
(-0.0011594418 -0.014440727 -0.0036021259)
(-0.0032042579 -0.0061096134 -0.0018880861)
(-0.0011553183 0.006234693 -0.0018305978)
(0.002042415 -0.0063025099 0.0020834959)
(0.0055021726 -0.013428238 0.003304802)
(-0.0027687355 -0.01590498 0.0040597912)
(-0.0038286157 -0.013025228 0.0031653513)
(-0.0019989888 -0.0079357473 0.0015412009)
(-0.0020987746 -0.014575603 0.0055632411)
(0.0010430888 0.0043160929 0.00040684631)
(-0.00059608128 0.0043800268 0.00016782252)
(3.959926e-05 0.00075061337 0.0011685381)
(0.00015096901 -0.017576014 -0.003910555)
(-0.0014373816 -0.014364751 -0.0034185495)
(-0.0032978243 -0.0025419843 -0.0012563365)
(0.0022877446 -0.014161791 -0.0032549642)
(0.003266328 -0.014045041 0.0018638459)
(-0.0034277402 -0.0134511 0.0011288926)
(-0.0043232154 -0.010554196 -0.00036127318)
(0.00047809145 0.004854822 -0.0021225394)
(-0.0027774707 0.0025564208 -0.0010089899)
(0.0020220866 -0.015431682 -0.0013518018)
(-0.001547258 -0.01451056 -0.0017018799)
(-0.0015211903 -0.013395334 0.00052073348)
(-0.0025250245 -0.013930271 0.002965259)
(-0.0035017064 -0.012865261 0.0051263209)
(-0.0014250822 -0.00032857694 0.0019083725)
(-0.0004997998 0.0034735537 0.0025300097)
(0.0021313165 0.0070971714 -0.0020708667)
(0.0021726867 0.010897155 -0.0015396514)
(-0.0041682113 0.0074943758 -0.0011090957)
(-0.0044798293 0.0063693324 -0.002166791)
(-0.0014921809 0.0076201883 -0.0017332215)
(0.0026870534 0.00075003542 0.00040504425)
(0.002197247 0.007127769 8.6412677e-05)
(-0.00015553228 0.011482381 -0.00010975026)
(-0.0014846827 0.011514311 0.0018549045)
(0.0030519844 0.0096459506 0.0030990418)
(-0.0032981402 0.013039485 0.0010890565)
(-0.0022241409 0.0090211036 0.0026036534)
(0.00076938127 0.0095885625 -0.0010044437)
(0.0029576787 0.0074485681 -0.00033305745)
(0.0051408073 0.011559174 -0.00010492383)
(-0.00050460647 0.013518863 0.00069745301)
(-0.0034327753 0.0067882439 -0.0014700168)
(0.0016117435 0.00021326679 -0.0018170557)
(-0.0017942943 -0.0005178401 0.0029386667)
(-0.0015489281 0.0040674439 0.0027592754)
(-0.00480335 0.008086652 0.0017624201)
(-0.0010268944 0.0091108697 -0.00015659499)
(0.0026621383 0.007795865 -3.8346932e-05)
(0.0035313603 0.010594996 -0.00012227077)
(-0.0032871147 0.0053288625 -0.0019506574)
(-0.0012935179 0.00091576369 0.00061889048)
(-0.0013374176 0.0034624113 0.00014850543)
(-0.0019745271 0.010485187 0.0022843122)
(-0.0038514637 0.0075373983 0.00066873931)
(-0.0014911504 0.0090615454 0.0016611048)
(0.00052231849 -0.0034908021 -0.0008772053)
(0.0030062621 -0.0031311857 -0.00082509501)
(0.0054174698 -0.0071973457 0.00051061366)
(0.0033053588 -0.0093578096 0.0021646267)
(0.0030779625 -0.0088751483 0.0021049208)
(-0.0019894326 -0.01028335 0.0026254384)
(-0.0053145387 -0.0090616157 0.0022358627)
(-0.0031139726 -0.0066639009 0.0025074403)
(-0.0031070751 -0.011532437 0.0022898252)
(-0.004267592 -0.0057506024 0.0013127656)
(-0.0024602822 -0.0015518878 0.0013795154)
(0.00067151045 -4.3671165e-05 0.00073397276)
(0.0019935586 0.0010865747 -0.0010547781)
(0.0039612126 -0.0037858771 -0.00088309984)
(0.0018048627 -0.011561297 -0.0012356819)
(0.0014410812 -0.00083641338 -0.0016249826)
(0.005083392 -0.0053911462 -0.0014455593)
(0.003169287 -0.010101846 -0.00072530027)
(-0.0019947818 -0.0099475711 0.0039518037)
(-0.0037183765 -0.010651682 0.0037002195)
(-0.0038942112 -0.010076117 0.0035654056)
(-0.0026850071 -0.0057623193 0.0029969669)
(0.0011094081 4.493944e-06 0.0032840348)
(0.0037069461 -0.0041142218 0.0035717445)
(0.0044132998 -0.0068085723 0.0044829496)
(0.0021709771 -0.0095029474 0.0043592086)
(-0.0036764382 -0.0098893709 0.0024787044)
(-0.0038692715 -0.0061447488 0.0020377181)
(-0.0034775576 -0.0034213944 0.00055335541)
(-0.0022710317 0.00012415726 0.00018829965)
(-0.0011424107 -0.015164264 -0.0012209768)
(-0.0032030099 -0.014243569 -0.0015486489)
(-0.0016128354 -0.010825462 -0.0017585905)
(0.00021749015 -0.010160615 -0.0025957119)
(-0.00029379538 -0.018717042 -0.0010068529)
(-0.0022588845 -0.015657593 -0.0016557417)
(-0.00033730405 -0.011898178 0.0010706936)
(0.002839699 -0.013808504 0.0021819476)
(0.0020055558 -0.017227387 -0.00075379895)
(-0.002465238 -0.020894076 -0.0013940489)
(0.0011944834 -0.011441669 -0.00072733793)
(0.0036860634 -0.014776489 -0.0014023001)
(0.00067865671 -0.015935458 -0.0011871393)
(-0.002315825 -0.016907834 -0.0016531831)
(-0.0020056019 -0.011547712 0.00013220281)
(0.0014792411 -0.013143854 0.0012657254)
(0.0034818237 -0.017081122 -0.0016411882)
(-0.00029797171 -0.019935525 -0.0022209795)
(-0.0031223145 -0.01566936 -0.0028776124)
(-0.0042362032 -0.0129272 -0.00222531)
(-0.0029358008 -0.012764963 -0.0015927327)
(-0.0010912402 -0.012949699 -0.0018876683)
(0.0006862147 -0.012999935 -0.0022375136)
(0.0028859685 -0.012065108 -0.0017957258)
(0.0037699211 -0.013639376 -0.0010224337)
(0.00075448534 -0.015764687 -0.00027896716)
(-0.0039430625 0.016885762 -0.0022693596)
(-0.0044305685 0.012466222 -0.002595728)
(-0.0016584969 0.0003518658 -0.0023278489)
(0.00079571906 0.004828958 -0.0021877364)
(0.0011684997 0.019473869 -0.0035354729)
(-0.0048946529 0.016110135 -0.0032274097)
(0.00097739838 -0.00053104018 0.0017329816)
(0.002757147 0.0089695423 0.0041614329)
(0.0018168746 0.018660879 0.0027891073)
(-0.0053727265 0.018816383 0.0017148877)
(-0.00031441426 -0.0034160019 0.0013349737)
(0.0049740797 0.015402698 -0.002070103)
(0.003458383 0.017751221 -0.0016846731)
(-0.0043679453 0.01764331 0.0015728613)
(0.00099385612 0.00080635214 0.0017901039)
(-0.00088847866 -0.0021536833 0.0023286778)
(0.0058267058 0.017151376 -0.0017267272)
(0.00055026124 0.021162339 -0.0026349364)
(-0.0073718128 0.015993595 7.2928341e-05)
(-0.0060656085 0.0067375101 0.00054641498)
(-0.0051090551 0.0018600595 0.00042724085)
(-0.0027600751 0.0022965893 -0.00014521613)
(0.00064062213 0.0017131563 -0.001488696)
(0.0016520062 0.00062114459 0.00020626211)
(0.00656337 0.014268657 -0.00072625253)
(0.0042846287 0.017555441 -0.00079909176)
(-0.0012620884 -3.9330088e-05 -0.0030921643)
(0.0036149541 -0.014959914 -0.005041149)
(-0.00090178932 -0.013881893 -0.0024421175)
(-0.0035891971 -0.012537361 0.00088574475)
(-0.0015497325 -0.0029867295 -0.00070038798)
(0.0039121195 -0.0095977343 0.0018169327)
(0.0028634005 -0.015695317 0.00091616084)
(-0.0062407321 -0.013088571 -0.0010806325)
(-0.0024484339 0.00018383614 0.0016017069)
(0.0037880851 -0.016849483 1.0300955e-05)
(-0.0012878576 -0.016460754 0.0021533926)
(-0.0061811111 -0.013282333 0.00032644728)
(0.0020895097 0.0035269943 -0.00065211756)
(0.0021051858 -0.01182738 -0.0017667785)
(0.0047701138 -0.013865685 -0.0003691611)
(-0.0026099221 -0.016340429 0.0015840512)
(-0.0059656732 -0.015835015 0.0023989711)
(-0.00041973754 -0.0014057695 -0.001659636)
(-0.0014630342 -0.0058538902 0.0015739518)
(0.0019158119 -0.013916759 0.0013984612)
(-0.0025417502 -0.014206284 0.0016409782)
(-0.0019313979 -0.013998596 0.001119007)
(-0.0002751055 -0.013361631 0.00041087446)
(-0.0036473486 -0.015186757 0.0032383934)
(-0.005818293 -0.012687634 0.0019792473)
(0.0013028172 0.0031996634 0.0012170364)
(0.0022104195 0.0076505303 -0.0024931372)
(0.0014887866 0.010164154 -0.0033327241)
(-0.0016853873 0.00077158589 -0.00080803475)
(-0.0021842491 -0.0027241148 0.0011525817)
(-0.0021129306 0.00011135311 0.004250167)
(-0.00010499117 0.0016428375 0.0018888377)
(-0.00045491439 0.012418813 0.0014525668)
(-0.0044866248 0.011353287 -0.0013371919)
(-0.00040638219 0.0040180005 -0.00089684396)
(0.0043686323 0.013873169 0.0022032857)
(-0.00058223613 0.011495364 -0.00083020755)