/*--------------------------------*- C++ -*----------------------------------*\
| =========                 |                                                 |
| \\      /  F ield         | OpenFOAM: The Open Source CFD Toolbox           |
|  \\    /   O peration     | Version:  v2012                                 |
|   \\  /    A nd           | Website:  www.openfoam.com                      |
|    \\/     M anipulation  |                                                 |
\*---------------------------------------------------------------------------*/
FoamFile
{
    version     2.0;
    format      ascii;
    class       volScalarField;
    location    "140/leftSolid";
    object      T;
}
// * * * * * * * * * * * * * * * * * * * * * * * * * * * * * * * * * * * * * //

dimensions      [0 0 0 1 0 0 0];


internalField   nonuniform List<scalar> 
130
(
671.56956
671.53067
671.44482
671.3089
671.12815
670.94195
670.73983
670.51393
670.25165
669.98994
669.74629
669.54365
669.43321
671.61433
671.57452
671.49087
671.35742
671.18325
670.9953
670.78219
670.53448
670.25339
669.96398
669.69078
669.47381
669.3621
671.63752
671.5976
671.51961
671.39828
671.24052
671.05648
670.83199
670.55524
670.21569
669.86754
669.55019
669.31654
669.1869
671.6128
671.57112
671.51125
671.42068
671.28322
671.09353
670.85286
670.54356
670.16744
669.76757
669.36392
669.06521
668.89517
671.57057
671.54796
671.50747
671.42671
671.29492
671.10842
670.86187
670.54428
670.1549
669.72014
669.24318
668.85705
668.63662
671.57769
671.56692
671.52888
671.44453
671.30796
671.11251
670.86606
670.56503
670.20404
669.7776
669.30232
668.84832
668.60687
671.62658
671.60633
671.55438
671.45413
671.30939
671.10408
670.83698
670.5376
670.20253
669.81645
669.3825
669.02468
668.83096
671.68938
671.64581
671.55434
671.41588
671.24332
671.02504
670.76601
670.49399
670.20691
669.88092
669.53449
669.25289
669.10824
671.69866
671.64601
671.53964
671.37658
671.1663
670.93241
670.69201
670.4487
670.18828
669.91328
669.62656
669.4042
669.27315
671.67617
671.62355
671.50831
671.33164
671.0939
670.84961
670.61233
670.36658
670.11913
669.87241
669.62811
669.43484
669.32369
)
;

boundaryField
{
    minX
    {
        type            zeroGradient;
    }
    minZ
    {
        type            zeroGradient;
    }
    maxZ
    {
        type            zeroGradient;
    }
    leftSolid_to_bottomWater
    {
        type            compressible::turbulentTemperatureCoupledBaffleMixed;
        refValue        nonuniform List<scalar> 
130
(
1001.9957
1002.2365
1002.0125
1001.0296
996.78916
997.52453
998.18014
999.51018
995.55371
993.75969
991.7
986.36841
983.89604
1005.4917
1005.2039
1005.017
1003.1822
999.84225
1000.1731
1000.3896
999.7819
998.21402
996.19262
992.02101
986.63739
986.0796
1007.194
1006.2755
1005.3688
1003.1237
1001.5612
1002.7397
1003.2343
1003.5183
996.66267
991.77598
986.88157
986.09502
984.32566
1007.0558
1002.5634
1001.7384
1003.1298
1004.0623
1002.9067
1003.2084
1000.9882
995.1804
991.73591
978.8209
976.24441
972.50094
1001.787
999.74357
1000.5169
1000.934
1001.1013
1001.7591
1002.3354
1001.0114
995.44595
992.32439
975.08093
965.77782
959.19861
1000.5388
1001.798
1002.7742
1002.1793
1001.7467
1000.7722
1002.3427
1003.2258
1002.6734
998.71957
989.42623
962.85986
956.24508
1003.3246
1004.2265
1005.7574
1004.9563
1006.1448
1005.9621
1001.0634
999.60047
999.34453
997.42868
983.14348
974.23356
970.67798
1008.5156
1007.6438
1005.8105
1003.0457
1003.4585
1002.3976
998.29329
997.28519
999.59145
997.88069
990.73611
984.29461
984.93046
1007.9765
1007.0338
1006.3908
1004.2373
1000.6102
997.90074
997.22034
999.13103
998.96023
999.43543
992.74423
991.57832
987.82758
1005.4217
1005.7479
1004.5904
1003.1838
995.84984
993.28896
993.95377
991.94614
991.97264
992.7759
989.80519
988.14135
986.44089
)
;
        refGradient     uniform 0;
        valueFraction   nonuniform List<scalar> 
130
(
0.0075140686
0.0075140686
0.0075140686
0.0075140686
0.0075140686
0.0075140686
0.0075140686
0.0075140686
0.0075140686
0.0075140686
0.0075140686
0.0075140686
0.0075140686
0.0075140686
0.0075140686
0.0075140686
0.0075140686
0.0075140686
0.0075140686
0.0075140686
0.0075140686
0.0075140686
0.0075140686
0.0075140686
0.0075140686
0.0075140686
0.0075140686
0.0075140686
0.0075140686
0.0075140686
0.0075140686
0.0075140686
0.0075140686
0.0075140686
0.0075140686
0.0075140686
0.0075140686
0.0075140686
0.0075140686
0.0075140686
0.0075140686
0.0075140686
0.0075140686
0.0075140686
0.0075140686
0.0075140686
0.0075140686
0.0075140686
0.0075140686
0.0075140686
0.0075140686
0.0075140686
0.0075140686
0.0075140686
0.0075140686
0.0075140686
0.0075140686
0.0075140686
0.0075140686
0.0075140686
0.0075140686
0.0075140686
0.0075140686
0.0075140686
0.0075140686
0.0075140686
0.0075140686
0.0075140686
0.0075140686
0.0075140686
0.0075140686
0.0075140686
0.0075140686
0.0075140686
0.0075140686
0.0075140686
0.0075140686
0.0075140686
0.0075140686
0.0075140686
0.0075140686
0.0075140686
0.0075140686
0.0075140686
0.0075140686
0.0075140686
0.0075140686
0.0075140686
0.0075140686
0.0075140686
0.0075140686
0.0075140686
0.0075140686
0.0075140686
0.0075140686
0.0075140686
0.0075140686
0.0075140686
0.0075140686
0.0075140686
0.0075140686
0.0075140686
0.0075140686
0.0075140686
0.0075140686
0.0075140686
0.0075140686
0.0075140686
0.0075140686
0.0075140686
0.0075140686
0.0075140686
0.0075140686
0.0075140686
0.0075140686
0.0075140686
0.0075140686
0.0075140686
0.0075140686
0.0075140686
0.0075140686
0.0075140686
0.0075140686
0.0075140686
0.0075140686
0.0075140686
0.0075140686
0.0075140686
0.0075140686
0.0075140686
)
;
        value           nonuniform List<scalar> 
130
(
674.02661
673.98982
673.90291
673.76061
673.54931
673.37002
673.17433
672.96014
672.67014
672.39697
672.13972
671.89858
671.77044
674.09727
674.0556
673.97117
673.82493
673.62695
673.44289
673.23301
672.98261
672.69187
672.38948
672.08703
671.83126
671.71625
674.13303
674.08653
674.00233
673.86506
673.69672
673.52293
673.30385
673.03134
672.64282
672.26058
671.90892
671.67115
671.5292
674.10737
674.03231
673.96681
673.88741
673.75796
673.56102
673.32444
673.00081
672.58387
672.16113
671.66357
671.3478
671.1509
674.02592
673.98823
673.95398
673.87702
673.74747
673.5673
673.32689
673.00171
672.57348
672.11854
671.51564
671.06255
670.79435
674.02364
674.02247
673.99213
673.90403
673.76528
673.56396
673.33107
673.03891
672.67652
672.22359
671.68205
671.03189
670.74261
674.09304
674.07974
674.03973
673.93428
673.79961
673.59445
673.29256
672.98443
672.64997
672.25239
671.71433
671.29231
671.07337
674.19438
674.14459
674.04004
673.88187
673.71375
673.48914
673.20124
672.92373
672.65616
672.31973
671.92219
671.59427
671.45549
674.19958
674.14024
674.02984
673.85183
673.6159
673.36343
673.11975
672.89264
672.63288
672.36349
672.02861
671.79912
671.64084
674.15808
674.1083
673.98523
673.79932
673.50828
673.24659
673.01612
672.75718
672.51176
672.27289
672.00807
671.80371
671.68058
)
;
        Tnbr            T;
        thicknessLayers List<scalar> 0();
        kappaLayers     List<scalar> 0();
        kappaMethod     solidThermo;
        kappa           none;
        alphaAni        none;
        alpha           none;
        field           T;
    }
    leftSolid_to_heater
    {
        type            compressible::turbulentTemperatureCoupledBaffleMixed;
        refValue        nonuniform List<scalar> 10(619.2971 613.22456 600.24068 578.70214 546.68423 546.65696 578.61965 600.16926 613.12713 619.18547);
        refGradient     uniform 0;
        valueFraction   nonuniform List<scalar> 10(2.08329e-05 2.08329e-05 2.08329e-05 2.08329e-05 2.08329e-05 2.08329e-05 2.08329e-05 2.08329e-05 2.08329e-05 2.08329e-05);
        value           nonuniform List<scalar> 10(669.40631 669.33505 669.1596 668.86752 668.60831 668.57855 668.8032 669.08075 669.24584 669.2965);
        Tnbr            T;
        thicknessLayers List<scalar> 1(0.001);
        kappaLayers     List<scalar> 1(0.0005);
        kappaMethod     solidThermo;
        kappa           none;
        alphaAni        none;
        alpha           none;
        field           T;
    }
    leftSolid_to_topAir
    {
        type            compressible::turbulentTemperatureCoupledBaffleMixed;
        refValue        nonuniform List<scalar> 
130
(
315.23376
329.4676
342.39038
354.29603
365.44826
376.02907
386.15403
395.84906
404.96894
413.40884
421.14106
428.09933
434.12711
315.23258
329.31121
341.93644
353.40438
363.96403
373.76249
382.87469
391.31232
399.02307
405.89549
411.76074
416.4266
419.65857
315.23279
329.34165
342.00601
353.52222
364.14496
374.0285
383.25756
391.87068
399.88282
407.26649
413.95781
419.85514
424.76327
315.23191
329.34902
342.03523
353.59004
364.27505
374.25876
383.6506
392.52747
400.94863
408.96221
416.60768
423.92502
430.85724
315.22994
329.34916
342.04203
353.60718
364.30683
374.31127
383.73234
392.6504
401.12849
409.21998
416.96906
424.41786
431.35757
315.23023
329.35021
342.04391
353.60981
364.31015
374.31517
383.73715
392.65726
401.13911
409.2352
416.98869
424.43663
431.37515
315.23246
329.3509
342.03867
353.59464
364.28065
374.26499
383.65673
392.53433
400.95837
408.97621
416.62713
423.94736
430.87924
315.23486
329.34551
342.011
353.52771
364.15051
374.03304
383.26015
391.87178
399.88365
407.26779
413.95569
419.84536
424.74289
315.23596
329.31723
341.94409
353.41256
363.9715
373.7676
382.87647
391.31128
399.02133
405.89397
411.75673
416.41626
419.63564
315.23804
329.47545
342.40059
354.30719
365.45847
376.03656
386.15817
395.85023
404.9701
413.41131
421.14491
428.10403
434.13007
)
;
        refGradient     uniform 0;
        valueFraction   nonuniform List<scalar> 
130
(
0.00032132529
0.00032132529
0.00032132529
0.00032132529
0.00032132529
0.00032132529
0.00032132529
0.00032132529
0.00032132529
0.00032132529
0.00032132529
0.00032132529
0.00032132529
0.00032132529
0.00032132529
0.00032132529
0.00032132529
0.00032132529
0.00032132529
0.00032132529
0.00032132529
0.00032132529
0.00032132529
0.00032132529
0.00032132529
0.00032132529
0.00032132529
0.00032132529
0.00032132529
0.00032132529
0.00032132529
0.00032132529
0.00032132529
0.00032132529
0.00032132529
0.00032132529
0.00032132529
0.00032132529
0.00032132529
0.00032132529
0.00032132529
0.00032132529
0.00032132529
0.00032132529
0.00032132529
0.00032132529
0.00032132529
0.00032132529
0.00032132529
0.00032132529
0.00032132529
0.00032132529
0.00032132529
0.00032132529
0.00032132529
0.00032132529
0.00032132529
0.00032132529
0.00032132529
0.00032132529
0.00032132529
0.00032132529
0.00032132529
0.00032132529
0.00032132529
0.00032132529
0.00032132529
0.00032132529
0.00032132529
0.00032132529
0.00032132529
0.00032132529
0.00032132529
0.00032132529
0.00032132529
0.00032132529
0.00032132529
0.00032132529
0.00032132529
0.00032132529
0.00032132529
0.00032132529
0.00032132529
0.00032132529
0.00032132529
0.00032132529
0.00032132529
0.00032132529
0.00032132529
0.00032132529
0.00032132529
0.00032132529
0.00032132529
0.00032132529
0.00032132529
0.00032132529
0.00032132529
0.00032132529
0.00032132529
0.00032132529
0.00032132529
0.00032132529
0.00032132529
0.00032132529
0.00032132529
0.00032132529
0.00032132529
0.00032132529
0.00032132529
0.00032132529
0.00032132529
0.00032132529
0.00032132529
0.00032132529
0.00032132529
0.00032132529
0.00032132529
0.00032132529
0.00032132529
0.00032132529
0.00032132529
0.00032132529
0.00032132529
0.00032132529
0.00032132529
0.00032132529
0.00032132529
0.00032132529
0.00032132529
0.00032132529
)
;
        value           nonuniform List<scalar> 
130
(
671.42908
671.39477
671.31308
671.18102
671.00386
670.8211
670.62229
670.39959
670.14037
669.88151
669.64046
669.44017
669.33175
671.47379
671.43852
671.35896
671.22922
671.05848
670.87373
670.66362
670.41872
670.14021
669.85314
669.58195
669.36657
669.25599
671.49693
671.46157
671.3877
671.27012
671.1158
670.93501
670.71356
670.43969
670.10283
669.75717
669.44215
669.21051
669.0825
671.47213
671.43506
671.37941
671.29261
671.1586
670.97218
670.73463
670.42831
670.055
669.65784
669.25689
668.96068
668.79292
671.42996
671.412
671.37573
671.29877
671.17046
670.98721
670.74373
670.42908
670.04259
669.61058
669.1363
668.75274
668.53462
671.43711
671.43094
671.39707
671.31656
671.18351
670.99132
670.74789
670.44979
670.09168
669.66799
669.19536
668.74394
668.50487
671.48593
671.47025
671.42244
671.326
671.18479
670.98273
670.71875
670.42232
670.09007
669.70669
669.27531
668.92001
668.72863
671.54872
671.5097
671.42234
671.28765
671.1186
670.90357
670.64761
670.37849
670.09409
669.77055
669.42635
669.1467
669.00367
671.55804
671.50993
671.40765
671.24834
671.04154
670.81089
670.57352
670.33302
670.07514
669.80242
669.51764
669.2968
669.1668
671.53558
671.48754
671.37649
671.20371
670.96965
670.72884
670.49492
670.25241
670.00794
669.76398
669.52221
669.33119
669.22198
)
;
        Tnbr            T;
        thicknessLayers List<scalar> 0();
        kappaLayers     List<scalar> 0();
        kappaMethod     solidThermo;
        kappa           none;
        alphaAni        none;
        alpha           none;
        field           T;
    }
}


// ************************************************************************* //
