/*--------------------------------*- C++ -*----------------------------------*\
| =========                 |                                                 |
| \\      /  F ield         | OpenFOAM: The Open Source CFD Toolbox           |
|  \\    /   O peration     | Version:  v2012                                 |
|   \\  /    A nd           | Website:  www.openfoam.com                      |
|    \\/     M anipulation  |                                                 |
\*---------------------------------------------------------------------------*/
FoamFile
{
    version     2.0;
    format      ascii;
    class       volScalarField;
    location    "50/heater";
    object      T;
}
// * * * * * * * * * * * * * * * * * * * * * * * * * * * * * * * * * * * * * //

dimensions      [0 0 0 1 0 0 0];


internalField   nonuniform List<scalar> 
80
(
463.44244
463.6846
464.18464
464.90735
461.44001
461.76063
462.43363
463.42136
456.88909
457.36925
458.42243
460.03906
448.77294
449.38221
451.01754
453.88898
329.34621
326.05739
326.07231
329.38203
371.85738
367.41278
367.47214
372.00066
402.15429
397.73381
397.89372
402.5449
422.28782
418.27504
418.67982
423.30626
433.4864
430.51055
431.48143
436.13673
436.15612
436.20402
438.20916
443.16712
329.34621
326.05739
326.07231
329.38204
371.85735
367.41278
367.47213
372.00067
402.15419
397.73378
397.89372
402.54493
422.28762
418.27498
418.67983
423.30622
433.48643
430.51057
431.4815
436.13684
436.15619
436.2041
438.20925
443.16722
448.77304
449.38231
451.01771
453.88913
456.88904
457.36924
458.42262
460.03921
461.43985
461.76054
462.43371
463.42145
463.44215
463.68444
464.18466
464.90743
)
;

boundaryField
{
    minY
    {
        type            fixedValue;
        value           uniform 300;
    }
    minZ
    {
        type            zeroGradient;
    }
    maxZ
    {
        type            zeroGradient;
    }
    heater_to_topAir
    {
        type            compressible::turbulentTemperatureCoupledBaffleMixed;
        refValue        nonuniform List<scalar> 
40
(
367.80273
370.0403
371.88149
373.27155
361.03062
361.9302
362.28286
362.11686
362.52573
363.88774
364.79807
365.18677
364.6614
366.74757
368.7498
370.69258
364.48686
366.1849
367.88764
369.71005
364.48689
366.18493
367.88767
369.71008
364.66142
366.74759
368.74983
370.69262
362.52574
363.88775
364.79808
365.18679
361.03062
361.9302
362.28287
362.11687
367.80272
370.04029
371.88148
373.27154
)
;
        refGradient     uniform 0;
        valueFraction   nonuniform List<scalar> 
40
(
0.00032132529
0.00032132529
0.00032132529
0.00032132529
0.00032132529
0.00032132529
0.00032132529
0.00032132529
0.00032132529
0.00032132529
0.00032132529
0.00032132529
0.00032132529
0.00032132529
0.00032132529
0.00032132529
0.00032132529
0.00032132529
0.00032132529
0.00032132529
0.00032132529
0.00032132529
0.00032132529
0.00032132529
0.00032132529
0.00032132529
0.00032132529
0.00032132529
0.00032132529
0.00032132529
0.00032132529
0.00032132529
0.00032132529
0.00032132529
0.00032132529
0.00032132529
0.00032132529
0.00032132529
0.00032132529
0.00032132529
)
;
        value           nonuniform List<scalar> 
40
(
463.36551
463.60813
464.10829
464.83077
461.36258
461.68317
462.35565
463.34244
456.81592
457.29605
458.34859
459.96394
448.70689
449.31622
450.9508
453.82054
436.09963
436.14755
438.15159
443.10665
436.09971
436.14762
438.15168
443.10674
448.707
449.31633
450.95097
453.82069
456.81587
457.29605
458.34878
459.96409
461.36242
461.68307
462.35573
463.34252
463.36522
463.60797
464.10831
464.83085
)
;
        Tnbr            T;
        thicknessLayers List<scalar> 0();
        kappaLayers     List<scalar> 0();
        kappaMethod     solidThermo;
        kappa           none;
        alphaAni        none;
        alpha           none;
        field           T;
    }
    heater_to_rightSolid
    {
        type            compressible::turbulentTemperatureCoupledBaffleMixed;
        refValue        nonuniform List<scalar> 10(465.76289 464.59801 462.01778 457.7589 452.4303 452.43041 457.75904 462.01787 464.59803 465.76284);
        refGradient     uniform 0;
        valueFraction   nonuniform List<scalar> 10(0.49999997 0.49999997 0.49999997 0.49999997 0.49999997 0.49999997 0.49999997 0.49999997 0.49999997 0.49999997);
        value           nonuniform List<scalar> 10(465.31154 463.98649 461.00609 455.80308 447.78027 447.78037 455.80322 461.00621 463.98655 465.31156);
        Tnbr            T;
        thicknessLayers List<scalar> 0();
        kappaLayers     List<scalar> 0();
        kappaMethod     solidThermo;
        kappa           none;
        alphaAni        none;
        alpha           none;
        field           T;
    }
    heater_to_leftSolid
    {
        type            compressible::turbulentTemperatureCoupledBaffleMixed;
        refValue        nonuniform List<scalar> 10(470.87472 470.83239 470.63365 470.22439 469.79133 469.79153 470.22453 470.63373 470.83242 470.87473);
        refGradient     uniform 0;
        valueFraction   nonuniform List<scalar> 10(2.0832898e-05 2.0832898e-05 2.0832898e-05 2.0832898e-05 2.0832898e-05 2.0832898e-05 2.0832898e-05 2.0832898e-05 2.0832898e-05 2.0832898e-05);
        value           nonuniform List<scalar> 10(463.39639 461.39503 456.84651 448.73435 436.12335 436.12343 448.73446 456.84647 461.39487 463.39609);
        Tnbr            T;
        thicknessLayers List<scalar> 1(0.001);
        kappaLayers     List<scalar> 1(0.0005);
        kappaMethod     solidThermo;
        kappa           none;
        alphaAni        none;
        alpha           none;
        field           T;
    }
    heater_to_bottomWater
    {
        type            compressible::turbulentTemperatureCoupledBaffleMixed;
        refValue        nonuniform List<scalar> 
92
(
1028.4751
1025.7169
1025.6299
1028.3844
1031.2894
1027.489
1027.3968
1031.1976
1029.4208
1025.6361
1025.5152
1029.3322
1002.3804
1004.0479
1004.0357
1002.3656
1007.486
1004.6619
1004.6621
1007.4849
1008.1167
1003.2833
1003.2526
1008.0898
1011.3234
1001.9545
1001.9033
1011.3064
1006.9569
1006.9569
1001.5089
1001.5089
1001.4598
1001.4598
1006.904
1006.904
1020.1093
1020.0606
1021.2681
1021.209
1016.7317
1016.6813
1007.2359
1007.1773
980.10207
979.6674
1020.1106
1002.3848
1004.0553
1004.0363
1020.0631
1002.366
1021.2652
1007.4989
1004.676
1004.6616
1021.2098
1007.4848
1016.7301
1008.1136
1003.2878
1003.2609
1016.6828
1008.0916
1007.2074
1011.3203
1001.9528
1001.9167
1007.1587
1011.2977
980.12073
1006.9631
1001.5118
1001.4736
979.67646
1006.912
1006.9631
1001.5118
1001.4736
1006.912
1029.4134
1025.6219
1025.5535
1029.3476
1031.2819
1027.4798
1027.4163
1031.2096
1028.4732
1025.7105
1025.6421
1028.3893
)
;
        refGradient     uniform 0;
        valueFraction   nonuniform List<scalar> 
92
(
0.0075140686
0.0075140686
0.0075140686
0.0075140686
0.0075140686
0.0075140686
0.0075140686
0.0075140686
0.0075140686
0.0075140686
0.0075140686
0.0075140686
0.0075140686
0.0075140686
0.0075140686
0.0075140686
0.0075140686
0.0075140686
0.0075140686
0.0075140686
0.0075140686
0.0075140686
0.0075140686
0.0075140686
0.0075140686
0.0075140686
0.0075140686
0.0075140686
0.0075140686
0.0075140686
0.0075140686
0.0075140686
0.0075140686
0.0075140686
0.0075140686
0.0075140686
0.0075140679
0.0075140679
0.0075140679
0.0075140679
0.0075140679
0.0075140679
0.0075140679
0.0075140679
0.0075140679
0.0075140679
0.0075140679
0.0075140686
0.0075140686
0.0075140686
0.0075140679
0.0075140686
0.0075140679
0.0075140686
0.0075140686
0.0075140686
0.0075140679
0.0075140686
0.0075140679
0.0075140686
0.0075140686
0.0075140686
0.0075140679
0.0075140686
0.0075140679
0.0075140686
0.0075140686
0.0075140686
0.0075140679
0.0075140686
0.0075140679
0.0075140686
0.0075140686
0.0075140686
0.0075140679
0.0075140686
0.0075140686
0.0075140686
0.0075140686
0.0075140686
0.0075140686
0.0075140686
0.0075140686
0.0075140686
0.0075140686
0.0075140686
0.0075140686
0.0075140686
0.0075140686
0.0075140686
0.0075140686
0.0075140686
)
;
        value           nonuniform List<scalar> 
92
(
467.64227
467.8617
468.35702
469.09456
465.67706
465.96649
466.63334
467.64163
461.14859
461.5964
462.64017
464.27245
334.40035
331.14868
331.16339
334.43577
376.62404
372.19145
372.25033
376.76615
406.69163
402.26781
402.42619
407.0789
426.69178
422.6384
423.03955
427.70191
452.92843
437.76778
453.49178
434.77273
455.11359
435.73546
458.00296
440.39647
334.53357
334.56873
376.7276
376.86928
406.75637
407.14345
426.66107
427.67089
437.56599
440.19181
334.53358
334.40038
331.14874
331.1634
334.56875
334.43578
376.72754
376.6241
372.19155
372.25032
376.8693
376.76617
406.75626
406.69151
402.26781
402.42626
407.14349
407.07893
426.66066
426.69156
422.63833
423.03966
427.67071
427.70181
437.56617
437.76786
434.77277
435.73562
440.19199
440.39664
452.92858
453.4919
455.11386
458.00317
461.14849
461.59628
462.64064
464.27271
465.67684
465.96633
466.63356
467.64181
467.64196
467.8615
468.35713
469.09468
)
;
        Tnbr            T;
        thicknessLayers List<scalar> 0();
        kappaLayers     List<scalar> 0();
        kappaMethod     solidThermo;
        kappa           none;
        alphaAni        none;
        alpha           none;
        field           T;
    }
}


// ************************************************************************* //
