/*--------------------------------*- C++ -*----------------------------------*\
| =========                 |                                                 |
| \\      /  F ield         | OpenFOAM: The Open Source CFD Toolbox           |
|  \\    /   O peration     | Version:  v2012                                 |
|   \\  /    A nd           | Website:  www.openfoam.com                      |
|    \\/     M anipulation  |                                                 |
\*---------------------------------------------------------------------------*/
FoamFile
{
    version     2.0;
    format      ascii;
    class       surfaceScalarField;
    location    "300/topAir";
    object      phi;
}
// * * * * * * * * * * * * * * * * * * * * * * * * * * * * * * * * * * * * * //

dimensions      [1 0 -1 0 0 0 0];
oriented        oriented;


internalField   nonuniform List<scalar> 
3140
(
9.4798984e-06
-2.8333969e-07
7.2442262e-08
9.6531331e-06
-2.5593925e-07
8.2779236e-08
9.8230545e-06
-2.4245062e-07
7.2626104e-08
9.9631816e-06
-1.9545233e-07
5.5434151e-08
1.0066532e-05
-1.3619265e-07
3.2970554e-08
1.0140354e-05
-8.0076404e-08
6.3969983e-09
1.021351e-05
-3.2168836e-08
-4.082791e-08
1.0310506e-05
6.9734168e-09
-1.0381797e-07
1.0437103e-05
6.7781685e-08
-1.9423646e-07
1.0614571e-05
1.4619409e-07
-3.2352651e-07
1.0841652e-05
2.7888204e-07
-5.0584007e-07
1.1092379e-05
5.0416833e-07
-7.5479323e-07
1.1313249e-05
8.5635549e-07
-1.0771482e-06
1.1500805e-05
1.2885671e-06
-1.4760667e-06
1.1634651e-05
1.7818343e-06
-1.9156179e-06
1.1721502e-05
2.2643207e-06
-2.3510725e-06
1.1767068e-05
2.6899806e-06
-2.7354102e-06
1.1767001e-05
3.0390086e-06
-3.0387991e-06
1.1720593e-05
3.3032834e-06
-3.2567778e-06
1.1644011e-05
3.4766915e-06
-3.4001046e-06
1.1565552e-05
3.5615488e-06
-3.4832146e-06
1.1510662e-05
3.5721586e-06
-3.5175517e-06
1.1494192e-05
3.5267392e-06
-3.5107201e-06
1.1518204e-05
3.4419634e-06
-3.466585e-06
1.1569424e-05
3.3327263e-06
-3.3846971e-06
1.1609555e-05
3.2170132e-06
-3.2580168e-06
1.1551825e-05
3.1257394e-06
-3.0689723e-06
1.1217515e-05
3.1200509e-06
-2.7867287e-06
1.0241727e-05
3.3373733e-06
-2.3625185e-06
4.1235507e-06
-1.7304635e-06
9.1206335e-06
-2.1432681e-07
7.9323047e-08
9.0853118e-06
-3.2327894e-07
1.0266488e-07
9.077827e-06
-3.4342876e-07
1.0846921e-07
9.1125647e-06
-3.4025657e-07
1.1007586e-07
9.1886477e-06
-3.1940088e-07
1.0713876e-07
9.3003363e-06
-2.8962699e-07
9.7879871e-08
9.4496373e-06
-2.6203278e-07
8.0586229e-08
9.6495991e-06
-2.4521052e-07
5.2317336e-08
9.924519e-06
-2.173583e-07
1.0351868e-08
1.0299802e-05
-1.6343924e-07
-6.5474483e-08
1.0801253e-05
-3.9833086e-08
-1.8244159e-07
1.1421581e-05
2.4007142e-07
-3.5576839e-07
1.2084502e-05
7.9766159e-07
-6.0353151e-07
1.2680895e-05
1.6128508e-06
-9.1979451e-07
1.3151335e-05
2.5786205e-06
-1.2662622e-06
1.3467422e-05
3.5233125e-06
-1.5742092e-06
1.3614937e-05
4.3325937e-06
-1.7895477e-06
1.3604152e-05
4.9635367e-06
-1.9135847e-06
1.3471787e-05
5.4226413e-06
-1.9872816e-06
1.3279431e-05
5.7208638e-06
-2.0524902e-06
1.3087049e-05
5.8704949e-06
-2.1175612e-06
1.2928364e-05
5.8965766e-06
-2.167007e-06
1.2815383e-05
5.8247823e-06
-2.1865481e-06
1.2744009e-05
5.6761683e-06
-2.1644496e-06
1.2697614e-05
5.4641924e-06
-2.0867501e-06
1.2635899e-05
5.2082051e-06
-1.9311748e-06
1.2472942e-05
4.950488e-06
-1.6634294e-06
1.2047494e-05
4.7840126e-06
-1.2399549e-06
1.1105097e-05
4.8998186e-06
-6.2118264e-07
5.5314621e-06
2.7951788e-07
9.1779478e-06
-2.0459734e-07
8.128289e-08
9.0189562e-06
-2.7084722e-07
1.0655963e-07
8.8440811e-06
-2.8374144e-07
1.1518752e-07
8.6659507e-06
-2.8349165e-07
1.2136547e-07
8.4963812e-06
-2.7606089e-07
1.2622979e-07
8.3408275e-06
-2.6349929e-07
1.2942659e-07
8.1977732e-06
-2.5074537e-07
1.3176773e-07
8.0606866e-06
-2.4325484e-07
1.3513291e-07
7.9432521e-06
-2.4309399e-07
1.431731e-07
7.878544e-06
-2.5542177e-07
1.5669603e-07
7.9603945e-06
-2.900032e-07
1.6833601e-07
8.3339582e-06
-2.9332903e-07
1.6005036e-07
9.0532169e-06
-3.2833331e-08
1.1193366e-07
1.0093462e-05
5.5756624e-07
1.62824e-08
1.1092456e-05
1.6425829e-06
-6.1285399e-08
1.1900947e-05
2.7804055e-06
-6.373776e-08
1.2474769e-05
3.6637083e-06
9.6871487e-08
1.2769827e-05
4.2603245e-06
4.0961792e-07
1.2844858e-05
4.6514924e-06
6.9707487e-07
1.2789034e-05
4.8855599e-06
8.9156502e-07
1.2695999e-05
4.986549e-06
9.7696685e-07
1.2603993e-05
4.9639523e-06
1.0242606e-06
1.2520924e-05
4.8407934e-06
1.0664327e-06
1.2432095e-05
4.6437322e-06
1.1204897e-06
1.2327088e-05
4.3994324e-06
1.1689228e-06
1.2184049e-05
4.1297398e-06
1.2206519e-06
1.1961165e-05
3.8645326e-06
1.3080129e-06
1.1605641e-05
3.6821315e-06
1.456645e-06
1.1010756e-05
3.7669455e-06
1.7270675e-06
4.5068975e-06
2.1830424e-06
8.9849592e-06
7.9395339e-08
8.6106283e-06
1.034834e-07
8.2159013e-06
1.109852e-07
7.8169004e-06
1.1550892e-07
7.4223391e-06
1.1850016e-07
7.0388405e-06
1.1999898e-07
6.6668233e-06
1.212716e-07
6.2988765e-06
1.2469157e-07
5.9215726e-06
1.3420953e-07
5.5097923e-06
1.5635786e-07
5.0178103e-06
2.0197876e-07
4.4302925e-06
2.9419773e-07
3.9334819e-06
4.6403942e-07
3.7611279e-06
7.305597e-07
4.2601828e-06
1.1449274e-06
5.2797228e-06
1.7625729e-06
6.3879055e-06
2.5572601e-06
7.3303488e-06
3.3193278e-06
8.0577819e-06
3.9250064e-06
8.6227194e-06
4.3210357e-06
9.0784135e-06
4.5308127e-06
9.4625908e-06
4.5793898e-06
9.7720937e-06
4.5306677e-06
9.9945783e-06
4.4204741e-06
1.011856e-05
4.274596e-06
1.0136848e-05
4.1105607e-06
1.0079411e-05
3.9210576e-06
1.0034957e-05
3.7256508e-06
1.0296881e-05
3.5040491e-06
3.1618796e-06
9.5928781e-06
-2.8280307e-07
3.1367999e-08
9.8834156e-06
-2.5667736e-07
4.8982329e-08
1.0159603e-05
-2.5492121e-07
5.1443728e-08
1.0393687e-05
-2.2471028e-07
4.6153736e-08
1.0578133e-05
-1.8687147e-07
3.5495976e-08
1.0723667e-05
-1.5732246e-07
1.8293958e-08
1.0833785e-05
-1.4335748e-07
-7.4976226e-09
1.0915119e-05
-1.481754e-07
-3.6904779e-08
1.0976009e-05
-1.76475e-07
-7.8603939e-08
1.1022943e-05
-2.3418147e-07
-1.3626762e-07
1.106136e-05
-3.2870192e-07
-2.1559416e-07
1.1096463e-05
-4.6720438e-07
-3.2278387e-07
1.1134899e-05
-6.52695e-07
-4.6299439e-07
1.1237596e-05
-9.3371118e-07
-6.450611e-07
1.1424899e-05
-1.2441944e-06
-8.5845581e-07
1.1702228e-05
-1.5439517e-06
-1.0837959e-06
1.2022622e-05
-1.7544107e-06
-1.3005009e-06
1.2303434e-05
-1.8150704e-06
-1.5036267e-06
1.2488613e-05
-1.7463997e-06
-1.6948055e-06
1.2572149e-05
-1.616427e-06
-1.8667048e-06
1.2589771e-05
-1.4901565e-06
-2.0104128e-06
1.2583138e-05
-1.3916585e-06
-2.1192043e-06
1.2583245e-05
-1.3230792e-06
-2.1878489e-06
1.2607263e-05
-1.2780904e-06
-2.2127119e-06
1.2664376e-05
-1.2505477e-06
-2.1915157e-06
1.275833e-05
-1.2303567e-06
-2.1219267e-06
1.2871347e-05
-1.18679e-06
-1.9955146e-06
1.2939565e-05
-1.0508485e-06
-1.8041918e-06
1.2828573e-05
-6.8206874e-07
-1.5691922e-06
4.077941e-07
-1.2905961e-06
9.2463927e-06
-2.1576676e-07
3.486345e-08
9.3588732e-06
-3.2717976e-07
6.0689565e-08
9.4935836e-06
-3.5238396e-07
7.1226448e-08
9.6646516e-06
-3.5904032e-07
7.3345373e-08
9.8690901e-06
-3.5412186e-07
6.9961069e-08
1.0095718e-05
-3.4632601e-07
6.0268951e-08
1.0336678e-05
-3.4610409e-07
4.2387307e-08
1.0588976e-05
-3.6243309e-07
1.4293057e-08
1.0856006e-05
-4.0387239e-07
-2.9267703e-08
1.1133403e-05
-4.8392784e-07
-9.3117909e-08
1.142724e-05
-6.199663e-07
-1.8501533e-07
1.1747775e-05
-8.2838641e-07
-3.1512331e-07
1.2112337e-05
-1.1279094e-06
-4.9285317e-07
1.2520942e-05
-1.5421061e-06
-7.1989065e-07
1.3013414e-05
-2.0199426e-06
-9.8272137e-07
1.3550647e-05
-2.4187825e-06
-1.2362457e-06
1.4035316e-05
-2.5793312e-06
-1.4490292e-06
1.4364306e-05
-2.4183871e-06
-1.6392542e-06
1.4501447e-05
-2.0494614e-06
-1.8216603e-06
1.4478866e-05
-1.6484339e-06
-1.9984829e-06
1.4377787e-05
-1.3479539e-06
-2.1595396e-06
1.4239636e-05
-1.127316e-06
-2.2943645e-06
1.4082924e-05
-9.7268534e-07
-2.3817839e-06
1.3915037e-05
-8.7901478e-07
-2.3976636e-06
1.3763659e-05
-8.657784e-07
-2.3227502e-06
1.3696418e-05
-9.4262693e-07
-2.1548815e-06
1.3816234e-05
-1.0857597e-06
-1.8881454e-06
1.4357764e-05
-1.3003121e-06
-1.5365101e-06
1.5987674e-05
-1.6431352e-06
-1.2952746e-06
-1.8867234e-06
-1.4435984e-06
9.3059009e-06
-2.0697706e-07
3.5552388e-08
9.2972446e-06
-2.7449116e-07
6.2527029e-08
9.2740947e-06
-2.8914691e-07
7.5100056e-08
9.2492644e-06
-2.9288388e-07
8.0039268e-08
9.2327126e-06
-2.9186372e-07
8.0523568e-08
9.2275336e-06
-2.8807545e-07
7.635536e-08
9.2332479e-06
-2.8671962e-07
6.6669381e-08
9.2490606e-06
-2.9388839e-07
5.0775955e-08
9.2755873e-06
-3.1588813e-07
2.8662371e-08
9.3108959e-06
-3.6365046e-07
1.1099061e-09
9.3712596e-06
-4.5628318e-07
-5.5711197e-08
9.4671538e-06
-6.2524061e-07
-1.3898395e-07
9.6203401e-06
-9.0495642e-07
-2.6418027e-07
9.8531853e-06
-1.3217426e-06
-4.3686376e-07
1.0206226e-05
-1.8007158e-06
-6.3344506e-07
1.0637703e-05
-2.1468315e-06
-7.6710996e-07
1.1045062e-05
-2.1402019e-06
-7.4999088e-07
1.1376035e-05
-1.7504701e-06
-5.9029851e-07
1.1552778e-05
-1.1575401e-06
-3.7311833e-07
1.1577095e-05
-5.4100274e-07
-2.4208922e-07
1.150478e-05
-5.8279933e-08
-2.4259545e-07
1.1428329e-05
1.9440716e-07
-2.2390212e-07
1.1379346e-05
2.8759824e-07
-1.4812635e-07
1.1335035e-05
2.834392e-07
-8.0554277e-10
1.1247008e-05
1.8053824e-07
2.0759876e-07
1.1134104e-05
-2.1243081e-08
4.0901425e-07
1.0989459e-05
-2.9105395e-07
6.5410806e-07
1.0968165e-05
-6.6354461e-07
8.3707354e-07
1.1443211e-05
-9.9814449e-07
6.0273278e-07
-1.2939591e-06
-3.1861165e-07
9.1068163e-06
3.4553775e-08
8.875453e-06
6.0355317e-08
8.6252464e-06
7.2044565e-08
8.3716399e-06
7.6231257e-08
8.1222657e-06
7.6010285e-08
7.882894e-06
7.1294936e-08
7.6559366e-06
6.1509086e-08
7.4402912e-06
4.6448222e-08
7.2319686e-06
2.664347e-08
7.0196216e-06
5.0536808e-09
6.7968902e-06
-3.1574041e-08
6.5390974e-06
-7.3250221e-08
6.2227352e-06
-1.2454467e-07
5.8278783e-06
-1.9621403e-07
5.4377095e-06
-2.6519337e-07
5.2283308e-06
-1.7398473e-07
5.3423154e-06
3.040691e-07
5.6157142e-06
1.2959647e-06
5.8025923e-06
2.5802644e-06
6.0328106e-06
3.5487453e-06
6.369213e-06
4.1346084e-06
6.73474e-06
4.4068247e-06
7.0586757e-06
4.4927281e-06
7.307323e-06
4.4535122e-06
7.4661828e-06
4.2946069e-06
7.5585546e-06
3.9953077e-06
7.6432375e-06
3.5438528e-06
7.7450741e-06
2.9589273e-06
8.3817725e-06
1.867812e-06
-8.4629218e-08
9.5697499e-06
-2.844559e-07
1.5075064e-08
9.851068e-06
-2.5703286e-07
2.4766751e-08
1.0126441e-05
-2.517705e-07
2.7932443e-08
1.0363185e-05
-2.1706684e-07
2.6580583e-08
1.0550992e-05
-1.7452424e-07
2.2330833e-08
1.0693949e-05
-1.4031178e-07
1.5780311e-08
1.0798025e-05
-1.1837137e-07
6.9384884e-09
1.0873292e-05
-1.0797408e-07
-4.0514274e-09
1.0922443e-05
-1.1095242e-07
-1.6650438e-08
1.09491e-05
-1.3078084e-07
-3.1981365e-08
1.0955481e-05
-1.7232507e-07
-4.9462207e-08
1.0942936e-05
-2.4229351e-07
-6.7694092e-08
1.0914563e-05
-3.5106656e-07
-8.314986e-08
1.0939744e-05
-5.7605321e-07
-9.3480603e-08
1.1047164e-05
-8.7680423e-07
-8.7980306e-08
1.1249815e-05
-1.2312707e-06
-5.3866584e-08
1.1493104e-05
-1.5571994e-06
1.4186709e-08
1.1715109e-05
-1.8128913e-06
8.7395073e-08
1.1874107e-05
-2.0051032e-06
1.5086963e-07
1.1969251e-05
-2.1495312e-06
1.8688857e-07
1.2014847e-05
-2.2756531e-06
2.1873964e-07
1.20327e-05
-2.4029471e-06
2.6504372e-07
1.203587e-05
-2.5264142e-06
3.346533e-07
1.2024967e-05
-2.6270431e-06
4.2455554e-07
1.1997449e-05
-2.6922089e-06
5.2746968e-07
1.1972249e-05
-2.7344028e-06
6.3668264e-07
1.2010021e-05
-2.7680625e-06
7.3328218e-07
1.2212755e-05
-2.7559593e-06
7.4684442e-07
1.2541455e-05
-2.3771937e-06
4.7607434e-07
-1.0257997e-06
-2.5862867e-07
9.2183151e-06
-2.1550605e-07
1.6567943e-08
9.3184842e-06
-3.2618722e-07
2.9677938e-08
9.451374e-06
-3.4931355e-07
3.5885223e-08
9.6239654e-06
-3.524744e-07
3.6169839e-08
9.8302254e-06
-3.4255153e-07
3.1740222e-08
1.0055771e-05
-3.2797984e-07
2.2406728e-08
1.0290659e-05
-3.1765394e-07
6.8018092e-09
1.0530021e-05
-3.1744037e-07
-1.5579055e-08
1.0770564e-05
-3.3314553e-07
-4.7587946e-08
1.1011679e-05
-3.7285921e-07
-9.2114544e-08
1.1254142e-05
-4.4721155e-07
-1.5253018e-07
1.1505646e-05
-5.7754986e-07
-2.3125889e-07
1.1787469e-05
-7.9841096e-07
-3.2710741e-07
1.209485e-05
-1.1734277e-06
-4.2947004e-07
1.2472102e-05
-1.728604e-06
-5.0762322e-07
1.2839116e-05
-2.2930646e-06
-5.4119098e-07
1.3061144e-05
-2.6335497e-06
-5.9500557e-07
1.3111433e-05
-2.7728947e-06
-7.302799e-07
1.3009471e-05
-2.7781763e-06
-9.4764198e-07
1.278239e-05
-2.719098e-06
-1.2030254e-06
1.2471958e-05
-2.6783873e-06
-1.4477431e-06
1.2114194e-05
-2.7002163e-06
-1.6410258e-06
1.171659e-05
-2.7579983e-06
-1.7548123e-06
1.1271891e-05
-2.8076735e-06
-1.7752403e-06
1.0765612e-05
-2.8285205e-06
-1.6838364e-06
1.0229009e-05
-2.8860457e-06
-1.4711777e-06
9.8626054e-06
-3.0826866e-06
-1.212355e-06
1.0149387e-05
-3.4616913e-06
-1.1228918e-06
1.1648076e-05
-3.691857e-06
-1.483665e-06
-2.9153519e-06
-2.400177e-06
9.2788212e-06
-2.0662247e-07
1.6807694e-08
9.2586667e-06
-2.7377693e-07
3.0270946e-08
9.234545e-06
-2.8734731e-07
3.7255281e-08
9.2131169e-06
-2.895151e-07
3.8508046e-08
9.2024657e-06
-2.8637846e-07
3.5001934e-08
9.2040726e-06
-2.7957796e-07
2.6347025e-08
9.2155843e-06
-2.7354986e-07
1.1054339e-08
9.2339067e-06
-2.7279471e-07
-1.2191031e-08
9.257162e-06
-2.815599e-07
-4.6177127e-08
9.2872208e-06
-3.0666605e-07
-9.5139781e-08
9.3120771e-06
-3.6183978e-07
-1.6593438e-07
9.3288327e-06
-4.6990394e-07
-2.6337265e-07
9.3332327e-06
-6.7495679e-07
-3.9200248e-07
9.3323103e-06
-1.0635921e-06
-5.45739e-07
9.3734602e-06
-1.7204554e-06
-6.8312039e-07
9.3439583e-06
-2.3158326e-06
-7.1635612e-07
9.0824447e-06
-2.4058762e-06
-7.1848323e-07
8.7420314e-06
-2.2408057e-06
-7.8400318e-07
8.3781505e-06
-1.8557221e-06
-9.3337565e-07
7.9341659e-06
-1.3789734e-06
-1.1396043e-06
7.399126e-06
-1.0296785e-06
-1.3574467e-06
6.8308545e-06
-8.7027378e-07
-1.4869378e-06
6.2485229e-06
-8.7886671e-07
-1.4469048e-06
5.6909655e-06
-1.0131132e-06
-1.2409638e-06
5.1771888e-06
-1.2274832e-06
-8.8406122e-07
4.6752684e-06
-1.5389801e-06
-4.4188052e-07
4.4531993e-06
-1.9592469e-06
-2.5353959e-07
4.7499068e-06
-2.54029e-06
-3.8662387e-07
5.8476176e-06
-3.0812415e-06
-1.1103256e-06
-2.1962097e-06
-2.809922e-06
9.0804733e-06
1.6409798e-08
8.8376744e-06
2.9377016e-08
8.5864493e-06
3.5922086e-08
8.3363678e-06
3.6797337e-08
8.0930499e-06
3.2949417e-08
7.860805e-06
2.3961582e-08
7.6404334e-06
8.3305391e-09
7.4291143e-06
-1.5027703e-08
7.2236343e-06
-4.9436858e-08
7.0216811e-06
-9.9659804e-08
6.8025329e-06
-1.7426652e-07
6.543128e-06
-2.837514e-07
6.1937362e-06
-4.5012291e-07
5.6548431e-06
-7.2109029e-07
4.8314762e-06
-1.1642011e-06
3.9693324e-06
-1.6330605e-06
3.5289526e-06
-1.6684828e-06
3.4092437e-06
-8.2831269e-07
3.4378694e-06
6.9190827e-07
3.5255236e-06
2.0774699e-06
3.7394553e-06
2.8864272e-06
3.9952636e-06
3.2767161e-06
4.1984868e-06
3.4071294e-06
4.2466232e-06
3.3891484e-06
4.0726618e-06
3.2381995e-06
3.7253196e-06
2.8010638e-06
3.2876807e-06
2.019942e-06
2.6880965e-06
1.0161714e-06
2.2906744e-06
-8.1894283e-07
-3.3343354e-06
9.5641164e-06
-2.8463709e-07
4.5960511e-09
9.8378535e-06
-2.5661789e-07
7.7158296e-09
1.0107178e-05
-2.4972022e-07
8.4188978e-09
1.033908e-05
-2.122475e-07
7.0283052e-09
1.0522608e-05
-1.6512102e-07
4.0404165e-09
1.0662115e-05
-1.2353265e-07
-6.3503366e-11
1.0765866e-05
-9.0344582e-08
-6.3261711e-09
1.0840019e-05
-6.4296061e-08
-1.3754273e-08
1.0890386e-05
-4.403057e-08
-2.2815415e-08
1.0921966e-05
-2.9560949e-08
-3.3800886e-08
1.0941668e-05
-2.2369932e-08
-4.6541184e-08
1.0960894e-05
-2.6675949e-08
-5.9864254e-08
1.1003296e-05
-5.4614735e-08
-7.0270719e-08
1.1161573e-05
-1.757925e-07
-7.4806897e-08
1.1462963e-05
-3.3565377e-07
-5.2366521e-08
1.1798124e-05
-4.0503026e-07
1.6737923e-08
1.2066519e-05
-3.4414065e-07
8.9587791e-08
1.2240923e-05
-2.6171687e-07
1.7327383e-07
1.2371441e-05
-2.4542607e-07
2.6336806e-07
1.2484591e-05
-2.9299791e-07
3.6346358e-07
1.2599053e-05
-3.8440423e-07
4.8455516e-07
1.2716678e-05
-5.0255428e-07
6.4490346e-07
1.2823942e-05
-6.3066347e-07
8.5194797e-07
1.2915258e-05
-7.6028338e-07
1.0865605e-06
1.2993367e-05
-8.803918e-07
1.3222107e-06
1.3039022e-05
-9.2935783e-07
1.5122757e-06
1.2941639e-05
-7.7416591e-07
1.5957656e-06
1.2471087e-05
-2.9691543e-07
1.5035168e-06
1.1000232e-05
8.2352888e-07
1.1166416e-06
3.1178784e-06
4.3905429e-07
9.2110166e-06
-2.1529448e-07
5.1781653e-09
9.3000152e-06
-3.2559202e-07
9.6565376e-09
9.4224336e-06
-3.4770115e-07
1.1453247e-08
9.5849291e-06
-3.4884042e-07
1.0275674e-08
9.7804559e-06
-3.352332e-07
6.3373622e-09
9.9937469e-06
-3.1437913e-07
-2.2624684e-11
1.0215285e-05
-2.9384149e-07
-1.1219845e-08
1.0439199e-05
-2.7761313e-07
-2.6151606e-08
1.0663006e-05
-2.6868046e-07
-4.6712384e-08
1.0887665e-05
-2.7187415e-07
-7.4411533e-08
1.11206e-05
-2.9732784e-07
-1.1042203e-07
1.1383717e-05
-3.6690365e-07
-1.5397548e-07
1.1726649e-05
-5.2580477e-07
-1.984774e-07
1.2201068e-05
-8.5478823e-07
-2.2421299e-07
1.2849126e-05
-1.2930612e-06
-1.9776707e-07
1.3412248e-05
-1.3809143e-06
-1.2859234e-07
1.3741322e-05
-1.1603072e-06
-1.0867418e-07
1.3882602e-05
-9.8667666e-07
-1.4780931e-07
1.3912808e-05
-9.9459361e-07
-2.3031318e-07
1.3846035e-05
-1.0825251e-06
-3.4897525e-07
1.371045e-05
-1.2153047e-06
-4.8445247e-07
1.3509458e-05
-1.3646661e-06
-5.8240354e-07
1.3216097e-05
-1.4957044e-06
-6.0188935e-07
1.2824357e-05
-1.6138929e-06
-5.3556539e-07
1.2407679e-05
-1.7400666e-06
-4.1255717e-07
1.2127156e-05
-1.8162148e-06
-3.0760167e-07
1.2123942e-05
-1.6164973e-06
-3.6899113e-07
1.216029e-05
-8.0444795e-07
-6.5309565e-07
1.178699e-05
8.5212793e-07
-1.1536084e-06
3.0472364e-06
-1.8561172e-06
9.2718659e-06
-2.0659928e-07
5.2067254e-09
9.2405811e-06
-2.7377527e-07
9.7386249e-09
9.2054557e-06
-2.8701076e-07
1.1690144e-08
9.1728069e-06
-2.8832944e-07
1.0645807e-08
9.1496034e-06
-2.8366092e-07
6.6332975e-09
9.1360583e-06
-2.7431195e-07
-1.7461815e-10
9.1302037e-06
-2.6397516e-07
-1.2956687e-08
9.1277533e-06
-2.5656882e-07
-3.0783711e-08
9.124686e-06
-2.5530567e-07
-5.6482741e-08
9.1166195e-06
-2.6584823e-07
-9.3095691e-08
9.0989033e-06
-3.0081728e-07
-1.4472057e-07
9.0727666e-06
-3.8850527e-07
-2.1561189e-07
9.0579573e-06
-5.9714468e-07
-3.0579715e-07
9.1362915e-06
-1.0806737e-06
-3.9818446e-07
9.433267e-06
-1.8567249e-06
-4.1789037e-07
9.4281429e-06
-1.8239289e-06
-2.7072589e-07
8.9374505e-06
-1.1313766e-06
-2.5782339e-07
8.20024e-06
-6.7781374e-07
-3.5522814e-07
7.5642345e-06
-7.4785942e-07
-5.4291818e-07
6.9387652e-06
-7.6230367e-07
-8.3332601e-07
6.2877303e-06
-7.9909968e-07
-1.1217283e-06
5.5691296e-06
-8.8455891e-07
-1.2478453e-06
4.7604745e-06
-1.0563976e-06
-1.0774161e-06
3.8641895e-06
-1.2475109e-06
-7.1127464e-07
3.0666924e-06
-1.48155e-06
-3.4678058e-07
2.8013833e-06
-1.8060897e-06
-1.8957196e-07
3.3662182e-06
-1.9719211e-06
-4.6763768e-07
4.6037692e-06
-1.2642914e-06
-1.1706356e-06
5.6828606e-06
6.9737507e-07
-2.0414101e-06
2.8248441e-06
-2.8608175e-06
9.073719e-06
5.0433858e-09
8.8199906e-06
9.3298121e-09
8.5578839e-06
1.1017742e-08
8.29666e-06
9.6914995e-09
8.0405621e-06
5.3860949e-09
7.7925574e-06
-2.3459254e-09
7.552709e-06
-1.579655e-08
7.316435e-06
-3.5322758e-08
7.0759805e-06
-6.4288347e-08
6.818008e-06
-1.0753609e-07
6.5165742e-06
-1.7365093e-07
6.1225604e-06
-2.7824647e-07
5.5280247e-06
-4.5277189e-07
4.4948615e-06
-7.6920612e-07
2.7672431e-06
-1.3002293e-06
9.1372575e-07
-1.6129816e-06
-5.7053807e-07
-1.3249108e-06
-1.1235256e-06
-9.5254567e-07
-9.83229e-07
-1.947381e-07
-4.4689937e-07
7.7292207e-07
1.3340208e-07
1.5023028e-06
5.6289136e-07
1.9575472e-06
7.0836638e-07
2.2006261e-06
5.2144028e-07
2.3242834e-06
-5.2140569e-08
2.3228763e-06
-9.5851866e-07
1.8943955e-06
-1.6139611e-06
6.9247463e-07
-1.109326e-06
-7.697232e-07
1.2205329e-06
-2.4630183e-06
-3.4389382e-06
9.5609344e-06
-2.8495702e-07
-2.3817221e-09
9.8304551e-06
-2.5714882e-07
-4.5885988e-09
1.0095992e-05
-2.5027881e-07
-6.7489377e-09
1.0324717e-05
-2.126103e-07
-8.9825557e-09
1.0505353e-05
-1.6507901e-07
-1.1398076e-08
1.0642475e-05
-1.2292468e-07
-1.4127455e-08
1.0742759e-05
-8.9047166e-08
-1.7419811e-08
1.0812807e-05
-6.2333534e-08
-2.1316539e-08
1.0858024e-05
-4.1786013e-08
-2.6082901e-08
1.0884338e-05
-2.7925134e-08
-3.2006939e-08
1.0900858e-05
-2.3504944e-08
-3.9327189e-08
1.0925062e-05
-3.5794438e-08
-4.7922741e-08
1.0995221e-05
-8.3570152e-08
-5.6214299e-08
1.123304e-05
-2.5222576e-07
-5.939452e-08
1.1615888e-05
-3.8556468e-07
-4.9289897e-08
1.1979653e-05
-3.0748329e-07
-4.0551163e-08
1.223018e-05
-1.2348681e-07
-3.9756623e-08
1.2411921e-05
3.4321644e-08
-4.4898615e-08
1.2577387e-05
1.5353827e-07
-5.7624449e-08
1.2773789e-05
2.4873557e-07
-8.3575093e-08
1.3031097e-05
3.5443401e-07
-1.2902388e-07
1.3333496e-05
5.2830897e-07
-1.8761124e-07
1.3623609e-05
8.108386e-07
-2.5088001e-07
1.3832217e-05
1.1849778e-06
-3.0907746e-07
1.3887973e-05
1.6194052e-06
-3.5525536e-07
1.3694129e-05
2.0860423e-06
-3.8251853e-07
1.3075767e-05
2.5912136e-06
-3.7998416e-07
1.1732317e-05
3.1772977e-06
-3.3357806e-07
9.1601045e-06
3.9166914e-06
-2.3166344e-07
5.2652488e-06
-1.095904e-07
9.2067457e-06
-2.1536307e-07
-2.1921073e-09
9.2895026e-06
-3.2577124e-07
-4.4748638e-09
9.4054115e-06
-3.4785944e-07
-6.8693838e-09
9.5613835e-06
-3.4877567e-07
-9.5223742e-09
9.7499183e-06
-3.3469579e-07
-1.2568526e-08
9.9561732e-06
-3.1301392e-07
-1.617207e-08
1.0167914e-05
-2.9127169e-07
-2.0716352e-08
1.0379332e-05
-2.7363922e-07
-2.623956e-08
1.0587499e-05
-2.634312e-07
-3.3203526e-08
1.0794114e-05
-2.6678822e-07
-4.2120849e-08
1.1011037e-05
-2.9753612e-07
-5.3240883e-08
1.1273729e-05
-3.8645282e-07
-6.5854024e-08
1.1664056e-05
-5.9702581e-07
-7.4995815e-08
1.2261985e-05
-1.0074682e-06
-6.6324344e-08
1.301531e-05
-1.2965421e-06
-4.0418195e-08
1.3548299e-05
-9.4339006e-07
-2.6615158e-08
1.3918387e-05
-5.7791701e-07
-2.5755338e-08
1.420073e-05
-3.6689974e-07
-3.4265168e-08
1.4438326e-05
-2.7745957e-07
-4.7454136e-08
1.4665865e-05
-2.6112628e-07
-8.4848464e-08
1.4962538e-05
-3.1750704e-07
-1.3782103e-07
1.5347634e-05
-2.9863111e-07
-1.8135573e-07
1.5736243e-05
-3.8644846e-08
-1.877073e-07
1.5975889e-05
5.3134804e-07
-1.7040194e-07
1.6010441e-05
1.2816951e-06
-1.5661252e-07
1.5726184e-05
2.1594449e-06
-1.3996026e-07
1.4888474e-05
3.1216714e-06
-1.0003424e-07
1.3150401e-05
4.2473199e-06
-1.875036e-08
1.0172388e-05
5.5488622e-06
1.6291053e-07
7.236897e-06
3.823094e-07
9.2676091e-06
-2.0661795e-07
-2.1873189e-09
9.2299054e-06
-2.7386507e-07
-4.4641738e-09
9.1877033e-06
-2.8707763e-07
-6.8898138e-09
9.1474486e-06
-2.8824628e-07
-9.6289301e-09
9.1155313e-06
-2.8329054e-07
-1.2854408e-08
9.0925279e-06
-2.7338362e-07
-1.6800935e-08
9.0728395e-06
-2.6255648e-07
-2.1982645e-08
9.0515406e-06
-2.5451754e-07
-2.8605166e-08
9.0221213e-06
-2.5296403e-07
-3.7528714e-08
8.9772341e-06
-2.650625e-07
-4.9931089e-08
8.9105189e-06
-3.0769798e-07
-6.7836625e-08
8.8242772e-06
-4.2256569e-07
-9.3237629e-08
8.7643259e-06
-7.1934023e-07
-1.2348569e-07
8.9294835e-06
-1.4474642e-06
-1.2353005e-07
9.4706824e-06
-2.179112e-06
-8.0021975e-08
9.1985069e-06
-8.7310672e-07
-7.0351313e-08
8.8810441e-06
-4.1521681e-07
-1.0285735e-07
8.4095926e-06
-9.1142555e-08
-1.5843021e-07
7.8214384e-06
-1.0736685e-08
-2.2023591e-07
7.1351233e-06
-1.2511804e-07
-2.8192548e-07
6.3643065e-06
-3.4947748e-07
-3.1765662e-07
5.7918693e-06
-6.8931371e-07
-2.8259328e-07
5.8317359e-06
-9.7826444e-07
-1.7926737e-07
6.6796027e-06
-1.0230007e-06
-7.2689136e-09
8.1552597e-06
-6.8191907e-07
1.3683018e-07
9.5874826e-06
1.6373204e-07
3.600388e-07
1.02381e-05
1.4364476e-06
5.46594e-07
9.5972077e-06
2.9729191e-06
7.1963538e-07
7.538687e-06
4.5814108e-06
9.5646501e-07
6.4510681e-06
1.14405e-06
9.0695162e-06
-2.138925e-09
8.8093336e-06
-4.3530075e-09
8.5399964e-06
-6.7229687e-09
8.270866e-06
-9.4246749e-09
8.0056222e-06
-1.2660835e-08
7.7466577e-06
-1.6765333e-08
7.4905816e-06
-2.2277198e-08
7.2304561e-06
-2.9715002e-08
6.9536109e-06
-4.0407443e-08
6.6374963e-06
-5.6484474e-08
6.2393437e-06
-8.3197335e-08
5.6684244e-06
-1.2989853e-07
4.7115606e-06
-2.1532235e-07
2.8650554e-06
-3.7136626e-07
-1.7821642e-07
-4.5404859e-07
-2.3555968e-06
-3.1329133e-07
-3.8726484e-06
-2.2447967e-07
-4.7664275e-06
-1.5061123e-07
-4.9465547e-06
-2.6525205e-08
-4.4462305e-06
1.4642843e-07
-3.6714147e-06
3.7570985e-07
-3.0150011e-06
6.0913766e-07
-2.6147604e-06
8.199212e-07
-2.323089e-06
1.0084019e-06
-1.7966493e-06
1.1140954e-06
-7.3803697e-07
1.0029816e-06
3.4858473e-07
1.0368028e-06
1.0776174e-06
1.4628144e-06
1.4612685e-06
1.7192882e-06
1.6938772e-06
9.5606499e-06
-2.8493511e-07
-9.0971458e-09
9.8298019e-06
-2.5725641e-07
-1.6416681e-08
1.0094839e-05
-2.5050246e-07
-2.1192646e-08
1.0322875e-05
-2.1295513e-07
-2.3957862e-08
1.0502547e-05
-1.6557811e-07
-2.5370823e-08
1.0638018e-05
-1.2364496e-07
-2.5819387e-08
1.0736334e-05
-9.0166034e-08
-2.5429643e-08
1.0803543e-05
-6.4183014e-08
-2.420257e-08
1.0844765e-05
-4.5015488e-08
-2.2166772e-08
1.0866002e-05
-3.3651061e-08
-1.952083e-08
1.0877782e-05
-3.4146061e-08
-1.7007734e-08
1.0903077e-05
-5.7311694e-08
-1.622364e-08
1.0992837e-05
-1.2621057e-07
-2.0615234e-08
1.1284545e-05
-3.1710019e-07
-3.5502086e-08
1.1682311e-05
-3.6714462e-07
-8.0592167e-08
1.2016248e-05
-2.1728336e-07
-1.5620238e-07
1.22431e-05
-2.1539263e-08
-2.4264017e-07
1.2392341e-05
1.451137e-07
-3.3692896e-07
1.2504291e-05
2.7537752e-07
-4.4269618e-07
1.2625062e-05
3.5700452e-07
-5.5912511e-07
1.2789609e-05
3.9438834e-07
-6.8574752e-07
1.300614e-05
4.2356002e-07
-8.2551691e-07
1.3241386e-05
5.0036824e-07
-9.8437179e-07
1.3433864e-05
6.6364409e-07
-1.1632082e-06
1.3523695e-05
9.0331367e-07
-1.3466239e-06
1.3424939e-05
1.2149791e-06
-1.4972471e-06
1.2965204e-05
1.6283336e-06
-1.5473273e-06
1.1851146e-05
2.205638e-06
-1.423946e-06
9.5842079e-06
3.1027822e-06
-1.0661879e-06
4.8600446e-06
-3.8510794e-07
9.2065808e-06
-2.1537551e-07
-9.363063e-09
9.2888987e-06
-3.2583778e-07
-1.8208283e-08
9.4041184e-06
-3.4802936e-07
-2.4556557e-08
9.5590798e-06
-3.4907575e-07
-2.8354401e-08
9.7461017e-06
-3.3518232e-07
-2.9973934e-08
9.9495678e-06
-3.1381371e-07
-2.9453671e-08
1.0157804e-05
-2.926789e-07
-2.642099e-08
1.0363883e-05
-2.7626982e-07
-2.0213184e-08
1.0564379e-05
-2.686198e-07
-1.0083949e-08
1.0760834e-05
-2.7723081e-07
4.990282e-09
1.0966039e-05
-3.2011332e-07
2.7432121e-08
1.1225027e-05
-4.3715853e-07
5.4723066e-08
1.1651557e-05
-7.0626582e-07
7.7844089e-08
1.2364122e-05
-1.1742626e-06
7.7231394e-08
1.3063409e-05
-1.1442096e-06
3.734521e-08
1.3555028e-05
-7.2080835e-07
-1.4019267e-08
1.3918487e-05
-3.805926e-07
-2.8981083e-08
1.4206848e-05
-1.8339872e-07
1.0842434e-08
1.4394892e-05
-3.0548012e-08
8.0605112e-08
1.4522551e-05
-3.2392302e-08
1.9402774e-07
1.4642806e-05
-1.8465775e-07
3.4684173e-07
1.4786816e-05
-3.5929129e-07
4.926295e-07
1.4972616e-05
-4.0607097e-07
5.7717642e-07
1.5173853e-05
-2.2683836e-07
5.7118248e-07
1.5345473e-05
1.3779008e-07
4.9544828e-07
1.5283868e-05
8.0977425e-07
3.8697893e-07
1.477056e-05
1.6825531e-06
4.1690547e-07
1.3511765e-05
2.7283443e-06
7.6749142e-07
1.1289918e-05
4.175346e-06
1.3488369e-06
6.1200767e-06
1.972092e-06
9.2674134e-06
-2.0663644e-07
-9.3796842e-09
9.229289e-06
-2.7391275e-07
-1.8265059e-08
9.1863743e-06
-2.8718387e-07
-2.4820799e-08
9.1449993e-06
-2.8843788e-07
-2.8891761e-08
9.1112627e-06
-2.8361407e-07
-3.0685895e-08
9.0846849e-06
-2.7399445e-07
-3.0041744e-08
9.0599609e-06
-2.6360296e-07
-2.6333739e-08
9.0302248e-06
-2.5656948e-07
-1.8568041e-08
8.9873132e-06
-2.5734955e-07
-5.8865023e-09
8.9186527e-06
-2.7450985e-07
1.6007316e-08
8.8108643e-06
-3.3051365e-07
5.0341556e-08
8.6622105e-06
-4.8230922e-07
1.0052673e-07
8.5588491e-06
-8.8946307e-07
1.6297983e-07
8.9666215e-06
-1.8967749e-06
1.9170015e-07
9.1909099e-06
-1.591788e-06
1.4676338e-07
8.9097434e-06
-5.7888271e-07
6.9457559e-08
8.5311119e-06
-1.8018898e-07
7.3191747e-08
7.9332839e-06
8.3694711e-08
1.7050041e-07
7.1704112e-06
1.3431189e-07
3.7634651e-07
6.2455353e-06
-4.6882918e-08
6.5465632e-07
5.0816065e-06
-2.8420573e-07
9.4098148e-07
3.8712357e-06
-5.9302114e-07
1.1541354e-06
2.9359422e-06
-8.8778652e-07
1.2283702e-06
2.7295635e-06
-1.1512876e-06
1.1169661e-06
3.5970134e-06
-1.3419837e-06
7.482408e-07
5.5100598e-06
-1.1219835e-06
3.8448613e-07
7.2159525e-06
1.7086066e-08
5.1797199e-07
7.9082913e-06
1.2610551e-06
1.5111163e-06
7.6069347e-06
2.8704698e-06
2.5793299e-06
4.6286428e-06
3.3981272e-06
9.0692953e-06
-9.1188283e-09
8.8086673e-06
-1.7638033e-08
8.5385728e-06
-2.3812587e-08
8.268197e-06
-2.7487054e-08
8.0007646e-06
-2.8842849e-08
7.7376899e-06
-2.7685245e-08
7.4751191e-06
-2.3309534e-08
7.2034678e-06
-1.4633366e-08
6.907146e-06
-1.4350045e-09
6.5492721e-06
2.68802e-08
6.0628543e-06
7.2708576e-08
5.2973839e-06
1.5327315e-07
3.891131e-06
3.0163643e-07
1.0277475e-06
5.9840311e-07
-2.0746526e-06
1.0915494e-06
-4.1461046e-06
1.1835569e-06
-5.5238176e-06
9.7213403e-07
-6.3205909e-06
7.2735581e-07
-6.440748e-06
2.2775334e-07
-5.9899094e-06
-3.4997915e-07
-5.2406815e-06
-6.5622675e-07
-4.484142e-06
-7.3904487e-07
-3.8366609e-06
-7.1381424e-07
-3.3013172e-06
-6.7651472e-07
-2.8843123e-06
-6.4253404e-07
-2.4092095e-06
-5.9063516e-07
-1.6991974e-06
3.4837719e-07
-8.7393461e-07
1.9029168e-06
4.6115023e-07
3.2533125e-06
4.4254815e-06
9.5632546e-06
-2.8456879e-07
-1.878369e-08
9.8358149e-06
-2.5688057e-07
-3.2028768e-08
1.0103581e-05
-2.5030022e-07
-3.856675e-08
1.0333462e-05
-2.1317124e-07
-4.056064e-08
1.0514462e-05
-1.6645786e-07
-3.9790075e-08
1.0651115e-05
-1.2536978e-07
-3.6966213e-08
1.0750942e-05
-9.2794372e-08
-3.2316846e-08
1.0820718e-05
-6.7528074e-08
-2.6302805e-08
1.0865707e-05
-4.861833e-08
-1.8391644e-08
1.0890416e-05
-3.6988959e-08
-7.1166099e-09
1.0902136e-05
-3.4887587e-08
6.2224603e-09
1.091592e-05
-4.8200692e-08
1.811203e-08
1.0959677e-05
-9.26787e-08
2.7929812e-08
1.1133949e-05
-2.4242076e-07
3.177404e-08
1.1447473e-05
-4.1091153e-07
1.5968069e-08
1.1773569e-05
-4.384682e-07
-4.3627187e-08
1.2011452e-05
-3.3091636e-07
-1.4801528e-07
1.2151361e-05
-2.4068592e-07
-2.3344507e-07
1.2243178e-05
-2.4674107e-07
-2.8423783e-07
1.233072e-05
-3.4046944e-07
-3.0213023e-07
1.2441231e-05
-4.9242481e-07
-2.9954296e-07
1.2574797e-05
-6.6269867e-07
-2.9220757e-07
1.2702822e-05
-8.1378466e-07
-2.9478782e-07
1.2790848e-05