/*--------------------------------*- C++ -*----------------------------------*\
| =========                 |                                                 |
| \\      /  F ield         | OpenFOAM: The Open Source CFD Toolbox           |
|  \\    /   O peration     | Version:  v2012                                 |
|   \\  /    A nd           | Website:  www.openfoam.com                      |
|    \\/     M anipulation  |                                                 |
\*---------------------------------------------------------------------------*/
FoamFile
{
    version     2.0;
    format      ascii;
    class       volScalarField;
    location    "350/leftSolid";
    object      T;
}
// * * * * * * * * * * * * * * * * * * * * * * * * * * * * * * * * * * * * * //

dimensions      [0 0 0 1 0 0 0];


internalField   nonuniform List<scalar> 
130
(
865.42436
865.33419
865.18596
864.9969
864.7806
864.56961
864.37115
864.17965
864.01383
863.88685
863.79667
863.7389
863.69456
865.3179
865.23158
865.07657
864.86937
864.65004
864.43793
864.22349
864.00834
863.81181
863.65087
863.52251
863.43591
863.38233
865.12418
865.03718
864.86879
864.6481
864.41861
864.1805
863.93162
863.67646
863.43037
863.19861
862.98982
862.84259
862.75997
864.8539
864.76162
864.59233
864.37471
864.11997
863.84021
863.5351
863.23311
862.92399
862.59627
862.23294
862.00452
861.88657
864.53678
864.45251
864.29618
864.07718
863.78564
863.46771
863.13434
862.79061
862.42593
862.02769
861.63835
861.38332
861.24001
864.16149
864.08768
863.94428
863.72783
863.43455
863.11963
862.7562
862.38441
861.98791
861.5473
861.17347
860.91699
860.77269
863.73002
863.66159
863.52782
863.33083
863.06965
862.76838
862.3962
862.03123
861.64696
861.227
860.90053
860.67491
860.55292
863.38635
863.32109
863.18738
862.98444
862.74203
862.46539
862.14418
861.81507
861.47251
861.10653
860.80552
860.60445
860.49867
863.15218
863.08762
862.95542
862.75025
862.51786
862.26844
861.9954
861.70552
861.41367
861.11752
860.84376
860.64521
860.54064
863.0354
862.97438
862.84587
862.64632
862.40686
862.16598
861.91565
861.65833
861.40569
861.15926
860.9376
860.76373
860.66521
)
;

boundaryField
{
    minX
    {
        type            zeroGradient;
    }
    minZ
    {
        type            zeroGradient;
    }
    maxZ
    {
        type            zeroGradient;
    }
    leftSolid_to_bottomWater
    {
        type            compressible::turbulentTemperatureCoupledBaffleMixed;
        refValue        nonuniform List<scalar> 
130
(
985.75985
981.39159
978.91407
977.3646
973.53864
971.57078
971.54978
969.92886
969.95264
971.66229
973.4879
975.73465
973.11462
984.07353
981.39358
978.92551
973.59055
971.37944
972.36082
971.89526
969.81174
968.81071
970.72607
971.73701
973.60111
972.71965
982.65777
980.87131
975.99886
970.84913
971.00167
970.9975
970.42747
967.99921
967.85743
967.86128
966.75769
967.06477
966.02807
980.91512
977.48362
973.398
972.15619
970.93615
970.17238
965.33333
965.12766
965.15481
964.89968
942.29216
941.80013
941.01043
980.61225
978.3059
976.79721
976.91572
970.04202
966.71471
965.34316
964.93361
964.46788
958.65144
943.65273
943.94494
940.3144
980.47758
979.00542
978.39282
977.36236
969.78539
970.91466
964.48304
963.41222
962.60209
948.68532
942.1151
940.63208
936.98233
974.28772
972.9421
971.78212
971.85104
969.08764
970.20748
958.3203
958.36261
957.9548
943.72408
943.4292
942.80861
941.55677
972.15281
971.65875
970.79779
966.80137
965.20117
964.70782
959.5906
958.64393
958.18729
948.2865
944.22496
945.16705
945.03243
970.69213
970.09792
969.77664
964.24544
962.56795
962.49904
961.31713
958.69232
958.09681
955.19814
948.18508
945.47044
944.94756
970.2483
970.18188
969.76093
965.80784
960.4301
959.96018
959.02292
957.75898
957.95534
957.16793
956.34095
954.15335
952.72272
)
;
        refGradient     uniform 0;
        valueFraction   nonuniform List<scalar> 
130
(
0.0075140686
0.0075140686
0.0075140686
0.0075140686
0.0075140686
0.0075140686
0.0075140686
0.0075140686
0.0075140686
0.0075140686
0.0075140686
0.0075140686
0.0075140686
0.0075140686
0.0075140686
0.0075140686
0.0075140686
0.0075140686
0.0075140686
0.0075140686
0.0075140686
0.0075140686
0.0075140686
0.0075140686
0.0075140686
0.0075140686
0.0075140686
0.0075140686
0.0075140686
0.0075140686
0.0075140686
0.0075140686
0.0075140686
0.0075140686
0.0075140686
0.0075140686
0.0075140686
0.0075140686
0.0075140686
0.0075140686
0.0075140686
0.0075140686
0.0075140686
0.0075140686
0.0075140686
0.0075140686
0.0075140686
0.0075140686
0.0075140686
0.0075140686
0.0075140686
0.0075140686
0.0075140686
0.0075140686
0.0075140686
0.0075140686
0.0075140686
0.0075140686
0.0075140686
0.0075140686
0.0075140686
0.0075140686
0.0075140686
0.0075140686
0.0075140686
0.0075140686
0.0075140686
0.0075140686
0.0075140686
0.0075140686
0.0075140686
0.0075140686
0.0075140686
0.0075140686
0.0075140686
0.0075140686
0.0075140686
0.0075140686
0.0075140686
0.0075140686
0.0075140686
0.0075140686
0.0075140686
0.0075140686
0.0075140686
0.0075140686
0.0075140686
0.0075140686
0.0075140686
0.0075140686
0.0075140686
0.0075140686
0.0075140686
0.0075140686
0.0075140686
0.0075140686
0.0075140686
0.0075140686
0.0075140686
0.0075140686
0.0075140686
0.0075140686
0.0075140686
0.0075140686
0.0075140686
0.0075140686
0.0075140686
0.0075140686
0.0075140686
0.0075140686
0.0075140686
0.0075140686
0.0075140686
0.0075140686
0.0075140686
0.0075140686
0.0075140686
0.0075140686
0.0075140686
0.0075140686
0.0075140686
0.0075140686
0.0075140686
0.0075140686
0.0075140686
0.0075140686
0.0075140686
0.0075140686
0.0075140686
0.0075140686
)
;
        value           nonuniform List<scalar> 
130
(
866.32409
866.20179
866.03606
865.83678
865.59335
865.36919
865.17208
864.96984
864.80541
864.69218
864.61638
864.57594
864.51226
866.20579
866.09999
865.92761
865.6819
865.44759
865.24446
865.02814
864.79896
864.59636
864.45099
864.33116
864.25921
864.19942
866.00292
865.90318
865.69948
865.44172
865.21507
864.97872
864.72743
864.45597
864.21063
863.98062
863.7651
863.62127
863.53147
865.72162
865.60427
865.40554
865.1802
864.91818
864.63477
864.29559
863.99433
863.68773
863.36055
862.83007
862.59966
862.47665
865.40459
865.30363
865.13712
864.92064
864.57964
864.23907
863.8979
863.55367
863.18821
862.74925
862.25014
861.99923
861.82971
865.03104
864.94674
864.79982
864.57724
864.22922
863.92516
863.51616
863.13913
862.73951
862.19762
861.7772
861.5115
861.34087
864.55626
864.47824
864.33678
864.14179
863.86182
863.57124
863.11259
862.75069
862.36623
861.84247
861.51622
861.28763
861.15716
864.19915
864.13067
863.99149
863.76004
863.50747
863.22922
862.87201
862.53828
862.19488
861.75724
861.42798
861.23549
861.1295
863.95581
863.88725
863.75363
863.50843
863.26521
863.01717
862.73735
862.42996
862.13585
861.82017
861.49578
861.2783
861.17057
863.83657
863.77551
863.64479
863.41705
863.139
862.89644
862.64099
862.37614
862.1269
861.87642
861.65022
861.46122
861.35267
)
;
        Tnbr            T;
        thicknessLayers List<scalar> 0();
        kappaLayers     List<scalar> 0();
        kappaMethod     solidThermo;
        kappa           none;
        alphaAni        none;
        alpha           none;
        field           T;
    }
    leftSolid_to_heater
    {
        type            compressible::turbulentTemperatureCoupledBaffleMixed;
        refValue        nonuniform List<scalar> 10(725.03288 715.83026 696.46839 664.91024 619.06106 618.84624 664.08587 694.90684 713.82819 722.83957);
        refGradient     uniform 0;
        valueFraction   nonuniform List<scalar> 10(2.08329e-05 2.08329e-05 2.08329e-05 2.08329e-05 2.08329e-05 2.08329e-05 2.08329e-05 2.08329e-05 2.08329e-05 2.08329e-05);
        value           nonuniform List<scalar> 10(863.68715 863.37474 862.75201 861.87797 861.23046 860.76315 860.54436 860.49082 860.53324 860.65804);
        Tnbr            T;
        thicknessLayers List<scalar> 1(0.001);
        kappaLayers     List<scalar> 1(0.0005);
        kappaMethod     solidThermo;
        kappa           none;
        alphaAni        none;
        alpha           none;
        field           T;
    }
    leftSolid_to_topAir
    {
        type            compressible::turbulentTemperatureCoupledBaffleMixed;
        refValue        nonuniform List<scalar> 
130
(
323.0201
344.32631
363.60718
381.3992
398.15379
414.15134
429.51338
444.14641
457.72276
470.21946
481.53742
491.4901
499.6743
323.01032
344.08376
362.91221
380.0345
395.87224
410.65118
424.43442
437.17856
448.71136
458.75488
466.91521
472.74312
475.71117
322.99986
344.10454
362.98141
380.16651
396.08755
410.98084
424.95749
438.05384
450.22662
461.34256
471.16038
479.30482
485.061
322.98885
344.09718
362.99939
380.23716
396.25367
411.31574
425.57787
439.13766
452.05225
464.33279
475.92051
486.62395
495.77239
322.9754
344.07654
362.97858
380.22195
396.24913
411.32816
425.61724
439.21463
452.17346
464.48918
476.05887
486.57091
495.09595
322.96023
344.04786
362.938
380.17014
396.18614
411.25376
425.52712
439.09895
452.01007
464.22976
475.58839
485.62005
493.25016
322.9434
344.01084
362.87663
380.08013
396.06184
411.08608
425.30408
438.81033
451.64927
463.80218
475.1616
485.41339
493.69242
322.9296
343.97049
362.78988
379.92072
395.7879
410.6255
424.53726
437.56033
449.64861
460.6558
470.29715
478.1152
483.2466
322.9228
343.91654
362.67244
379.7252
395.49259
410.1985
423.9154
436.59554
448.07104
458.05174
466.13504
471.83275
474.53138
322.92359
344.14173
363.34164
381.05529
397.73191
413.65285
428.94743
443.55394
457.11134
469.5928
480.89452
490.8205
498.94638
)
;
        refGradient     uniform 0;
        valueFraction   nonuniform List<scalar> 
130
(
0.00032132529
0.00032132529
0.00032132529
0.00032132529
0.00032132529
0.00032132529
0.00032132529
0.00032132529
0.00032132529
0.00032132529
0.00032132529
0.00032132529
0.00032132529
0.00032132529
0.00032132529
0.00032132529
0.00032132529
0.00032132529
0.00032132529
0.00032132529
0.00032132529
0.00032132529
0.00032132529
0.00032132529
0.00032132529
0.00032132529
0.00032132529
0.00032132529
0.00032132529
0.00032132529
0.00032132529
0.00032132529
0.00032132529
0.00032132529
0.00032132529
0.00032132529
0.00032132529
0.00032132529
0.00032132529
0.00032132529
0.00032132529
0.00032132529
0.00032132529
0.00032132529
0.00032132529
0.00032132529
0.00032132529
0.00032132529
0.00032132529
0.00032132529
0.00032132529
0.00032132529
0.00032132529
0.00032132529
0.00032132529
0.00032132529
0.00032132529
0.00032132529
0.00032132529
0.00032132529
0.00032132529
0.00032132529
0.00032132529
0.00032132529
0.00032132529
0.00032132529
0.00032132529
0.00032132529
0.00032132529
0.00032132529
0.00032132529
0.00032132529
0.00032132529
0.00032132529
0.00032132529
0.00032132529
0.00032132529
0.00032132529
0.00032132529
0.00032132529
0.00032132529
0.00032132529
0.00032132529
0.00032132529
0.00032132529
0.00032132529
0.00032132529
0.00032132529
0.00032132529
0.00032132529
0.00032132529
0.00032132529
0.00032132529
0.00032132529
0.00032132529
0.00032132529
0.00032132529
0.00032132529
0.00032132529
0.00032132529
0.00032132529
0.00032132529
0.00032132529
0.00032132529
0.00032132529
0.00032132529
0.00032132529
0.00032132529
0.00032132529
0.00032132529
0.00032132529
0.00032132529
0.00032132529
0.00032132529
0.00032132529
0.00032132529
0.00032132529
0.00032132529
0.00032132529
0.00032132529
0.00032132529
0.00032132529
0.00032132529
0.00032132529
0.00032132529
0.00032132529
0.00032132529
0.00032132529
0.00032132529
0.00032132529
)
;
        value           nonuniform List<scalar> 
130
(
865.24556
865.16228
865.0203
864.83702
864.62616
864.42041
864.22697
864.04023
863.87879
863.75582
863.66929
863.61476
863.57307
865.13916
865.05965
864.91075
864.70914
864.49495
864.28767
864.07774
863.86676
863.67398
863.51628
863.39056
863.30585
863.25325
864.94554
864.86537
864.70314
864.48801
864.26367
864.03043
863.78613
863.53529
863.29316
863.06502
862.85944
862.71486
862.63411
864.67539
864.58994
864.42676
864.21472
863.96519
863.69034
863.38991
863.09238
862.7875
862.46383
862.10434
861.87942
861.76444
864.35835
864.28089
864.13066
863.91725
863.63096
863.31795
862.98928
862.65002
862.28961
861.89544
861.50995
861.25839
861.11786
863.9831
863.9161
863.77883
863.56797
863.27993
862.96995
862.61126
862.24396
861.85172
861.41516
861.04507
860.79189
860.6501
863.55172
863.49009
863.36245
863.17105
862.9151
862.61877
862.25133
861.89083
861.51079
861.09485
860.77211
860.54986
860.43057
863.20818
863.1497
863.02207
862.8247
862.58751
862.31574
861.99914
861.67435
861.3358
860.97346
860.67565
860.47715
860.37305
862.97412
862.91632
862.79018
862.59055
862.36332
862.11874
861.85024
861.56457
861.27652
860.9837
860.71263
860.51595
860.41227
862.85738
862.8032
862.68089
862.48711
862.25311
862.01746
861.77217
861.51965
861.27148
861.02915
860.8112
860.64058
860.54468
)
;
        Tnbr            T;
        thicknessLayers List<scalar> 0();
        kappaLayers     List<scalar> 0();
        kappaMethod     solidThermo;
        kappa           none;
        alphaAni        none;
        alpha           none;
        field           T;
    }
}


// ************************************************************************* //
