/*--------------------------------*- C++ -*----------------------------------*\
| =========                 |                                                 |
| \\      /  F ield         | OpenFOAM: The Open Source CFD Toolbox           |
|  \\    /   O peration     | Version:  v2012                                 |
|   \\  /    A nd           | Website:  www.openfoam.com                      |
|    \\/     M anipulation  |                                                 |
\*---------------------------------------------------------------------------*/
FoamFile
{
    version     2.0;
    format      ascii;
    class       surfaceScalarField;
    location    "18";
    object      phi;
}
// * * * * * * * * * * * * * * * * * * * * * * * * * * * * * * * * * * * * * //

dimensions      [0 3 -1 0 0 0 0];
oriented        oriented;


internalField   nonuniform List<scalar> 
187200
(
1.875e-06
2.04374e-22
2.0564e-22
1.875e-06
2.99141e-22
2.40054e-22
1.875e-06
3.49202e-22
3.95207e-22
1.875e-06
2.56353e-22
2.69535e-22
1.875e-06
2.4369e-22
1.41717e-22
1.875e-06
3.76488e-22
2.60709e-22
1.875e-06
2.48095e-22
1.54336e-22
1.875e-06
1.21111e-22
1.17604e-22
1.875e-06
1.45492e-22
2.71288e-22
1.875e-06
2.17063e-22
2.36217e-22
1.875e-06
1.87312e-22
1.63735e-22
1.875e-06
1.75748e-22
1.44367e-22
1.875e-06
1.12822e-22
1.09174e-22
1.875e-06
9.06553e-23
1.99985e-23
1.875e-06
1.2855e-22
1.24208e-22
1.875e-06
6.96804e-23
1.37679e-22
1.875e-06
1.63987e-22
1.13302e-22
1.875e-06
2.9134e-23
1.16267e-22
1.875e-06
1.47397e-22
1.24484e-23
1.875e-06
1.23918e-23
-5.51112e-23
1.875e-06
-6.02749e-23
-7.6705e-23
1.875e-06
1.65243e-23
-2.41796e-23
1.875e-06
1.6697e-22
5.58118e-23
1.875e-06
2.84347e-22
1.02749e-22
1.875e-06
1.16468e-22
1.37451e-23
1.875e-06
5.32649e-23
4.24795e-23
1.875e-06
4.34402e-23
7.8422e-23
1.875e-06
6.30631e-23
9.63386e-23
1.875e-06
4.09179e-23
1.334e-22
1.875e-06
-3.72035e-23
1.22786e-22
1.875e-06
-1.79684e-22
7.89927e-23
1.875e-06
-4.91946e-23
7.06438e-23
1.875e-06
1.34844e-22
7.83176e-23
1.875e-06
1.01052e-22
6.65415e-23
1.875e-06
-7.10268e-24
-2.52584e-23
1.875e-06
-1.56038e-22
-1.73083e-22
1.875e-06
-9.87256e-23
-9.14155e-23
1.875e-06
-1.16316e-22
1.59131e-23
1.875e-06
-1.30845e-23
6.68557e-23
1.57435e-23
8.00684e-23
1.875e-06
7.30101e-23
2.12181e-22
1.875e-06
3.73089e-23
3.56998e-22
1.875e-06
3.0337e-22
5.42563e-22
1.875e-06
2.73585e-22
6.08538e-22
1.875e-06
1.96641e-22
3.86772e-22
1.875e-06
2.24178e-22
4.21128e-22
1.875e-06
2.45023e-22
4.52815e-22
1.875e-06
3.00833e-22
4.43482e-22
1.875e-06
2.56491e-22
4.95171e-22
1.875e-06
1.76045e-22
5.07167e-22
1.875e-06
1.66206e-22
4.94642e-22
1.875e-06
1.06166e-22
3.39316e-22
1.875e-06
1.90414e-22
3.38257e-22
1.875e-06
8.4911e-23
2.74731e-22
1.875e-06
-1.75272e-23
2.70244e-22
1.875e-06
1.08392e-23
1.74482e-22
1.875e-06
1.39297e-22
1.26717e-22
1.875e-06
2.36162e-22
2.03059e-22
1.875e-06
1.64327e-22
1.22551e-23
1.875e-06
1.62726e-22
7.17284e-23
1.875e-06
6.24058e-24
2.55332e-23
1.875e-06
-6.81051e-24
6.57213e-23
1.875e-06
8.79338e-23
4.6821e-23
1.875e-06
4.63059e-23
8.50735e-23
1.875e-06
1.47441e-23
4.47834e-23
1.875e-06
9.22127e-23
6.96968e-23
1.875e-06
8.28183e-23
3.40439e-23
1.875e-06
2.08102e-23
-1.28665e-23
1.875e-06
-4.10909e-23
1.70723e-22
1.875e-06
1.95742e-23
1.01428e-22
1.875e-06
1.06022e-23
2.05773e-22
1.875e-06
3.44752e-23
1.47277e-22
1.875e-06
3.45902e-24
9.93946e-23
1.875e-06
-4.72388e-23
3.08194e-23
1.875e-06
-4.78101e-23
8.96755e-23
1.875e-06
-7.74035e-23
2.74571e-24
1.875e-06
-1.91428e-22
-1.49017e-22
1.875e-06
-3.78716e-23
-9.66035e-24
1.875e-06
4.12113e-23
5.33112e-23
5.23733e-23
5.25e-23
1.875e-06
1.93426e-22
3.22428e-22
1.875e-06
2.14311e-22
5.68136e-22
1.875e-06
5.83188e-23
5.42647e-22
1.875e-06
2.25509e-22
6.64541e-22
1.875e-06
2.74096e-22
5.88758e-22
1.875e-06
2.56489e-22
4.76264e-22
1.875e-06
2.05114e-22
5.28076e-22
1.875e-06
1.56744e-22
6.09662e-22
1.875e-06
1.64069e-22
6.83027e-22
1.875e-06
1.79175e-22
6.3609e-22
1.875e-06
2.12339e-22
5.2617e-22
1.875e-06
1.68573e-22
4.47388e-22
1.875e-06
1.43462e-22
2.90917e-22
1.875e-06
8.0777e-23
3.07963e-22
1.875e-06
1.4493e-22
4.19122e-22
1.875e-06
1.67641e-22
2.89659e-22
1.875e-06
1.9618e-23
1.31037e-22
1.875e-06
4.40386e-24
9.96918e-23
1.875e-06
1.61458e-23
-7.65288e-23
1.875e-06
8.27833e-23
1.17886e-23
1.875e-06
-4.37341e-23
1.59936e-22
1.875e-06
5.09904e-23
1.66507e-22
1.875e-06
1.85161e-22
3.24209e-23
1.875e-06
1.44286e-22
3.74662e-23
1.875e-06
9.368e-23
1.60685e-22
1.875e-06
8.64678e-23
9.34367e-23
1.875e-06
-5.26027e-24
6.17505e-24
1.875e-06
-7.41365e-23
4.92334e-23
1.875e-06
1.88872e-23
1.6132e-22
1.875e-06
6.53401e-23
1.93221e-22
1.875e-06
-1.35789e-23
2.29418e-22
1.875e-06
-3.56286e-23
1.64839e-22
1.875e-06
-9.80571e-24
4.06804e-23
1.875e-06
-4.93264e-23
3.77133e-23
1.875e-06
-8.80368e-23
1.437e-22
1.875e-06
-1.41153e-22
4.82854e-23
1.875e-06
-6.38635e-23
-7.9316e-24
1.875e-06
9.47339e-23
-4.3044e-23
1.875e-06
1.24605e-22
-3.00772e-23
1.26991e-22
-6.22644e-24
1.875e-06
2.07235e-22
3.67187e-22
1.875e-06
1.17247e-22
6.54307e-22
1.875e-06
1.78622e-22
6.58082e-22
1.875e-06
6.43836e-23
6.2754e-22
1.875e-06
1.59492e-22
5.98565e-22
1.875e-06
1.57559e-22
5.71385e-22
1.875e-06
1.72915e-22
6.22876e-22
1.875e-06
1.16655e-22
6.45713e-22
1.875e-06
1.43296e-22
6.724e-22
1.875e-06
1.84298e-22
6.44899e-22
1.875e-06
1.6416e-22
5.98783e-22
1.875e-06
1.49194e-22
5.7593e-22
1.875e-06
9.21952e-23
4.18362e-22
1.875e-06
8.1434e-23
3.79144e-22
1.875e-06
1.87298e-22
3.93058e-22
1.875e-06
2.04781e-22
2.55404e-22
1.875e-06
7.4569e-23
1.66751e-22
1.875e-06
-8.86394e-23
2.00064e-22
1.875e-06
-6.18555e-23
4.01217e-23
1.875e-06
7.85572e-23
-1.03178e-23
1.875e-06
7.96445e-23
2.56417e-22
1.875e-06
7.62003e-23
1.77438e-22
1.875e-06
1.18298e-22
7.99591e-24
1.875e-06
8.33445e-23
4.76606e-23
1.875e-06
3.50748e-23
1.26809e-22
1.875e-06
2.8192e-24
9.77967e-23
1.875e-06
-1.62035e-23
2.20257e-23
1.875e-06
4.1289e-23
1.36932e-23
1.875e-06
6.09053e-23
1.0271e-22
1.875e-06
-3.78571e-23
2.40427e-22
1.875e-06
6.3915e-23
2.41423e-22
1.875e-06
-5.78558e-24
1.53521e-22
1.875e-06
-1.03302e-22
3.95024e-23
1.875e-06
-9.96111e-23
1.1976e-22
1.875e-06
-2.4001e-23
1.28987e-22
1.875e-06
-2.71936e-23
8.72855e-23
1.875e-06
1.15934e-22
1.00829e-22
1.875e-06
7.32594e-23
-1.28824e-23
1.875e-06
8.79132e-23
-6.31753e-23
1.0015e-22
1.33188e-23
1.875e-06
-9.46746e-23
2.98314e-22
1.875e-06
1.28743e-22
7.29648e-22
1.875e-06
5.99967e-24
6.67398e-22
1.875e-06
1.10846e-22
6.78453e-22
1.875e-06
7.22799e-23
7.1622e-22
1.875e-06
5.98785e-23
6.39543e-22
1.875e-06
1.16963e-22
6.44477e-22
1.875e-06
3.10532e-22
6.93628e-22
1.875e-06
2.63933e-22
7.13444e-22
1.875e-06
1.39622e-22
6.58042e-22
1.875e-06
1.09352e-22
6.41404e-22
1.875e-06
1.3835e-22
6.32341e-22
1.875e-06
1.52216e-22
5.01908e-22
1.875e-06
6.50312e-23
5.00578e-22
1.875e-06
3.56688e-23
3.73729e-22
1.875e-06
1.30272e-22
1.42751e-22
1.875e-06
2.21381e-23
2.53493e-22
1.875e-06
-4.55698e-23
3.16549e-22
1.875e-06
-1.34454e-22
1.52765e-22
1.875e-06
-4.04923e-23
2.041e-23
1.875e-06
9.09084e-23
2.46224e-22
1.875e-06
9.47144e-23
1.69681e-22
1.875e-06
9.31445e-23
2.54783e-24
1.875e-06
8.45297e-23
1.37769e-23
1.875e-06
9.7249e-23
2.06329e-22
1.875e-06
1.83864e-23
1.67558e-22
1.875e-06
6.50689e-23
9.28216e-23
1.875e-06
-4.65009e-24
8.11279e-23
1.875e-06
-6.85341e-23
2.46188e-23
1.875e-06
3.50018e-23
1.43019e-22
1.875e-06
1.25328e-22
1.96086e-22
1.875e-06
1.53659e-22
1.67043e-22
1.875e-06
4.39112e-23
3.2461e-23
1.875e-06
-3.61428e-23
3.73908e-23
1.875e-06
-3.47664e-23
5.67975e-23
1.875e-06
3.1722e-23
1.01198e-22
1.875e-06
6.18434e-23
1.27741e-23
1.875e-06
8.73207e-23
8.07157e-23
1.875e-06
-1.44816e-23
5.80756e-23
-4.0135e-23
-1.18878e-23
1.875e-06
1.07512e-22
4.07919e-22
1.875e-06
1.33573e-22
6.90391e-22
1.875e-06
1.04046e-22
7.02907e-22
1.875e-06
6.28017e-23
6.50451e-22
1.875e-06
1.26688e-22
7.47448e-22
1.875e-06
1.19107e-22
7.67239e-22
1.875e-06
1.23045e-22
7.05999e-22
1.875e-06
2.16003e-22
7.57009e-22
1.875e-06
2.33334e-22
7.80272e-22
1.875e-06
1.4119e-22
7.18323e-22
1.875e-06
1.55409e-22
6.89503e-22
1.875e-06
1.54402e-22
6.94588e-22
1.875e-06
1.08205e-22
5.77868e-22
1.875e-06
1.9887e-22
4.86389e-22
1.875e-06
1.09452e-22
3.72889e-22
1.875e-06
-1.78977e-23
2.27544e-22
1.875e-06
-2.17491e-23
2.74272e-22
1.875e-06
-4.87828e-23
3.17567e-22
1.875e-06
-2.04373e-23
2.30481e-22
1.875e-06
-4.07371e-23
1.05507e-22
1.875e-06
2.06867e-22
2.96695e-22
1.875e-06
1.68455e-22
1.87245e-22
1.875e-06
9.16676e-23
-3.02585e-23
1.875e-06
6.91667e-23
-1.65458e-24
1.875e-06
4.14118e-23
1.826e-22
1.875e-06
6.27184e-23
1.75161e-22
1.875e-06
8.92936e-24
3.63383e-23
1.875e-06
-6.91347e-23
6.40067e-23
1.875e-06
-8.41962e-23
1.35609e-22
1.875e-06
-4.81985e-23
1.16917e-22
1.875e-06
8.89687e-23
1.88388e-22
1.875e-06
9.45924e-23
1.59821e-23
1.875e-06
-7.43033e-23
-1.84874e-22
1.875e-06
8.58846e-23
1.44418e-22
1.875e-06
9.47579e-23
9.50755e-23
1.875e-06
1.2035e-22
5.82116e-23
1.875e-06
4.49771e-23
-2.63095e-23
1.875e-06
-3.14767e-23
3.36117e-25
1.875e-06
2.87703e-23
-2.04387e-23
8.49789e-23
2.68321e-23
1.875e-06
8.88527e-23
4.1804e-22
1.875e-06
1.33861e-22
7.26118e-22
1.875e-06
1.25942e-22
7.65207e-22
1.875e-06
3.0108e-23
7.12343e-22
1.875e-06
9.54176e-23
7.45609e-22
1.875e-06
5.49485e-23
7.66893e-22
1.875e-06
1.42431e-22
8.28339e-22
1.875e-06
2.84732e-22
8.24783e-22
1.875e-06
2.09089e-22
8.45696e-22
1.875e-06
2.27713e-22
8.0402e-22
1.875e-06
1.66446e-22
6.83237e-22
1.875e-06
1.21872e-22
6.02122e-22
1.875e-06
1.57546e-22
4.92713e-22
1.875e-06
1.9104e-22
4.87252e-22
1.875e-06
1.25842e-22
4.36839e-22
1.875e-06
4.49355e-23
2.93347e-22
1.875e-06
7.05889e-24
2.74976e-22
1.875e-06
8.39232e-23
3.27788e-22
1.875e-06
5.92143e-23
2.51433e-22
1.875e-06
7.12979e-23
1.59791e-22
1.875e-06
1.47866e-22
2.04119e-22
1.875e-06
9.03917e-23
1.39347e-22
1.875e-06
-2.14518e-23
-8.72748e-23
1.875e-06
-3.57206e-23
1.31695e-22
1.875e-06
-3.72344e-24
1.58856e-22
1.875e-06
7.24754e-23
1.06776e-22
1.875e-06
2.57428e-23
1.14999e-22
1.875e-06
-1.92791e-23
8.6537e-23
1.875e-06
-5.18068e-23
1.09545e-22
1.875e-06
-5.83411e-23
1.22407e-22
1.875e-06
-1.77877e-23
8.65688e-23
1.875e-06
-5.50103e-23
-6.31346e-23
1.875e-06
7.09102e-23
1.69842e-23
1.875e-06
1.31109e-22
1.31622e-22
1.875e-06
1.44899e-22
7.44561e-23
1.875e-06
9.79022e-23
-7.83547e-23
1.875e-06
7.50141e-23
-1.10901e-22
1.875e-06
6.01671e-23
-5.82016e-23
1.875e-06
-8.70617e-23
-4.6378e-23
-1.18865e-22
-8.27194e-23
1.875e-06
1.28858e-22
3.14082e-22
1.875e-06
6.68603e-23
5.83129e-22
1.875e-06
9.00719e-23
7.51001e-22
1.875e-06
1.89319e-22
8.88964e-22
1.875e-06
9.05491e-23
8.9228e-22
1.875e-06
1.76635e-22
8.43048e-22
1.875e-06
2.4243e-22
9.00927e-22
1.875e-06
9.70073e-23
8.41146e-22
1.875e-06
1.30663e-22
8.8352e-22
1.875e-06
2.66057e-22
7.69058e-22
1.875e-06
1.00133e-22
5.78004e-22
1.875e-06
3.24045e-23
6.07635e-22
1.875e-06
-4.52954e-23
4.36572e-22
1.875e-06
1.11938e-22
3.25964e-22
1.875e-06
1.00703e-22
4.74781e-22
1.875e-06
3.45118e-23
3.42864e-22
1.875e-06
5.0548e-23
3.54478e-22
1.875e-06
7.19852e-23
2.69768e-22
1.875e-06
2.02874e-22
2.28574e-22
1.875e-06
1.4676e-22
1.47137e-22
1.875e-06
8.49036e-23
9.9272e-23
1.875e-06
4.23977e-23
1.94964e-22
1.875e-06
-3.02044e-23
1.25946e-22
1.875e-06
4.3883e-23
1.89172e-22
1.875e-06
-6.96671e-23
2.08719e-22
1.875e-06
-7.41341e-23
4.7737e-23
1.875e-06
2.41081e-23
4.46928e-23
1.875e-06
3.18681e-23
9.54355e-23
1.875e-06
8.43748e-24
9.4549e-23
1.875e-06
-4.76654e-24
1.42587e-22
1.875e-06
-2.33722e-22
1.35836e-22
1.875e-06
-8.30443e-23
-3.50556e-23
1.875e-06
1.34258e-22
2.35469e-23
1.875e-06
3.87153e-23
1.07641e-22
1.875e-06
1.19538e-22
2.83327e-24
1.875e-06
4.97608e-23
-2.23391e-22
1.875e-06
1.0456e-23
-2.56214e-22
1.875e-06
-7.5042e-23
-1.45548e-22
1.875e-06
-1.33614e-22
-1.35831e-23
-9.96588e-23
-7.58484e-23
1.875e-06
-2.13285e-22
2.11433e-22
1.875e-06
-5.833e-23
6.70145e-22
1.875e-06
1.2468e-22
8.72021e-22
1.875e-06
1.70426e-22
8.94452e-22
1.875e-06
9.81707e-23
9.0862e-22
1.875e-06
1.62399e-22
8.70833e-22
1.875e-06
1.56934e-22
9.46868e-22
1.875e-06
1.30582e-22
8.63322e-22
1.875e-06
9.99472e-23
8.30106e-22
1.875e-06
3.48899e-23
6.51587e-22
1.875e-06
1.29751e-22
6.77783e-22
1.875e-06
-1.0564e-24
5.99308e-22
1.875e-06
3.73987e-23
5.50642e-22
1.875e-06
3.58564e-23
3.44795e-22
1.875e-06
1.06876e-22
3.62868e-22
1.875e-06
1.07256e-22
3.89621e-22
1.875e-06
1.81919e-22
4.28488e-22
1.875e-06
1.70312e-22
3.70806e-22
1.875e-06
-3.31386e-23
2.5888e-22
1.875e-06
1.42226e-23
2.21487e-22
1.875e-06
1.28079e-23
1.0447e-22
1.875e-06
1.2526e-23
2.04608e-22
1.875e-06
8.20147e-23
2.31262e-22
1.875e-06
-2.32702e-24
1.6271e-22
1.875e-06
1.06821e-22
1.64472e-22
1.875e-06
1.5688e-23
5.8093e-23
1.875e-06
-1.1392e-22
-7.48017e-24
1.875e-06
-2.13711e-23
5.49888e-23
1.875e-06
2.44848e-23
5.47312e-23
1.875e-06
1.50012e-23
1.12639e-22
1.875e-06
6.41513e-23
2.17411e-22
1.875e-06
-4.03005e-23
8.00294e-23
1.875e-06
-1.27458e-22
-4.07686e-23
1.875e-06
-4.84183e-23
-3.97146e-23
1.875e-06
-7.18914e-24
-1.3608e-22
1.875e-06
2.02028e-22
-2.4991e-22
1.875e-06
2.20128e-23
-2.21479e-22
1.875e-06
-1.1775e-22
-1.20861e-22
1.875e-06
-8.85181e-23
1.35362e-23
-5.68547e-23
1.31875e-23
1.875e-06
-8.29314e-23
4.72441e-22
1.875e-06
4.53399e-23
6.75115e-22
1.875e-06
1.21189e-22
8.74636e-22
1.875e-06
1.99245e-22
9.62165e-22
1.875e-06
1.54985e-22
9.78712e-22
1.875e-06
1.35212e-22
8.83775e-22
1.875e-06
2.45873e-22
9.73426e-22
1.875e-06
6.97968e-23
9.51195e-22
1.875e-06
8.63002e-23
7.25014e-22
1.875e-06
1.52635e-22
6.48e-22
1.875e-06
1.36639e-22
6.68935e-22
1.875e-06
4.53745e-23
5.99737e-22
1.875e-06
3.68853e-23
5.90061e-22
1.875e-06
9.29188e-24
4.34535e-22
1.875e-06
6.58451e-23
3.95266e-22
1.875e-06
1.65478e-22
3.61691e-22
1.875e-06
2.01232e-22
4.21826e-22
1.875e-06
-5.93031e-23
3.62005e-22
1.875e-06
-6.84985e-23
2.21264e-22
1.875e-06
1.81748e-24
1.99961e-22
1.875e-06
4.6584e-23
2.22292e-22
1.875e-06
2.1066e-22
2.63323e-22
1.875e-06
2.57657e-23
1.97473e-22
1.875e-06
2.03816e-23
2.43716e-22
1.875e-06
3.26482e-23
1.99196e-22
1.875e-06
-1.59422e-23
6.13286e-23
1.875e-06
-7.8377e-23
4.01043e-23
1.875e-06
-7.19157e-23
6.6272e-23
1.875e-06
2.29823e-23
3.42537e-23
1.875e-06
3.8431e-23
1.24252e-22
1.875e-06
6.11939e-23
1.50273e-22
1.875e-06
-6.00881e-23
7.33436e-23
1.875e-06
-1.7405e-23
3.62372e-23
1.875e-06
-1.47294e-22
-5.80421e-23
1.875e-06
-3.79447e-23
-9.4111e-23
1.875e-06
1.754e-23
-3.16851e-22
1.875e-06
1.96413e-23
-2.39632e-22
1.875e-06
5.51756e-23
-9.64693e-23
1.875e-06
1.32309e-22
-1.01821e-22
2.60196e-24
-1.27181e-22
1.875e-06
1.26568e-22
5.27227e-22
1.875e-06
1.3247e-22
7.77391e-22
1.875e-06
1.03085e-22
9.21525e-22
1.875e-06
8.79072e-23
9.21556e-22
1.875e-06
1.60479e-22
1.01723e-21
1.875e-06
2.21024e-22
8.85849e-22
1.875e-06
1.80293e-23
8.54099e-22
1.875e-06
1.3469e-22
9.59269e-22
1.875e-06
2.94722e-23
7.74159e-22
1.875e-06
3.0853e-23
5.97926e-22
1.875e-06
2.29219e-22
6.24719e-22
1.875e-06
1.47496e-22
6.81079e-22
1.875e-06
9.73045e-23
6.14286e-22
1.875e-06
1.12367e-22
5.58741e-22
1.875e-06
1.11137e-22
5.39227e-22
1.875e-06
-4.42267e-23
4.49781e-22
1.875e-06
-7.37824e-23
2.46633e-22
1.875e-06
3.31664e-23
3.68916e-22
1.875e-06
1.67495e-22
3.29479e-22
1.875e-06
7.44097e-24
2.10057e-22
1.875e-06
7.6502e-23
2.41441e-22
1.875e-06
1.7167e-23
1.03532e-22
1.875e-06
-1.59998e-23
1.92592e-22
1.875e-06
1.41479e-24
3.36744e-22
1.875e-06
4.92995e-23
1.63191e-22
1.875e-06
-8.27509e-23
3.20703e-23
1.875e-06
-1.08339e-22
5.214e-23
1.875e-06
-5.70928e-24
9.71602e-23
1.875e-06
8.00492e-23
1.57445e-23
1.875e-06
-4.86202e-23
8.90902e-23
1.875e-06
-1.03832e-22
9.75632e-23
1.875e-06
1.82719e-23
1.18026e-22
1.875e-06
-6.26077e-23
-5.27031e-23
1.875e-06
2.20057e-24
2.35394e-23
1.875e-06
-9.52503e-23
-8.53584e-23
1.875e-06
-1.55904e-22
-2.35013e-22
1.875e-06
-5.00679e-23
-2.03524e-22
1.875e-06
6.51992e-23
-1.25753e-22
1.875e-06
1.11874e-22
-6.67659e-23
1.45915e-22
-3.64226e-23
1.875e-06
1.71178e-22
5.49645e-22
1.875e-06
1.33351e-22
7.93005e-22
1.875e-06
1.17182e-22
8.90979e-22
1.875e-06
9.23072e-23
9.15912e-22
1.875e-06
1.23944e-22
9.58575e-22
1.875e-06
6.00095e-23
8.97146e-22
1.875e-06
1.25757e-22
9.6548e-22
1.875e-06
1.10238e-22
8.87705e-22
1.875e-06
1.90255e-22
7.82461e-22
1.875e-06
5.81454e-23
6.61723e-22
1.875e-06
1.94065e-23
5.41652e-22
1.875e-06
1.1623e-22
6.48513e-22
1.875e-06
1.36858e-22
7.2689e-22
1.875e-06
1.04689e-22
5.25726e-22
1.875e-06
-3.74668e-23
4.83433e-22
1.875e-06
-3.79367e-23
4.79137e-22
1.875e-06
-6.27308e-23
4.48854e-22
1.875e-06
6.48545e-23
3.55168e-22
1.875e-06
1.94945e-22
2.01929e-22
1.875e-06
2.03929e-22
2.8015e-22
1.875e-06
3.94139e-23
2.3146e-22
1.875e-06
-7.57711e-23
1.75855e-22
1.875e-06
-3.57912e-23
1.73659e-22
1.875e-06
-7.19212e-23
1.79916e-22
1.875e-06
-1.20113e-22
1.09794e-22
1.875e-06
-1.27353e-23
1.20203e-22
1.875e-06
2.91969e-23
1.17325e-22
1.875e-06
1.11753e-23
6.8014e-23
1.875e-06
-1.19332e-22
-8.65257e-23
1.875e-06
-1.24466e-22
1.62884e-22
1.875e-06
2.73869e-23
1.55968e-22
1.875e-06
9.34257e-24
2.6245e-23
1.875e-06
1.4674e-24
-1.02997e-23
1.875e-06
6.27202e-24
-1.05888e-24
1.875e-06
-7.63558e-23
-5.59078e-23
1.875e-06
-1.36574e-22
-2.1885e-22
1.875e-06
-2.93355e-23
-1.84837e-22
1.875e-06
7.965e-23
-8.56276e-23
1.875e-06
1.0115e-22
-1.0121e-22
7.32889e-23
-2.47914e-22
1.875e-06
1.58961e-22
4.93828e-22
1.875e-06
2.10171e-22
7.85068e-22
1.875e-06
8.91776e-23
7.91598e-22
1.875e-06
3.6268e-23
9.72392e-22
1.875e-06
-3.83793e-23
1.05347e-21
1.875e-06
-3.65053e-23
9.12727e-22
1.875e-06
6.98424e-23
8.79807e-22
1.875e-06
7.58184e-23
8.59629e-22
1.875e-06
9.51905e-23
7.49135e-22
1.875e-06
1.58047e-22
6.85439e-22
1.875e-06
7.67897e-24
5.88491e-22
1.875e-06
-2.05846e-24
6.77223e-22
1.875e-06
1.3944e-22
6.31561e-22
1.875e-06
1.87737e-22
5.12923e-22
1.875e-06
6.24138e-23
5.72628e-22
1.875e-06
-9.66861e-24
4.55532e-22
1.875e-06
-5.97009e-23
3.68384e-22
1.875e-06
-1.90217e-23
3.51295e-22
1.875e-06
4.76332e-23
2.79406e-22
1.875e-06
6.82919e-23
2.33958e-22
1.875e-06
1.1469e-22
2.7667e-22
1.875e-06
8.04008e-23
1.81414e-22
1.875e-06
1.51493e-23
1.68681e-22
1.875e-06
6.49067e-23
3.05972e-22
1.875e-06
-1.01224e-22
1.64988e-22
1.875e-06
-4.87119e-23
2.35791e-24
1.875e-06
6.49331e-23
2.69742e-23
1.875e-06
-1.78508e-23
-5.28522e-23
1.875e-06
-1.65019e-22
-3.25008e-23
1.875e-06
-1.96132e-22
9.60487e-23
1.875e-06
-1.47819e-22
8.7921e-23
1.875e-06
6.97024e-24
1.26221e-23
1.875e-06
1.48387e-23
-1.95712e-23
1.875e-06
1.67628e-23
6.62187e-23
1.875e-06
-5.69586e-23
7.81477e-23
1.875e-06
-1.67961e-23
-1.683e-22
1.875e-06
4.32019e-23
-1.70698e-22
1.875e-06
1.15868e-22
-1.10089e-22
1.875e-06
1.30016e-23
-1.81762e-22
-1.13737e-23
-3.43283e-22
1.875e-06
-1.4232e-22
4.25718e-22
1.875e-06
1.74975e-23
7.1626e-22
1.875e-06
1.01352e-22
8.39187e-22
1.875e-06
2.22695e-23
9.93574e-22
1.875e-06
-3.95287e-23
1.0436e-21
1.875e-06
-1.28687e-23
9.82362e-22
1.875e-06
1.27033e-22
9.04871e-22
1.875e-06
1.80218e-22
8.58979e-22
1.875e-06
1.29281e-22
7.47318e-22
1.875e-06
-1.33027e-23
6.72738e-22
1.875e-06
-4.09909e-24
6.51123e-22
1.875e-06
7.44485e-23
6.68306e-22
1.875e-06
7.72281e-23
5.9426e-22
1.875e-06
-1.4135e-23
4.72018e-22
1.875e-06
-8.07014e-23
6.13433e-22
1.875e-06
-3.14836e-23
4.99804e-22
1.875e-06
2.17584e-23
4.3934e-22
1.875e-06
1.70311e-22
4.07409e-22
1.875e-06
1.30382e-22
2.71781e-22
1.875e-06
4.27399e-23
1.22773e-22
1.875e-06
1.45137e-22
2.37389e-22
1.875e-06
-2.06302e-24
2.32247e-22
1.875e-06
-6.28979e-23
1.76968e-22
1.875e-06
-7.31961e-23
1.4189e-22
1.875e-06
-1.29775e-22
2.06187e-22
1.875e-06
-6.60396e-23
-6.45056e-23
1.875e-06
4.61238e-23
-1.67348e-22
1.875e-06
5.61849e-24
-1.24315e-22
1.875e-06
-1.18683e-22
-3.84427e-23
1.875e-06
-8.74354e-23
1.90972e-22
1.875e-06
-6.27383e-23
1.93782e-22
1.875e-06
-2.14682e-23
7.58741e-23
1.875e-06
1.06728e-23
3.61068e-23
1.875e-06
-3.20633e-23
2.74231e-23
1.875e-06
-3.76778e-23
-1.89054e-23
1.875e-06
-1.02958e-24
-1.23673e-22
1.875e-06
8.61561e-23
-1.73703e-22
1.875e-06
7.78089e-23
-1.83522e-22
1.875e-06
9.56298e-23
-2.43254e-22
1.60074e-23
-3.00373e-22
1.875e-06
-5.80599e-23
6.39022e-22
1.875e-06
-1.97863e-22
7.53071e-22
1.875e-06
-4.57076e-23
7.93237e-22
1.875e-06
-9.22381e-24
9.5503e-22
1.875e-06
8.56355e-23
1.05155e-21
1.875e-06
-3.19598e-24
9.50606e-22
1.875e-06
-9.47796e-25
8.65823e-22
1.875e-06
7.71789e-23
8.39143e-22
1.875e-06
-5.2266e-23
7.30806e-22
1.875e-06
-1.04578e-22
7.04638e-22
1.875e-06
7.97497e-23
7.05974e-22
1.875e-06
1.55534e-22
6.88558e-22
1.875e-06
1.40738e-23
6.72135e-22
1.875e-06
-6.45781e-23
5.37228e-22
1.875e-06
5.336e-23
5.89533e-22
1.875e-06
-2.47085e-24
5.20368e-22
1.875e-06
-1.38235e-23
3.43005e-22
1.875e-06
5.17673e-23
2.87127e-22
1.875e-06
5.22809e-23
3.13282e-22
1.875e-06
1.51306e-22
2.42844e-22
1.875e-06
6.55783e-23
1.66158e-22
1.875e-06
4.44864e-23
3.09351e-22
1.875e-06
-9.19702e-23
3.42153e-22
1.875e-06
-2.31036e-22
1.08634e-22
1.875e-06
-1.28272e-22
1.0031e-22
1.875e-06
-2.07709e-23
2.07512e-24
1.875e-06
7.67451e-23
-2.0445e-22
1.875e-06
4.42266e-23
-2.04571e-22
1.875e-06
-1.06657e-22
-4.40327e-24
1.875e-06
-5.99901e-23
9.00759e-23
1.875e-06
5.3006e-23
1.5226e-22
1.875e-06
1.02231e-22
5.37037e-23
1.875e-06
-1.19939e-22
5.83355e-24
1.875e-06
-6.33692e-23
2.81411e-23
1.875e-06
-7.2052e-24
4.47085e-23
1.875e-06
-2.00767e-23
-7.53093e-23
1.875e-06
1.13858e-22
-2.11055e-22
1.875e-06
1.11112e-22
-2.14328e-22
1.875e-06
-1.33513e-23
-2.64591e-22
4.43578e-23
-3.2612e-22
1.875e-06
-5.79217e-23
5.43253e-22
1.875e-06
-1.14425e-22
8.21495e-22
1.875e-06
-8.28703e-23
8.54001e-22
1.875e-06
-1.00568e-22
1.00917e-21
1.875e-06
-8.12694e-23
9.95421e-22
1.875e-06
2.89324e-23
1.00358e-21
1.875e-06
-7.03354e-24
8.77941e-22
1.875e-06
-3.94427e-25
8.32404e-22
1.875e-06
5.89013e-24
7.97136e-22
1.875e-06
6.64875e-23
7.7468e-22
1.875e-06
1.82214e-23
6.95686e-22
1.875e-06
1.22033e-22
6.69206e-22
1.875e-06
-3.15737e-23
7.64552e-22
1.875e-06
-3.03742e-23
6.55039e-22
1.875e-06
-5.83642e-23
5.41654e-22
1.875e-06
-2.3818e-23
3.75074e-22
1.875e-06
2.7227e-23
3.72125e-22
1.875e-06
-4.90434e-23
3.54412e-22
1.875e-06
6.09759e-23
3.19922e-22
1.875e-06
1.26796e-22
2.07316e-22
1.875e-06
7.26645e-23
1.82977e-22
1.875e-06
1.34064e-23
3.12631e-22
1.875e-06
-5.54616e-23
3.09081e-22
1.875e-06
-1.64059e-22
1.66253e-22
1.875e-06
-1.12565e-22
9.21467e-23
1.875e-06
-9.66651e-23
-8.41125e-24
1.875e-06
-8.3212e-23
-2.24074e-22
1.875e-06
-3.08894e-23
-2.81649e-22
1.875e-06
-1.89684e-23
6.39648e-23
1.875e-06
-1.62933e-23
8.28618e-23
1.875e-06
6.35259e-23
-5.05128e-24
1.875e-06
-8.1229e-23
-9.61029e-23
1.875e-06
-8.61213e-23
5.31665e-23
1.875e-06
-5.11185e-24
1.0225e-22
1.875e-06
1.04923e-22
8.57127e-23
1.875e-06
9.95513e-24
4.56322e-24
1.875e-06
-4.07091e-24
-2.2894e-22
1.875e-06
-3.55757e-24
-2.61544e-22
1.875e-06
2.8902e-23
-2.18224e-22
7.37617e-23
-2.73563e-22
1.875e-06
-1.44014e-22
4.35017e-22
1.875e-06
-7.14248e-23
8.08899e-22
1.875e-06
2.6974e-23
9.15771e-22
1.875e-06
-2.63434e-23
1.01504e-21
1.875e-06
-8.17443e-23
1.09199e-21
1.875e-06
-3.52543e-23
1.06772e-21
1.875e-06
-2.51063e-23
9.18952e-22
1.875e-06
-6.30693e-23
8.45588e-22
1.875e-06
8.65478e-24
8.05522e-22
1.875e-06
3.07924e-23
7.84677e-22
1.875e-06
4.993e-23
7.03461e-22
1.875e-06
1.76344e-23
6.72505e-22
1.875e-06
7.09538e-23
8.29842e-22
1.875e-06
1.10268e-24
7.01317e-22
1.875e-06
-9.4818e-23
5.55486e-22
1.875e-06
6.66312e-23
3.8862e-22
1.875e-06
7.82926e-23
2.69593e-22
1.875e-06
-4.36619e-23
3.71742e-22
1.875e-06
-4.58462e-23
4.19555e-22
1.875e-06
1.00639e-22
2.97667e-22
1.875e-06
4.48688e-23
2.50923e-22
1.875e-06
5.30518e-23
2.34114e-22
1.875e-06
-1.00708e-22
1.39482e-22
1.875e-06
-9.14916e-23
1.70398e-22
1.875e-06
-1.03388e-22
1.00894e-22
1.875e-06
-1.36093e-23
3.783e-23
1.875e-06
-8.49029e-23
-9.87e-23
1.875e-06
-1.6487e-22
-1.54526e-22
1.875e-06
-4.59197e-23
5.7934e-23
1.875e-06
7.37692e-23
7.3191e-23
1.875e-06
-6.25963e-23
-1.43645e-22
1.875e-06
-7.08201e-23
-1.15118e-22
1.875e-06
8.17766e-23
1.15154e-22
1.875e-06
-3.10135e-23
1.52475e-22
1.875e-06
-7.47508e-23
9.12648e-24
1.875e-06
8.52324e-23
3.3523e-23
1.875e-06
-1.24833e-23
-1.93294e-22
1.875e-06
-5.85543e-23
-2.44925e-22
1.875e-06
-8.49919e-23
-3.11995e-22
-2.95855e-23
-4.26228e-22
1.875e-06
-9.54838e-23
5.12397e-22
1.875e-06
-1.5185e-22
8.11658e-22
1.875e-06
-2.13293e-22
9.16463e-22
1.875e-06
2.55557e-23
1.07969e-21
1.875e-06
1.07835e-22
1.10887e-21
1.875e-06
-4.51463e-23
1.0422e-21
1.875e-06
-1.41285e-22
9.32164e-22
1.875e-06
-1.13267e-22
8.19302e-22
1.875e-06
-8.75248e-24
8.93165e-22
1.875e-06
1.14628e-23
9.06824e-22
1.875e-06
1.99233e-23
6.62776e-22
1.875e-06
2.42281e-24
6.76267e-22
1.875e-06
1.23385e-23
7.68656e-22
1.875e-06
-1.72916e-24
7.35225e-22
1.875e-06
4.87311e-23
6.65296e-22
1.875e-06
-9.17508e-24
4.15817e-22
1.875e-06
8.06642e-23
2.90191e-22
1.875e-06
2.23455e-22
3.93852e-22
1.875e-06
2.27975e-22
3.41704e-22
1.875e-06
-3.78092e-23
2.2802e-22
1.875e-06
-1.45477e-22
2.64104e-22
1.875e-06
-1.72503e-22
2.57224e-22
1.875e-06
-1.41468e-23
1.8966e-22
1.875e-06
-2.63475e-23
1.7237e-22
1.875e-06
2.35909e-23
1.72843e-22
1.875e-06
-1.0324e-22
3.37312e-23
1.875e-06
-1.09883e-22
3.29653e-23
1.875e-06
-1.19763e-22
-7.29031e-23
1.875e-06
-5.66189e-23
-1.56007e-23
1.875e-06
2.93238e-23
-6.90424e-24
1.875e-06
1.91672e-23
-8.90612e-23
1.875e-06
-2.77593e-23
-1.09881e-22
1.875e-06
-8.63273e-24
-5.55645e-23
1.875e-06
3.99015e-23
1.04074e-22
1.875e-06
-1.93321e-23
4.35985e-23
1.875e-06
-4.85151e-23
4.19228e-23
1.875e-06
-1.15305e-22
-1.63404e-22
1.875e-06
-7.30445e-23
-2.88087e-22
1.875e-06
1.3939e-22
-3.11206e-22
3.96322e-23
-3.43459e-22
1.875e-06
-6.51596e-23
5.57567e-22
1.875e-06
-1.07114e-22
9.02261e-22
1.875e-06
-1.46514e-23
9.71759e-22
1.875e-06
1.17419e-23
1.06372e-21
1.875e-06
1.42049e-23
1.04333e-21
1.875e-06
-9.29235e-23
1.01142e-21
1.875e-06
-1.8655e-22
9.60792e-22
1.875e-06
-6.51488e-23
9.4674e-22
1.875e-06
4.31357e-24
9.3092e-22
1.875e-06
4.50354e-23
8.97352e-22
1.875e-06
-2.62738e-23
7.32857e-22
1.875e-06
4.22561e-23
7.18942e-22
1.875e-06
-2.0949e-23
8.0638e-22
1.875e-06
-2.40312e-23
7.40491e-22
1.875e-06
1.14154e-22
6.19912e-22
1.875e-06
2.75698e-23
4.87762e-22
1.875e-06
-1.12305e-22
3.07701e-22
1.875e-06
-6.87036e-23
2.33972e-22
1.875e-06
5.89516e-23
1.39445e-22
1.875e-06
8.6747e-24
1.60526e-22
1.875e-06
-6.14771e-24
2.8006e-22
1.875e-06
9.68766e-24
4.03631e-22
1.875e-06
1.53399e-24
2.75882e-22
1.875e-06
9.14695e-24
1.19724e-22
1.875e-06
2.401e-23
1.91888e-22
1.875e-06
-1.71427e-23
1.1497e-22
1.875e-06
-1.31864e-23
9.26117e-23
1.875e-06
3.17597e-24
1.43013e-23
1.875e-06
-9.78218e-23
-8.54715e-23
1.875e-06
1.34206e-23
-8.23947e-24
1.875e-06
-9.9746e-24
-1.0805e-22
1.875e-06
-3.31558e-23
-6.0086e-23
1.875e-06
-9.30814e-23
-2.74199e-23
1.875e-06
-1.09912e-23
9.73314e-23
1.875e-06
-3.18306e-24
-7.82032e-24
1.875e-06
-4.51248e-23
-8.5823e-23
1.875e-06
3.08111e-23
-5.48744e-23
1.875e-06
-3.75073e-23
-1.4604e-22
1.875e-06
-9.24847e-23
-3.42182e-22
-6.71232e-23
-2.94555e-22
1.875e-06
9.0873e-23
6.61693e-22
1.875e-06
7.5773e-23
9.46991e-22
1.875e-06
1.20016e-24
8.80557e-22
1.875e-06
-9.23246e-23
9.91916e-22
1.875e-06
1.61683e-24
1.02601e-21
1.875e-06
-2.9418e-23
1.05473e-21
1.875e-06
-1.19493e-22
9.99251e-22
1.875e-06
-1.89073e-22
8.63636e-22
1.875e-06
-1.55472e-22
8.50551e-22
1.875e-06
5.93329e-23
9.86767e-22
1.875e-06
-1.54969e-22
7.89042e-22
1.875e-06
3.7682e-22
7.54632e-22
1.875e-06
5.60405e-23
7.99933e-22
1.875e-06
9.95552e-24
7.30791e-22
1.875e-06
4.95256e-24
6.77297e-22
1.875e-06
-5.85024e-23
4.52961e-22
1.875e-06
-3.99722e-23
2.59027e-22
1.875e-06
-1.06677e-22
1.45863e-22
1.875e-06
-1.39358e-22
1.82608e-22
1.875e-06
-2.38893e-23
2.16729e-22
1.875e-06
-5.87285e-24
2.28892e-22
1.875e-06
-2.04122e-23
3.17894e-22
1.875e-06
-7.51467e-23
3.99476e-22
1.875e-06
3.67845e-23
1.3623e-22
1.875e-06
1.43702e-22
2.05335e-22
1.875e-06
5.90099e-23
1.82306e-22
1.875e-06
-1.42647e-23
9.48582e-24
1.875e-06
2.56292e-23
-5.4319e-23
1.875e-06
-1.36586e-22
-4.71484e-23
1.875e-06
1.82818e-22
-8.50439e-23
1.875e-06
-4.84523e-23
9.69149e-24
1.875e-06
-8.82862e-23
-5.78054e-23
1.875e-06
4.85989e-23
-1.06115e-23
1.875e-06
-7.75547e-23
1.74002e-23
1.875e-06
1.70775e-23
5.67539e-23
1.875e-06
9.25093e-23
1.21326e-23
1.875e-06
-6.20468e-23
-7.81821e-23
1.875e-06
2.23682e-23
-2.33261e-22
1.875e-06
-1.32475e-22
-3.87665e-22
-1.02537e-22
-2.82679e-22
1.875e-06
1.7472e-22
5.43072e-22
1.875e-06
2.1358e-22
8.67949e-22
1.875e-06
-4.46874e-23
8.62306e-22
1.875e-06
-6.40475e-23
9.55159e-22
1.875e-06
-8.74105e-23
1.06105e-21
1.875e-06
-1.93599e-25
1.06552e-21
1.875e-06
3.54367e-23
1.02045e-21
1.875e-06
-1.22364e-22
8.67133e-22
1.875e-06
-9.06004e-23
8.81568e-22
1.875e-06
4.79569e-23
9.71948e-22
1.875e-06
1.18655e-22
8.93892e-22
1.875e-06
-6.1132e-23
8.12681e-22
1.875e-06
-6.83546e-23
8.1071e-22
1.875e-06
1.41974e-22
7.20454e-22
1.875e-06
-9.46703e-25
5.74153e-22
1.875e-06
-2.97206e-23
3.83974e-22
1.875e-06
-1.62882e-22
1.70516e-22
1.875e-06
-8.70557e-23
1.72848e-22
1.875e-06
-1.25288e-22
2.49507e-22
1.875e-06
-1.01065e-22
2.50952e-22
1.875e-06
-2.45537e-23
2.83759e-22
1.875e-06
-1.54186e-22
2.92346e-22
1.875e-06
3.1032e-23
4.17804e-22
1.875e-06
1.00713e-22
2.96678e-22
1.875e-06
2.22072e-23
1.12107e-22
1.875e-06
8.33153e-23
1.45469e-22
1.875e-06
1.41225e-22
1.29153e-23
1.875e-06
1.46773e-22
-1.30711e-22
1.875e-06
1.12214e-22
-1.43133e-23
1.875e-06
-1.12307e-22
-1.60138e-22
1.875e-06
-2.87634e-23
-6.83797e-23
1.875e-06
2.53914e-24
-6.83868e-23
1.875e-06
3.57753e-23
-6.61124e-23
1.875e-06
-1.2591e-23
1.60085e-22
1.875e-06
1.41498e-23
2.36879e-23
1.875e-06
1.04156e-22
-7.34867e-23
1.875e-06
3.30647e-23
2.42145e-23
1.875e-06
-9.98439e-23
-1.25075e-22
1.875e-06
-1.60379e-22
-3.66537e-22
-1.90897e-22
-3.65408e-22
1.875e-06
9.81717e-23
4.38779e-22
1.875e-06
1.07366e-22
7.73208e-22
1.875e-06
-3.93549e-24
8.64924e-22
1.875e-06
-3.66185e-23
9.97592e-22
1.875e-06
-5.21372e-23
1.02373e-21
1.875e-06
4.51403e-23
1.0234e-21
1.875e-06
-4.1931e-23
9.70406e-22
1.875e-06
4.247e-23
1.00196e-21
1.875e-06
4.92676e-24
9.56266e-22
1.875e-06
-6.58393e-23
9.99227e-22
1.875e-06
-1.19165e-22
8.57062e-22
1.875e-06
-2.78884e-23
7.55556e-22
1.875e-06
1.53355e-23
7.8748e-22
1.875e-06
-1.7191e-22
6.63658e-22