/*--------------------------------*- C++ -*----------------------------------*\
| =========                 |                                                 |
| \\      /  F ield         | OpenFOAM: The Open Source CFD Toolbox           |
|  \\    /   O peration     | Version:  v2012                                 |
|   \\  /    A nd           | Website:  www.openfoam.com                      |
|    \\/     M anipulation  |                                                 |
\*---------------------------------------------------------------------------*/
FoamFile
{
    version     2.0;
    format      ascii;
    class       volVectorField;
    location    "18";
    object      U;
}
// * * * * * * * * * * * * * * * * * * * * * * * * * * * * * * * * * * * * * //

dimensions      [0 1 -1 0 0 0 0];


internalField   nonuniform List<vector> 
64000
(
(0.003 1.97592e-19 2.03945e-19)
(0.003 3.43875e-19 3.14787e-19)
(0.003 3.69034e-19 3.85904e-19)
(0.003 3.55507e-19 4.20625e-19)
(0.003 4.26387e-19 3.72584e-19)
(0.003 4.07321e-19 2.90648e-19)
(0.003 3.09612e-19 2.27113e-19)
(0.003 1.57965e-19 1.88421e-19)
(0.003 2.32861e-19 3.15118e-19)
(0.003 3.08733e-19 2.58177e-19)
(0.003 2.3736e-19 2.01383e-19)
(0.003 2.55933e-19 2.97902e-19)
(0.003 2.21548e-19 2.33772e-19)
(0.003 2.34869e-19 2.00569e-19)
(0.003 2.19365e-19 2.44632e-19)
(0.003 2.13301e-19 2.25057e-19)
(0.003 1.26294e-19 1.51271e-19)
(0.003 1.31448e-20 1.36832e-19)
(0.003 8.76174e-20 -5.74445e-20)
(0.003 2.75761e-20 -1.85918e-19)
(0.003 -7.40313e-20 -1.17397e-19)
(0.003 1.23228e-19 8.08803e-20)
(0.003 2.45139e-19 1.2543e-19)
(0.003 2.90586e-19 9.32736e-20)
(0.003 3.14133e-19 1.39944e-19)
(0.003 1.46888e-19 1.32382e-19)
(0.003 3.41985e-20 1.15941e-19)
(0.003 9.62746e-20 1.17769e-19)
(0.003 1.2134e-19 1.51735e-19)
(0.003 -2.56223e-20 1.91906e-19)
(0.003 -1.37119e-19 2.51531e-19)
(0.003 -4.53088e-20 1.31261e-19)
(0.003 2.09914e-19 4.40364e-20)
(0.003 1.193e-19 1.24829e-19)
(0.003 2.77572e-20 4.82441e-20)
(0.003 -5.8123e-20 -1.17845e-19)
(0.003 -2.26826e-19 -1.82048e-19)
(0.003 -2.22004e-19 -6.74763e-20)
(0.003 -7.75053e-20 1.40726e-19)
(0.003 -8.14941e-20 9.79584e-20)
(0.003 2.34752e-19 3.13047e-19)
(0.003 3.00932e-19 6.33077e-19)
(0.003 5.29696e-19 8.10662e-19)
(0.003 4.64422e-19 8.02582e-19)
(0.003 3.69041e-19 7.09618e-19)
(0.003 5.02332e-19 7.34551e-19)
(0.003 4.22331e-19 6.27593e-19)
(0.003 3.73942e-19 4.72158e-19)
(0.003 3.53051e-19 5.76223e-19)
(0.003 3.05385e-19 6.88548e-19)
(0.003 2.98028e-19 6.00689e-19)
(0.003 2.75968e-19 5.35835e-19)
(0.003 2.21799e-19 4.69398e-19)
(0.003 1.12013e-19 4.23952e-19)
(0.003 4.43564e-20 4.36338e-19)
(0.003 7.35945e-20 3.4885e-19)
(0.003 2.9114e-19 2.24311e-19)
(0.003 2.42327e-19 1.75597e-19)
(0.003 2.30256e-19 2.47984e-20)
(0.003 2.24223e-19 -1.05649e-19)
(0.003 4.86751e-20 -6.12539e-20)
(0.003 -3.57563e-20 1.9382e-19)
(0.003 1.89247e-19 2.70268e-19)
(0.003 2.88044e-19 3.13244e-19)
(0.003 8.88858e-20 2.62201e-19)
(0.003 7.6759e-20 1.60295e-19)
(0.003 1.31758e-19 7.96367e-20)
(0.003 8.93502e-20 1.02891e-19)
(0.003 -1.24759e-20 1.91282e-19)
(0.003 -5.0014e-20 1.25159e-19)
(0.003 -1.35367e-19 1.27011e-19)
(0.003 -1.49819e-21 1.46914e-19)
(0.003 1.01211e-19 2.16717e-19)
(0.003 -1.67999e-20 1.35554e-19)
(0.003 -8.85515e-20 1.49828e-19)
(0.003 -1.86212e-19 -4.50685e-21)
(0.003 -2.10506e-19 -2.29665e-19)
(0.003 -8.20065e-20 -4.62266e-20)
(0.003 6.26014e-20 1.09224e-19)
(0.003 6.9497e-20 2.80855e-20)
(0.003 1.68329e-19 3.92722e-19)
(0.003 2.15e-19 6.94177e-19)
(0.003 2.97205e-19 9.39726e-19)
(0.003 3.93338e-19 9.89419e-19)
(0.003 3.7818e-19 8.42022e-19)
(0.003 3.83486e-19 7.96821e-19)
(0.003 3.31196e-19 7.5474e-19)
(0.003 3.58936e-19 7.52912e-19)
(0.003 3.76621e-19 8.9371e-19)
(0.003 3.27894e-19 8.16498e-19)
(0.003 2.89231e-19 6.62349e-19)
(0.003 2.37496e-19 6.07247e-19)
(0.003 2.75638e-19 4.76936e-19)
(0.003 1.68687e-19 4.72107e-19)
(0.003 1.2307e-19 4.37666e-19)
(0.003 5.13898e-20 3.74897e-19)
(0.003 8.82707e-20 3.71424e-19)
(0.003 1.94548e-19 2.36718e-19)
(0.003 2.03676e-19 -3.89856e-20)
(0.003 1.50014e-19 -7.88656e-20)
(0.003 -2.14414e-20 1.36428e-19)
(0.003 2.49348e-20 3.04686e-19)
(0.003 2.04461e-19 3.16163e-19)
(0.003 1.76355e-19 3.01051e-19)
(0.003 5.75335e-20 2.52878e-19)
(0.003 1.37188e-19 1.93462e-19)
(0.003 1.03981e-19 1.43076e-19)
(0.003 -4.58816e-20 1.45539e-19)
(0.003 -2.05965e-20 1.76371e-19)
(0.003 9.76705e-20 2.19769e-19)
(0.003 1.64935e-20 1.98059e-19)
(0.003 -6.86703e-21 1.81648e-19)
(0.003 -4.86249e-20 1.61061e-19)
(0.003 -1.26136e-19 5.22089e-20)
(0.003 -1.8319e-19 1.4511e-19)
(0.003 -2.51966e-19 7.76169e-20)
(0.003 -1.34165e-19 -8.7896e-20)
(0.003 8.47454e-20 -5.65343e-21)
(0.003 1.47758e-19 4.49256e-20)
(0.003 2.03145e-19 -3.55056e-20)
(0.003 3.60546e-19 4.99809e-19)
(0.003 3.2579e-19 8.43472e-19)
(0.003 1.84145e-19 9.85159e-19)
(0.003 2.42285e-19 1.04039e-18)
(0.003 3.5962e-19 1.00641e-18)
(0.003 3.40221e-19 9.93035e-19)
(0.003 2.88693e-19 8.49993e-19)
(0.003 2.23088e-19 7.70967e-19)
(0.003 2.16668e-19 8.91322e-19)
(0.003 2.99647e-19 8.81382e-19)
(0.003 3.1378e-19 7.85245e-19)
(0.003 2.58123e-19 7.59889e-19)
(0.003 2.01957e-19 6.28232e-19)
(0.003 1.20424e-19 4.79621e-19)
(0.003 2.68929e-19 4.94378e-19)
(0.003 3.0653e-19 4.02908e-19)
(0.003 9.37635e-20 3.20427e-19)
(0.003 -6.53966e-20 2.79566e-19)
(0.003 -6.64214e-20 1.69377e-20)
(0.003 4.07773e-20 -1.11435e-19)
(0.003 7.50972e-21 1.61226e-19)
(0.003 1.41788e-19 3.75428e-19)
(0.003 2.6213e-19 4.29008e-19)
(0.003 1.70284e-19 3.90103e-19)
(0.003 1.18827e-19 2.80374e-19)
(0.003 6.45002e-20 1.95877e-19)
(0.003 -1.74566e-20 7.713e-20)
(0.003 -3.4106e-20 1.67101e-21)
(0.003 6.00025e-20 1.94683e-19)
(0.003 4.68523e-20 3.6428e-19)
(0.003 3.34739e-21 1.81376e-19)
(0.003 -5.54026e-20 8.45745e-20)
(0.003 -8.90015e-20 1.65325e-19)
(0.003 -9.86886e-20 1.46988e-19)
(0.003 -8.93895e-20 1.42692e-19)
(0.003 -6.8227e-20 7.32036e-20)
(0.003 4.22792e-20 2.53732e-20)
(0.003 1.29385e-19 5.57393e-20)
(0.003 1.66342e-19 8.17105e-20)
(0.003 1.49188e-19 7.97446e-20)
(0.003 1.59403e-19 5.84386e-19)
(0.003 2.69699e-19 9.92761e-19)
(0.003 1.64358e-19 1.07208e-18)
(0.003 1.39271e-19 1.04286e-18)
(0.003 1.87113e-19 1.12876e-18)
(0.003 1.67958e-19 1.06931e-18)
(0.003 2.17794e-19 9.20166e-19)
(0.003 3.29217e-19 7.59393e-19)
(0.003 3.07891e-19 8.48039e-19)
(0.003 2.66736e-19 9.84162e-19)
(0.003 2.41065e-19 8.94508e-19)
(0.003 2.23131e-19 7.9429e-19)
(0.003 1.92424e-19 6.82079e-19)
(0.003 1.56242e-19 5.36617e-19)
(0.003 1.66056e-19 5.48045e-19)
(0.003 2.55246e-19 5.38851e-19)
(0.003 1.05417e-19 3.82793e-19)
(0.003 -1.52742e-19 1.85912e-19)
(0.003 -1.90625e-19 1.24849e-19)
(0.003 8.02621e-21 5.47071e-20)
(0.003 1.45479e-19 1.10865e-19)
(0.003 1.49312e-19 3.51591e-19)
(0.003 2.0138e-19 5.07107e-19)
(0.003 1.46001e-19 3.88588e-19)
(0.003 8.36554e-20 3.12953e-19)
(0.003 2.76527e-20 2.16677e-19)
(0.003 1.28349e-20 9.31217e-20)
(0.003 3.08516e-20 1.2283e-19)
(0.003 3.54884e-20 2.08062e-19)
(0.003 9.35349e-21 1.64868e-19)
(0.003 1.5169e-19 1.22555e-19)
(0.003 1.36969e-19 1.0484e-19)
(0.003 -8.06129e-20 1.22303e-20)
(0.003 -8.97791e-20 5.77914e-20)
(0.003 3.50409e-20 1.59524e-19)
(0.003 2.74388e-20 9.68492e-20)
(0.003 9.58777e-20 8.41366e-20)
(0.003 1.12255e-19 1.15949e-19)
(0.003 4.2626e-20 1.69401e-19)
(0.003 2.06889e-20 1.17727e-19)
(0.003 7.28923e-21 6.35465e-19)
(0.003 1.78136e-19 1.0196e-18)
(0.003 1.26356e-19 1.04629e-18)
(0.003 1.29154e-19 1.09733e-18)
(0.003 1.52809e-19 1.12365e-18)
(0.003 1.67827e-19 1.04071e-18)
(0.003 2.16734e-19 9.25307e-19)
(0.003 4.2705e-19 9.64938e-19)
(0.003 3.94999e-19 1.02222e-18)
(0.003 2.16113e-19 9.64807e-19)
(0.003 1.74458e-19 8.54797e-19)
(0.003 2.15773e-19 9.06688e-19)
(0.003 2.09322e-19 8.29317e-19)
(0.003 2.22563e-19 5.4135e-19)
(0.003 1.67327e-19 5.40874e-19)
(0.003 5.79478e-20 5.8292e-19)
(0.003 -5.5902e-20 4.01197e-19)
(0.003 -1.20457e-19 2.10109e-19)
(0.003 -1.6047e-19 1.12417e-19)
(0.003 -8.56745e-20 1.05305e-19)
(0.003 1.88334e-19 1.75878e-19)
(0.003 2.78418e-19 3.22773e-19)
(0.003 1.67327e-19 4.71743e-19)
(0.003 1.51863e-19 3.71009e-19)
(0.003 1.47848e-19 2.68798e-19)
(0.003 8.44596e-20 2.23318e-19)
(0.003 6.85851e-20 1.54051e-19)
(0.003 -5.92674e-20 8.39666e-20)
(0.003 -1.53244e-19 2.06011e-19)
(0.003 -2.8077e-20 2.89573e-19)
(0.003 1.97172e-19 2.64533e-19)
(0.003 1.63829e-19 -1.77488e-20)
(0.003 3.63818e-20 -1.68368e-19)
(0.003 1.11787e-19 1.3816e-19)
(0.003 8.28787e-20 1.55857e-19)
(0.003 1.00584e-19 5.81581e-20)
(0.003 9.08543e-20 1.30182e-19)
(0.003 4.2205e-20 1.05998e-19)
(0.003 4.72643e-20 1.8783e-20)
(0.003 6.06314e-20 3.02557e-20)
(0.003 5.83239e-20 7.8456e-19)
(0.003 1.5848e-19 1.19613e-18)
(0.003 1.85284e-19 1.1277e-18)
(0.003 1.10164e-19 1.08131e-18)
(0.003 2.01741e-19 1.14624e-18)
(0.003 1.64819e-19 1.11772e-18)
(0.003 2.48814e-19 1.0158e-18)
(0.003 4.30499e-19 9.97487e-19)
(0.003 3.78117e-19 1.09417e-18)
(0.003 2.52196e-19 1.0759e-18)
(0.003 2.12747e-19 9.20892e-19)
(0.003 2.27629e-19 8.60844e-19)
(0.003 2.16781e-19 7.11162e-19)
(0.003 2.9199e-19 6.37969e-19)
(0.003 1.75693e-19 6.11348e-19)
(0.003 5.80937e-20 5.6266e-19)
(0.003 -1.56737e-20 3.80107e-19)
(0.003 4.42866e-20 2.47993e-19)
(0.003 1.41878e-20 1.18209e-19)
(0.003 -1.23929e-20 5.77867e-20)
(0.003 2.44437e-19 1.98144e-19)
(0.003 2.06689e-19 3.43083e-19)
(0.003 6.41417e-20 4.66378e-19)
(0.003 5.36006e-20 4.98337e-19)
(0.003 3.87458e-20 3.34281e-19)
(0.003 8.67348e-20 2.03541e-19)
(0.003 2.4862e-20 1.6532e-19)
(0.003 -6.96613e-20 9.5084e-20)
(0.003 -1.31531e-19 1.38819e-19)
(0.003 -6.38212e-20 1.68963e-19)
(0.003 1.18895e-19 2.01745e-19)
(0.003 6.11541e-20 4.70748e-20)
(0.003 3.64858e-20 -6.17204e-21)
(0.003 1.79587e-19 1.58261e-19)
(0.003 1.74155e-19 1.23426e-19)
(0.003 1.3342e-19 7.69022e-20)
(0.003 7.37291e-20 5.95142e-20)
(0.003 7.5162e-20 -1.54329e-20)
(0.003 -3.67356e-20 -6.84492e-20)
(0.003 -1.138e-19 -1.1859e-19)
(0.003 1.88555e-19 6.81505e-19)
(0.003 1.67979e-19 1.07645e-18)
(0.003 2.14282e-19 1.15928e-18)
(0.003 2.29433e-19 1.19857e-18)
(0.003 1.76523e-19 1.27277e-18)
(0.003 2.09268e-19 1.13689e-18)
(0.003 3.22254e-19 1.10729e-18)
(0.003 2.85034e-19 1.18782e-18)
(0.003 2.84207e-19 1.2113e-18)
(0.003 3.81984e-19 1.10577e-18)
(0.003 2.44328e-19 9.28554e-19)
(0.003 1.40835e-19 8.57172e-19)
(0.003 9.39589e-20 7.13666e-19)
(0.003 2.19224e-19 6.1195e-19)
(0.003 1.81277e-19 6.17285e-19)
(0.003 8.96067e-20 6.02449e-19)
(0.003 8.74619e-20 4.16809e-19)
(0.003 1.58772e-19 1.89053e-19)
(0.003 2.9497e-19 1.00222e-19)
(0.003 2.43172e-19 1.19117e-19)
(0.003 2.05564e-19 2.03252e-19)
(0.003 9.16275e-20 3.63377e-19)
(0.003 -6.38026e-20 5.08362e-19)
(0.003 -7.33222e-20 5.09916e-19)
(0.003 -8.01425e-20 3.81817e-19)
(0.003 1.27603e-20 2.20914e-19)
(0.003 6.97887e-20 6.06807e-20)
(0.003 -1.89329e-21 1.0179e-19)
(0.003 -6.79992e-20 1.57804e-19)
(0.003 -4.38292e-20 1.7895e-19)
(0.003 -2.01005e-19 2.64134e-19)
(0.003 -8.82579e-20 1.13152e-19)
(0.003 1.54409e-19 8.56569e-20)
(0.003 1.32697e-19 1.86583e-19)
(0.003 2.15466e-19 8.15461e-20)
(0.003 1.62393e-19 -1.25415e-19)
(0.003 2.8431e-20 -2.20753e-19)
(0.003 -9.79912e-20 -1.87309e-19)
(0.003 -2.47333e-19 -6.92513e-20)
(0.003 -1.89113e-19 -8.24151e-20)
(0.003 -8.43237e-20 6.76352e-19)
(0.003 -1.25281e-20 1.21626e-18)
(0.003 1.64253e-19 1.30177e-18)
(0.003 2.6767e-19 1.33269e-18)
(0.003 1.77661e-19 1.2975e-18)
(0.003 2.83646e-19 1.22955e-18)
(0.003 3.37583e-19 1.2534e-18)
(0.003 1.6697e-19 1.16584e-18)
(0.003 1.47352e-19 1.16821e-18)
(0.003 2.61785e-19 1.2054e-18)
(0.003 2.31807e-19 9.48052e-19)
(0.003 2.44848e-20 8.25208e-19)
(0.003 1.30905e-21 7.21452e-19)
(0.003 8.97861e-20 6.53855e-19)
(0.003 1.33989e-19 6.5336e-19)
(0.003 8.75363e-20 6.13189e-19)
(0.003 2.08437e-19 4.53708e-19)
(0.003 2.53135e-19 2.48261e-19)
(0.003 1.68384e-19 2.24456e-19)
(0.003 1.30888e-19 2.23897e-19)
(0.003 9.52298e-20 2.31014e-19)
(0.003 6.48225e-20 3.95768e-19)
(0.003 3.53945e-20 5.01184e-19)
(0.003 7.82901e-20 5.20463e-19)
(0.003 3.99199e-20 3.25183e-19)
(0.003 -9.03921e-20 1.48765e-19)
(0.003 -1.19909e-19 8.33633e-20)
(0.003 4.71244e-21 6.63907e-20)
(0.003 6.15701e-20 8.04946e-20)
(0.003 -2.10796e-20 1.15336e-19)
(0.003 -1.63828e-19 1.52143e-19)
(0.003 -1.12479e-19 1.50363e-19)
(0.003 -5.64515e-21 1.80647e-19)
(0.003 -2.20683e-20 8.21811e-20)
(0.003 5.59595e-20 -5.16257e-20)
(0.003 2.04239e-19 -2.88902e-19)
(0.003 4.8946e-20 -2.57777e-19)
(0.003 -2.17647e-19 -1.7205e-19)
(0.003 -1.99129e-19 -9.32059e-20)
(0.003 -1.4795e-19 -1.30332e-20)
(0.003 -2.84593e-19 7.5261e-19)
(0.003 -6.81916e-20 1.12739e-18)
(0.003 1.56089e-19 1.32636e-18)
(0.003 2.69774e-19 1.41354e-18)
(0.003 2.01799e-19 1.41427e-18)
(0.003 2.3202e-19 1.36058e-18)
(0.003 3.33882e-19 1.35407e-18)
(0.003 2.40956e-19 1.27386e-18)
(0.003 1.76631e-19 1.11041e-18)
(0.003 1.94705e-19 1.10707e-18)
(0.003 2.37357e-19 1.00158e-18)
(0.003 1.62623e-20 8.05918e-19)
(0.003 1.77344e-21 7.23678e-19)
(0.003 9.10587e-21 7.10053e-19)
(0.003 8.3691e-20 7.01784e-19)
(0.003 1.88302e-19 5.95463e-19)
(0.003 2.95398e-19 5.24005e-19)
(0.003 1.08279e-19 3.60409e-19)
(0.003 -1.30957e-19 1.5171e-19)
(0.003 -1.42677e-20 1.38492e-19)
(0.003 7.77059e-20 3.16191e-19)
(0.003 1.45186e-19 4.41406e-19)
(0.003 7.43075e-20 5.45352e-19)
(0.003 4.35116e-20 5.46411e-19)
(0.003 1.08676e-19 3.85184e-19)
(0.003 -3.08151e-21 1.60248e-19)
(0.003 -1.32721e-19 3.72355e-21)
(0.003 -7.42757e-20 1.95988e-20)
(0.003 7.30102e-20 8.49118e-20)
(0.003 4.56857e-20 1.77001e-19)
(0.003 6.34003e-20 1.86004e-19)
(0.003 -5.28553e-20 1.41539e-19)
(0.003 -1.90112e-19 1.48744e-19)
(0.003 -1.81913e-19 9.22301e-20)
(0.003 -4.96178e-20 -2.66569e-20)
(0.003 1.98986e-19 -2.6001e-19)
(0.003 7.66497e-20 -3.53631e-19)
(0.003 -5.03132e-20 -2.48149e-19)
(0.003 4.67664e-20 -2.63745e-19)
(0.003 3.23584e-20 -1.71781e-19)
(0.003 1.01887e-19 7.67384e-19)
(0.003 1.88727e-19 1.24649e-18)
(0.003 1.99967e-19 1.46725e-18)
(0.003 2.07212e-19 1.48338e-18)
(0.003 2.24022e-19 1.38761e-18)
(0.003 2.67316e-19 1.36759e-18)
(0.003 2.61926e-19 1.44473e-18)
(0.003 2.08021e-19 1.30804e-18)
(0.003 7.60985e-20 1.13501e-18)
(0.003 1.47129e-19 1.04499e-18)
(0.003 2.68661e-19 9.69806e-19)
(0.003 1.39273e-19 8.99378e-19)
(0.003 1.06399e-19 7.64209e-19)
(0.003 8.31497e-20 6.7221e-19)
(0.003 7.01757e-20 7.46611e-19)
(0.003 1.13766e-19 7.63469e-19)
(0.003 1.08851e-19 5.60165e-19)
(0.003 -5.74014e-20 2.76699e-19)
(0.003 -4.15062e-20 6.54702e-20)
(0.003 2.22693e-20 1.02227e-19)
(0.003 1.4971e-19 3.1517e-19)
(0.003 2.0941e-19 5.12061e-19)
(0.003 3.28253e-20 5.50467e-19)
(0.003 -5.75769e-21 6.07927e-19)
(0.003 5.66167e-20 3.43321e-19)
(0.003 -6.50089e-20 7.13425e-20)
(0.003 -1.80452e-19 2.76539e-21)
(0.003 -7.42739e-20 1.56586e-20)
(0.003 7.17846e-20 6.95654e-20)
(0.003 1.53277e-20 2.31757e-19)
(0.003 -7.97154e-21 2.76902e-19)
(0.003 -4.13726e-21 1.38868e-19)
(0.003 -3.79745e-20 7.16524e-20)
(0.003 -1.27526e-19 2.52504e-21)
(0.003 -1.26028e-19 -1.59102e-20)
(0.003 -1.18844e-19 -1.68761e-19)
(0.003 -3.28824e-21 -3.1894e-19)
(0.003 1.30466e-19 -1.66393e-19)
(0.003 2.13405e-19 -1.3503e-19)
(0.003 1.89403e-19 -1.75863e-19)
(0.003 3.10127e-19 8.74109e-19)
(0.003 2.75838e-19 1.33625e-18)
(0.003 1.72356e-19 1.45314e-18)
(0.003 1.33499e-19 1.42632e-18)
(0.003 2.24617e-19 1.43567e-18)
(0.003 2.30452e-19 1.49262e-18)
(0.003 1.38156e-19 1.43806e-18)
(0.003 2.02182e-19 1.29272e-18)
(0.003 1.73202e-19 1.00879e-18)
(0.003 7.40595e-20 1.04675e-18)
(0.003 1.55336e-19 1.05583e-18)
(0.003 1.5751e-19 9.21429e-19)
(0.003 1.82927e-19 8.49622e-19)
(0.003 2.06473e-19 7.2873e-19)
(0.003 1.09392e-19 7.45451e-19)
(0.003 -2.60113e-20 7.36056e-19)
(0.003 -1.21886e-19 6.12016e-19)
(0.003 3.84409e-20 2.90736e-19)
(0.003 3.76055e-19 7.74881e-20)
(0.003 2.45093e-19 1.51365e-19)
(0.003 4.97912e-20 3.03384e-19)
(0.003 -1.17543e-19 4.70082e-19)
(0.003 -1.01399e-19 4.83755e-19)
(0.003 -6.41056e-20 5.32664e-19)
(0.003 -9.2527e-20 4.22594e-19)
(0.003 -1.05138e-19 6.92535e-20)
(0.003 -8.57291e-20 -1.93421e-20)
(0.003 1.91736e-20 1.17123e-19)
(0.003 -3.00912e-20 5.663e-20)
(0.003 -1.24977e-19 1.719e-19)
(0.003 -1.82267e-20 2.44877e-19)
(0.003 5.56044e-21 1.46552e-19)
(0.003 -4.75164e-20 5.91697e-20)
(0.003 -3.2807e-20 6.29881e-21)
(0.003 -8.19063e-20 -2.45787e-20)
(0.003 -2.2055e-19 -2.3728e-19)
(0.003 -8.46798e-20 -3.3119e-19)
(0.003 1.60671e-19 -1.25093e-20)
(0.003 1.80601e-19 -5.55142e-20)
(0.003 1.4438e-19 -3.50168e-19)
(0.003 2.81429e-19 9.11208e-19)
(0.003 3.00383e-19 1.36707e-18)
(0.003 1.64169e-19 1.44163e-18)
(0.003 1.38055e-19 1.48262e-18)
(0.003 8.82432e-20 1.53564e-18)
(0.003 2.05124e-20 1.44249e-18)
(0.003 1.12303e-19 1.34652e-18)
(0.003 9.01213e-20 1.27408e-18)
(0.003 2.33175e-19 1.17143e-18)
(0.003 2.20351e-19 1.10047e-18)
(0.003 2.89592e-20 1.00909e-18)
(0.003 6.97541e-20 9.27722e-19)
(0.003 2.21859e-19 8.67154e-19)
(0.003 2.87273e-19 7.98231e-19)
(0.003 1.08272e-19 7.79851e-19)
(0.003 -1.59589e-20 6.96768e-19)
(0.003 -9.22197e-20 5.07895e-19)
(0.003 2.98568e-20 2.82514e-19)
(0.003 1.50638e-19 2.68822e-19)
(0.003 1.56469e-19 2.4402e-19)
(0.003 9.39641e-20 2.9694e-19)
(0.003 -7.57726e-21 3.97566e-19)
(0.003 1.97844e-20 4.32693e-19)
(0.003 -9.92e-21 4.72114e-19)
(0.003 -1.77985e-19 3.90651e-19)
(0.003 -7.21114e-20 1.00013e-19)
(0.003 6.70706e-20 -4.67069e-20)
(0.003 -2.39049e-22 2.2178e-20)
(0.003 -1.91213e-19 1.49786e-20)
(0.003 -2.64637e-19 1.42864e-19)
(0.003 -1.11383e-19 2.4241e-19)
(0.003 -2.62602e-21 9.84474e-20)
(0.003 2.11354e-20 -6.9059e-21)
(0.003 6.6978e-20 1.42095e-19)
(0.003 -1.02315e-19 7.97975e-20)
(0.003 -1.3983e-19 -2.43673e-19)
(0.003 6.51746e-20 -2.46553e-19)
(0.003 1.68246e-19 1.80852e-20)
(0.003 6.77708e-20 -1.38476e-19)
(0.003 -6.48155e-21 -4.70021e-19)
(0.003 9.7084e-21 9.59567e-19)
(0.003 1.94162e-19 1.45009e-18)
(0.003 2.06922e-19 1.45673e-18)
(0.003 1.70332e-20 1.49959e-18)
(0.003 -1.04491e-19 1.47525e-18)
(0.003 -6.78862e-20 1.45061e-18)
(0.003 1.2702e-19 1.38435e-18)
(0.003 1.75724e-19 1.19643e-18)
(0.003 1.47648e-19 1.14023e-18)
(0.003 1.14047e-19 1.20016e-18)
(0.003 5.29427e-20 1.06262e-18)
(0.003 1.63752e-19 8.72346e-19)
(0.003 2.0796e-19 9.04764e-19)
(0.003 8.98417e-20 8.8899e-19)
(0.003 -2.14969e-21 8.34036e-19)
(0.003 -2.27033e-20 7.03172e-19)
(0.003 -4.71771e-20 5.276e-19)
(0.003 1.09049e-19 3.13294e-19)
(0.003 1.47387e-19 2.05293e-19)
(0.003 8.16217e-20 2.05347e-19)
(0.003 1.96041e-19 3.4502e-19)
(0.003 7.63941e-20 4.58434e-19)
(0.003 -3.70398e-20 4.70866e-19)
(0.003 -5.2079e-20 5.05657e-19)
(0.003 -1.62284e-19 3.95333e-19)
(0.003 -4.0718e-20 1.34925e-20)
(0.003 1.7317e-19 -2.81258e-19)
(0.003 5.93869e-20 -1.71168e-19)
(0.003 -2.63033e-19 -1.02294e-19)
(0.003 -3.03333e-19 2.33384e-19)
(0.003 -2.13839e-19 3.74819e-19)
(0.003 -6.38668e-20 2.01228e-19)
(0.003 4.74855e-20 7.78798e-20)
(0.003 1.1966e-20 6.44899e-20)
(0.003 -8.06752e-20 1.78937e-20)
(0.003 -1.20263e-20 -1.15684e-19)
(0.003 7.93285e-20 -1.49718e-19)
(0.003 1.26173e-19 -1.47031e-19)
(0.003 1.13654e-19 -4.26618e-19)
(0.003 2.3039e-20 -4.83039e-19)
(0.003 -2.0885e-19 9.88641e-19)
(0.003 -1.73804e-19 1.43986e-18)
(0.003 6.46738e-20 1.49506e-18)
(0.003 2.80221e-20 1.39067e-18)
(0.003 3.08129e-20 1.39368e-18)
(0.003 -7.98347e-21 1.45003e-18)
(0.003 9.66863e-20 1.49931e-18)
(0.003 2.11568e-19 1.31201e-18)
(0.003 5.45955e-20 1.17075e-18)
(0.003 -1.08644e-19 1.20416e-18)
(0.003 6.89584e-20 1.06327e-18)
(0.003 2.48034e-19 9.37808e-19)
(0.003 8.53358e-20 9.83482e-19)
(0.003 -8.94226e-20 8.93156e-19)
(0.003 -5.85354e-20 7.22153e-19)
(0.003 -6.2382e-20 7.04237e-19)
(0.003 1.08113e-20 4.80387e-19)
(0.003 2.33558e-19 3.48863e-19)
(0.003 1.71003e-19 3.45891e-19)
(0.003 1.28773e-19 2.26191e-19)
(0.003 2.01798e-19 3.76113e-19)
(0.003 5.33947e-20 4.72143e-19)
(0.003 -1.43131e-19 5.39297e-19)
(0.003 -2.79928e-19 4.7087e-19)
(0.003 -2.29283e-19 2.92714e-19)
(0.003 -1.18368e-20 2.88584e-20)
(0.003 1.60938e-19 -2.97841e-19)
(0.003 1.91988e-20 -2.37761e-19)
(0.003 -1.61509e-19 1.06588e-20)
(0.003 -3.52563e-20 1.75606e-19)
(0.003 6.44703e-20 2.39355e-19)
(0.003 4.36752e-20 1.32783e-19)
(0.003 -6.85734e-20 5.81579e-20)
(0.003 -1.12049e-19 5.71758e-20)
(0.003 -6.56394e-20 1.51537e-19)
(0.003 2.5209e-21 -1.22896e-20)
(0.003 1.62303e-19 -3.22622e-19)
(0.003 1.81358e-19 -2.83981e-19)
(0.003 7.73047e-20 -3.60021e-19)
(0.003 5.64127e-20 -5.11723e-19)
(0.003 -9.59814e-20 9.20443e-19)
(0.003 -2.82759e-19 1.36715e-18)
(0.003 -1.66854e-19 1.54157e-18)
(0.003 -8.09369e-20 1.46503e-18)
(0.003 3.44717e-20 1.45388e-18)
(0.003 5.70856e-20 1.50084e-18)
(0.003 6.6014e-21 1.47872e-18)
(0.003 6.82534e-20 1.36399e-18)
(0.003 -5.14343e-21 1.19807e-18)
(0.003 -8.06885e-20 1.06512e-18)
(0.003 4.69249e-20 1.12232e-18)
(0.003 1.79886e-19 1.07569e-18)
(0.003 -1.5658e-20 1.02655e-18)
(0.003 -3.44924e-20 8.87681e-19)
(0.003 9.12679e-21 7.65007e-19)
(0.003 -1.39361e-20 6.69458e-19)
(0.003 1.04074e-21 4.49241e-19)
(0.003 -3.93967e-20 3.57659e-19)
(0.003 9.5966e-20 3.42464e-19)
(0.003 2.61683e-19 3.38065e-19)
(0.003 9.14904e-20 4.06636e-19)
(0.003 3.69302e-20 5.4209e-19)
(0.003 -1.11678e-19 5.29652e-19)
(0.003 -3.03859e-19 3.25905e-19)
(0.003 -1.94608e-19 1.05316e-19)
(0.003 -1.08967e-19 1.18892e-19)
(0.003 -2.48196e-20 -1.03534e-19)
(0.003 -5.01488e-20 -3.17279e-19)
(0.003 -4.83056e-20 -1.41449e-20)
(0.003 9.55869e-21 1.23774e-19)
(0.003 1.41324e-19 1.3658e-19)
(0.003 6.63679e-20 3.80678e-21)
(0.003 -1.39005e-19 -5.06719e-20)
(0.003 -4.62221e-20 2.1567e-19)
(0.003 2.56678e-20 2.5744e-19)
(0.003 -3.30148e-21 1.3886e-19)
(0.003 8.05261e-20 -1.59687e-19)
(0.003 1.11921e-19 -3.66788e-19)
(0.003 6.15556e-20 -3.70958e-19)
(0.003 1.10829e-19 -4.63229e-19)
(0.003 -1.53214e-19 8.49534e-19)
(0.003 -1.34864e-19 1.32601e-18)
(0.003 -2.95308e-21 1.49989e-18)
(0.003 -9.882e-20 1.43684e-18)
(0.003 -1.57577e-19 1.47365e-18)
(0.003 -4.07082e-20 1.5355e-18)
(0.003 -3.12456e-20 1.49984e-18)
(0.003 -4.809e-20 1.34738e-18)
(0.003 2.58997e-20 1.22435e-18)
(0.003 1.02912e-19 1.18698e-18)
(0.003 5.77603e-20 1.14117e-18)
(0.003 7.56498e-20 1.12531e-18)
(0.003 3.49296e-20 1.03971e-18)
(0.003 -9.1411e-23 9.61527e-19)
(0.003 -1.16481e-19 7.11175e-19)
(0.003 -2.57123e-20 5.40206e-19)
(0.003 3.79906e-20 3.79125e-19)
(0.003 -1.06916e-19 3.77621e-19)
(0.003 -3.03508e-20 5.08496e-19)
(0.003 1.85585e-19 4.72451e-19)
(0.003 1.46036e-19 4.86861e-19)
(0.003 7.87521e-20 4.37677e-19)
(0.003 -1.16081e-19 3.54665e-19)
(0.003 -2.32106e-19 2.06525e-19)
(0.003 -1.56538e-19 7.0692e-20)
(0.003 -1.03173e-19 1.49221e-19)
(0.003 -1.84073e-19 4.59675e-20)
(0.003 -1.9436e-19 -7.53088e-20)
(0.003 -6.71908e-20 -7.58678e-21)
(0.003 4.07941e-20 8.35509e-20)
(0.003 -2.35435e-20 3.97062e-22)
(0.003 -1.03283e-19 -1.35744e-19)
(0.003 -2.43846e-20 6.57645e-20)
(0.003 -4.22141e-21 2.57734e-19)
(0.003 4.82073e-20 2.85255e-19)
(0.003 1.08803e-19 1.71621e-19)
(0.003 4.66371e-20 -1.08429e-19)
(0.003 -4.99368e-20 -3.30474e-19)
(0.003 -1.26341e-20 -4.77106e-19)
(0.003 7.64881e-20 -5.54767e-19)
(0.003 -1.90153e-19 7.77199e-19)
(0.003 -2.05012e-19 1.35861e-18)
(0.003 -1.60031e-19 1.66302e-18)
(0.003 -1.23149e-20 1.52606e-18)
(0.003 3.40139e-20 1.4102e-18)
(0.003 -5.51076e-20 1.49124e-18)
(0.003 -1.3987e-19 1.49305e-18)
(0.003 -1.62368e-19 1.33403e-18)
(0.003 -2.14174e-20 1.2715e-18)
(0.003 2.60546e-20 1.20964e-18)
(0.003 4.34698e-20 1.13654e-18)
(0.003 2.76126e-20 1.13136e-18)
(0.003 5.88189e-20 1.02682e-18)
(0.003 1.88284e-20 9.65042e-19)
(0.003 -2.07588e-20 7.35302e-19)
(0.003 4.53647e-20 6.35681e-19)
(0.003 1.34608e-19 4.43885e-19)
(0.003 2.48243e-19 2.4836e-19)
(0.003 1.98241e-19 2.71558e-19)
(0.003 2.26115e-20 4.4428e-19)
(0.003 -1.48153e-19 5.65751e-19)
(0.003 -1.55306e-19 6.18572e-19)
(0.003 -9.23277e-20 3.58537e-19)
(0.003 -2.78836e-20 1.89681e-19)
(0.003 -7.12441e-20 7.29819e-20)
(0.003 -1.66694e-19 1.15598e-19)
(0.003 -2.10933e-19 1.41791e-19)
(0.003 -2.79176e-19 -3.24875e-20)
(0.003 -2.01001e-19 -7.61261e-20)
(0.003 -1.41078e-20 3.78523e-20)
(0.003 -1.79782e-21 -2.33501e-21)
(0.003 -2.36622e-20 -1.29548e-19)
(0.003 1.37299e-20 2.01025e-20)
(0.003 2.219e-22 1.95062e-19)
(0.003 7.61603e-21 2.0344e-19)
(0.003 4.90773e-20 1.39254e-19)
(0.003 -9.38901e-20 -7.78365e-20)
(0.003 -1.52673e-19 -2.43533e-19)
(0.003 1.08296e-20 -3.82142e-19)
(0.003 4.7367e-20 -4.41351e-19)
(0.003 -1.45407e-19 7.55874e-19)
(0.003 -2.67524e-19 1.30799e-18)
(0.003 -2.51056e-19 1.50963e-18)
(0.003 2.80238e-20 1.54775e-18)
(0.003 1.01021e-19 1.4913e-18)
(0.003 -1.30331e-19 1.43262e-18)
(0.003 -2.88904e-19 1.43969e-18)
(0.003 -1.50687e-19 1.39196e-18)
(0.003 4.23926e-20 1.33433e-18)
(0.003 4.38644e-20 1.25497e-18)
(0.003 -2.97794e-20 1.14311e-18)
(0.003 1.09088e-20 1.08857e-18)
(0.003 -1.29262e-20 1.03935e-18)
(0.003 -4.62404e-20 9.87879e-19)
(0.003 1.41356e-19 7.36355e-19)
(0.003 5.68481e-20 6.21602e-19)
(0.003 7.7993e-21 5.46103e-19)
(0.003 1.45129e-19 4.43983e-19)
(0.003 2.69456e-19 3.77545e-19)
(0.003 1.51322e-20 3.10173e-19)
(0.003 -1.46532e-19 4.53152e-19)
(0.003 -1.37265e-19 5.25647e-19)
(0.003 -4.48406e-20 4.42583e-19)
(0.003 -4.85767e-20 2.32385e-19)
(0.003 5.00065e-20 1.10571e-19)
(0.003 -1.19188e-19 9.05176e-20)
(0.003 -1.38141e-19 5.93031e-20)
(0.003 -1.71768e-19 -3.53092e-20)
(0.003 -1.54471e-19 -7.56252e-20)
(0.003 2.17516e-20 -5.41595e-20)
(0.003 -3.30755e-20 1.24404e-20)
(0.003 -6.30197e-20 -1.74874e-21)
(0.003 -8.51289e-20 4.14371e-20)
(0.003 -1.49823e-20 1.38427e-19)
(0.003 8.95534e-21 1.2701e-19)
(0.003 -5.36147e-20 1.1462e-19)
(0.003 -6.2324e-20 -6.90281e-21)
(0.003 -5.62554e-20 -2.11702e-19)
(0.003 -4.14759e-20 -3.08116e-19)
(0.003 -7.947e-20 -3.60368e-19)
(0.003 3.54016e-20 7.91278e-19)
(0.003 4.40996e-20 1.30648e-18)
(0.003 -1.72853e-21 1.46959e-18)
(0.003 -7.302e-20 1.51072e-18)
(0.003 -1.2537e-20 1.50847e-18)
(0.003 -1.21329e-19 1.40339e-18)
(0.003 -2.55214e-19 1.31313e-18)
(0.003 -2.38474e-19 1.37873e-18)
(0.003 -1.47136e-19 1.4202e-18)
(0.003 9.8668e-20 1.2992e-18)
(0.003 1.68843e-19 1.11332e-18)
(0.003 6.31177e-20 1.11434e-18)
(0.003 1.12678e-20 9.44469e-19)
(0.003 -2.75029e-20 9.00998e-19)
(0.003 6.76822e-20 8.33047e-19)
(0.003 -5.74253e-21 6.75282e-19)
(0.003 -1.19562e-19 4.52395e-19)
(0.003 -2.04569e-19 3.12837e-19)
(0.003 -9.52944e-20 4.46203e-19)
(0.003 -1.14877e-20 4.03547e-19)
(0.003 6.67644e-21 4.4479e-19)
(0.003 -1.30454e-20 5.81183e-19)
(0.003 -3.66528e-20 5.34255e-19)
(0.003 4.32729e-20 1.88072e-19)
(0.003 1.26998e-19 9.58298e-20)
(0.003 3.58038e-20 9.66055e-20)
(0.003 3.69979e-20 8.19119e-20)
(0.003 9.87586e-20 -4.98023e-20)
(0.003 2.38795e-20 -1.86262e-19)
(0.003 -1.73586e-20 -7.63278e-20)
(0.003 -1.58597e-19 1.33235e-19)
(0.003 -1.49155e-19 5.43704e-20)
(0.003 -1.33446e-19 -6.48232e-20)
(0.003 -7.85116e-20 1.35216e-19)
(0.003 -2.61137e-20 1.61812e-19)
(0.003 1.01395e-20 9.81355e-20)
(0.003 2.41838e-20 2.59554e-21)
(0.003 -3.59485e-20 -2.26716e-19)
(0.003 -1.65104e-19 -4.30694e-19)
(0.003 -1.52737e-19 -4.28677e-19)
(0.003 2.25016e-19 7.67573e-19)
(0.003 2.47031e-19 1.26018e-18)
(0.003 -3.60664e-20 1.45058e-18)
(0.003 -1.47906e-19 1.4734e-18)
(0.003 -6.49783e-20 1.53399e-18)
(0.003 1.58992e-20 1.42705e-18)
(0.003 -1.24149e-20 1.30317e-18)
(0.003 -2.03903e-19 1.2155e-18)
(0.003 -2.48502e-19 1.25441e-18)
(0.003 3.87872e-20 1.40153e-18)
(0.003 2.56191e-19 1.39159e-18)
(0.003 -3.47005e-20 1.16643e-18)
(0.003 -3.30289e-20 1.02577e-18)
(0.003 1.51869e-19 8.54027e-19)
(0.003 4.51901e-20 7.6046e-19)
(0.003 -6.58599e-20 5.89069e-19)
(0.003 -1.40238e-19 3.77783e-19)
(0.003 -1.88038e-19 2.97282e-19)
(0.003 -2.46964e-19 4.11136e-19)
(0.003 -1.09268e-19 4.54791e-19)
(0.003 -2.242e-20 5.08547e-19)
(0.003 -1.43944e-19 5.01872e-19)
(0.003 -7.41929e-20 4.58999e-19)
(0.003 7.51403e-20 3.10958e-19)
(0.003 1.12751e-19 1.84486e-19)
(0.003 1.60986e-19 1.21734e-19)
(0.003 1.02935e-19 5.86853e-21)
(0.003 2.07301e-19 -1.40935e-19)
(0.003 1.12312e-19 -1.76344e-19)
(0.003 -1.20039e-19 -1.95488e-19)
(0.003 -7.27091e-20 4.1598e-20)
(0.003 -9.40254e-20 3.8325e-20)
(0.003 -3.04991e-20 -4.89735e-20)
(0.003 -1.23443e-20 1.32957e-19)
(0.003 -1.75961e-20 5.37505e-20)
(0.003 1.26293e-19 9.94984e-20)
(0.003 1.09845e-20 1.05177e-19)
(0.003 -1.00934e-19 -1.5511e-19)
(0.003 -2.16564e-19 -4.5937e-19)
(0.003 -2.62009e-19 -4.49466e-19)
(0.003 2.55282e-19 8.25894e-19)
(0.003 2.87476e-19 1.35257e-18)
(0.003 2.62918e-20 1.43215e-18)
(0.003 -6.92456e-20 1.44343e-18)
(0.003 -1.21816e-19 1.44105e-18)
(0.003 1.64199e-20 1.36394e-18)
(0.003 -2.50012e-20 1.3167e-18)
(0.003 -7.74387e-20 1.28592e-18)
(0.003 -4.46642e-20 1.26099e-18)
(0.003 -3.45296e-21 1.42108e-18)
(0.003 -1.46675e-20 1.39903e-18)
(0.003 -3.55139e-20 1.0797e-18)
(0.003 -4.03996e-20 9.46994e-19)
(0.003 -4.77445e-20 9.81468e-19)
(0.003 -6.28392e-20 7.6943e-19)
(0.003 -6.7384e-20 5.43033e-19)
(0.003 -1.78374e-19 3.40795e-19)
(0.003 -2.17894e-19 3.03194e-19)
(0.003 -2.92529e-19 3.46628e-19)
(0.003 -1.53947e-19 4.40836e-19)
(0.003 -7.40404e-20 6.25092e-19)
(0.003 -1.46583e-19 5.05958e-19)
(0.003 1.20596e-19 4.31311e-19)
(0.003 2.29604e-19 3.02708e-19)
(0.003 1.15464e-19 1.21812e-19)
(0.003 1.4812e-19 6.56276e-20)
(0.003 1.5531e-19 -2.69551e-20)
(0.003 1.95591e-19 -2.02712e-19)
(0.003 1.40007e-19 -1.55557e-19)
(0.003 -6.51965e-20 -1.68257e-19)
(0.003 3.82283e-20 -3.63909e-20)
(0.003 1.44818e-19 9.36043e-21)
(0.003 8.21857e-20 -3.22533e-20)
(0.003 -3.17578e-20 7.87674e-20)
(0.003 4.01069e-20 8.43454e-20)
(0.003 9.72045e-20 1.24939e-19)
(0.003 -4.62882e-20 3.99219e-21)
(0.003 -1.96352e-19 -3.13666e-19)
(0.003 -1.66258e-19 -3.87582e-19)
(0.003 -1.20084e-19 -2.37539e-19)
(0.003 -3.80936e-20 8.83323e-19)
(0.003 -5.2185e-20 1.43037e-18)
(0.003 5.05453e-20 1.43671e-18)
(0.003 -2.67618e-20 1.38573e-18)
(0.003 -8.55857e-20 1.41857e-18)
(0.003 2.30246e-20 1.477e-18)
(0.003 3.40481e-20 1.33891e-18)
(0.003 1.25166e-19 1.19332e-18)
(0.003 1.74793e-20 1.17249e-18)
(0.003 -1.84424e-19 1.26233e-18)
(0.003 -2.59668e-19 1.3355e-18)
(0.003 -7.75874e-20 1.22332e-18)
(0.003 -1.19825e-19 1.0482e-18)
(0.003 -1.67253e-19 8.15548e-19)
(0.003 -1.10174e-19 6.44666e-19)
(0.003 -1.96383e-19 5.93797e-19)
(0.003 -2.0947e-19 4.01384e-19)
(0.003 -1.63992e-19 2.42122e-19)
(0.003 -2.4654e-19 3.33801e-19)
(0.003 -2.22756e-19 4.74472e-19)
(0.003 -1.48438e-19 5.30654e-19)