/*--------------------------------*- C++ -*----------------------------------*\
| =========                 |                                                 |
| \\      /  F ield         | OpenFOAM: The Open Source CFD Toolbox           |
|  \\    /   O peration     | Version:  v2012                                 |
|   \\  /    A nd           | Website:  www.openfoam.com                      |
|    \\/     M anipulation  |                                                 |
\*---------------------------------------------------------------------------*/
FoamFile
{
    version     2.0;
    format      ascii;
    class       volScalarField;
    location    "60/bottomWater";
    object      p_rgh;
}
// * * * * * * * * * * * * * * * * * * * * * * * * * * * * * * * * * * * * * //

dimensions      [1 -1 -2 0 0 0 0];


internalField   nonuniform List<scalar> 
1460
(
0.23094122
0.22302209
0.24674314
0.23174266
0.23988947
0.24619729
0.24298134
0.23978478
0.23772415
0.23836588
0.23715485
0.23529314
0.23974942
0.23794943
0.24275795
0.24302646
0.2381183
0.23984792
0.23529387
0.23721859
0.23848036
0.23781934
0.23987537
0.24303313
0.24625822
0.23992537
0.23177334
0.24680411
0.2230259
0.23096201
-0.19838068
-0.19872132
-0.17397954
-0.19800217
-0.20064052
-0.14462204
-0.15030283
-0.15117677
-0.15960352
-0.1655135
-0.20870278
-0.18762989
-0.16431026
-0.15504419
-0.13589719
-0.13542495
-0.15426342
-0.16408339
-0.18754176
-0.20845673
-0.16540337
-0.15951179
-0.15108208
-0.15020602
-0.1445062
-0.20058357
-0.19789581
-0.17387925
-0.19860129
-0.19826344
0.074834893
0.068525458
0.050154192
0.075490076
0.060858048
0.032309734
0.044788535
0.045392946
0.042629562
0.037836587
0.041510471
0.052501727
0.027826229
0.063333035
0.047849676
0.047956265
0.062878796
0.027719794
0.052278275
0.041721016
0.038049516
0.042829935
0.045544767
0.044992729
0.032414217
0.061037262
0.075676552
0.050263943
0.068693164
0.074982123
-0.023450442
-0.036218762
-0.033194105
-0.036991138
-0.037581597
-0.04742702
-0.018602926
-0.025480549
-0.041541999
-0.065293032
-0.037524429
-0.069743334
-0.056069839
-0.052256987
-0.012091534
-0.011476705
-0.051786186
-0.055706693
-0.069177621
-0.037202192
-0.064893133
-0.041115471
-0.025071919
-0.01830279
-0.0471508
-0.037203753
-0.036682487
-0.03288896
-0.035944926
-0.023191702
-0.0064662751
-0.0070820129
-0.011402776
0.00027055334
-0.0008419954
-0.0043304318
-0.0088615574
-0.0055323934
-0.0086719653
0.0075937534
0.0068667897
0.01019604
0.00366445
-0.02289395
-0.0038329373
-0.0035342451
-0.02271258
0.0037098209
0.010442307
0.007164004
0.0079236229
-0.0083035613
-0.0051934341
-0.0085342892
-0.0039493562
-0.00049275512
0.00059161474
-0.011102825
-0.0067931675
-0.0061862696
0.23197962
0.23070738
0.2328515
0.22344962
0.24416264
0.24641232
0.22911922
0.22494404
0.22635397
0.23243537
0.23694229
0.23239937
0.23384878
0.24167851
0.23782443
0.23815718
0.24152925
0.23384592
0.23238982
0.2369272
0.23249399
0.22642713
0.22509258
0.22915642
0.2464784
0.24417965
0.22344129
0.23285866
0.23071128
0.23198605
-0.20306452
-0.20856348
-0.19678855
-0.19343864
-0.16876325
-0.15757592
-0.20189996
-0.19022394
-0.19506827
-0.20827143
-0.21286815
-0.21626146
-0.20410082
-0.16067454
-0.15818183
-0.15787608
-0.16080178
-0.20390181
-0.21605645
-0.21266636
-0.20803131
-0.19487871
-0.19013153
-0.20170411
-0.15739283
-0.16864451
-0.19330068
-0.19669703
-0.20842034
-0.20291687
0.078009983
0.069839177
0.05534085
0.044310689
0.019002292
0.019854687
0.054660353
0.067349319
0.055107846
0.062701894
0.083263415
0.044232997
0.032293512
0.021642251
0.041372914
0.041156182
0.021312493
0.03225895
0.044364955
0.08333208
0.062997786
0.055393723
0.067516118
0.054846015
0.020043774
0.01920228
0.044534656
0.055558225
0.070052052
0.078184172
-0.042997497
-0.036020876
-0.043374389
-0.056556767
-0.047771434
-0.061543467
-0.054971553
-0.048057656
-0.077073246
-0.058196756
-0.040751873
-0.056274345
-0.068976815
-0.078521435
-0.040231473
-0.03987894
-0.077914891
-0.068323912
-0.05572569
-0.040304341
-0.057778971
-0.076537074
-0.047642466
-0.054639292
-0.061155309
-0.047403798
-0.056167264
-0.043001771
-0.035733651
-0.042757412
0.0049774818
0.005603291
-0.0062266578
0.010685302
-0.0086065261
0.0083591563
-0.0077098446
-0.0068955137
0.012175645
0.0052727931
0.021837272
0.0068088367
0.0063667784
-0.0044101361
-0.013702588
-0.0138432
-0.0042185444
0.0065556248
0.0071952784
0.022244879
0.0057143543
0.012659339
-0.0065154402
-0.0073240628
0.0087279242
-0.0082148216
0.011041971
-0.0058718742
0.0059298223
0.0053073081
0.22786282
0.22430879
0.22792679
0.22750137
0.23396483
0.22882031
0.23181855
0.23120112
0.23275319
0.23293409
0.23595168
0.2341849
0.23011467
0.23052766
0.22644361
0.22637006
0.23041055
0.23008526
0.2341298
0.23591225
0.23294427
0.23281397
0.23127621
0.23184879
0.22883649
0.23397098
0.22744142
0.22790848
0.2243173
0.22790072
-0.17422879
-0.19153856
-0.2075551
-0.21224029
-0.19923938
-0.20898494
-0.20974073
-0.19711913
-0.20498964
-0.21138559
-0.21410114
-0.21396045
-0.22131375
-0.19851023
-0.19887339
-0.19919583
-0.19833987
-0.2210069
-0.21376335
-0.21405613
-0.21117237
-0.2047042
-0.19682057
-0.20950797
-0.20875165
-0.19918101
-0.21233004
-0.20751362
-0.19143604
-0.17412284
0.041569173
0.051283737
0.062550271
0.078275445
0.090569171
0.075240947
0.083733851
0.076926578
0.073834345
0.085042661
0.090722655
0.10133003
0.064407349
0.060059312
0.073161287
0.074178711
0.059849912
0.064782659
0.1015681
0.091513087
0.085595544
0.074272417
0.077239454
0.08411354
0.075519309
0.090941728
0.078606677
0.062819184
0.05151512
0.041748194
-0.043230115
-0.058831909
-0.036402906
-0.032415453
-0.058097243
-0.057946177
-0.03723719
-0.039631744
-0.034158863
-0.037683258
-0.020629383
-0.032101761
-0.049949521
-0.084315186
-0.049411292
-0.049116606
-0.083844437
-0.049403652
-0.031353333
-0.019673207
-0.036873661
-0.033627006
-0.039146365
-0.036725225
-0.057447342
-0.057430762
-0.031723667
-0.035931382
-0.058465675
-0.042922962
0.0059162087
0.014098744
0.0068063653
0.017921351
0.02546869
0.039120807
0.015705557
0.011786565
0.017183807
0.017397043
0.028503429
0.025712354
0.018843805
0.013543053
0.0079239821
0.0070247931
0.013856615
0.019306736
0.026364537
0.029352827
0.018191312
0.018049913
0.01236403
0.016139653
0.039599438
0.026013941
0.018491029
0.0072894475
0.01447355
0.0062427603
0.23199748
0.23423634
0.23850419
0.23335894
0.23740026
0.23856062
0.23417225
0.23066332
0.22855976
0.23719588
0.2329008
0.23500442
0.23790794
0.23608112
0.23602252
0.23597221
0.23606451
0.23790629
0.2348566
0.23237092
0.23699516
0.22860741
0.23075725
0.23419111
0.23856216
0.23727451
0.23296963
0.2383034
0.23419722
0.2320154
-0.16020901
-0.17006253
-0.17453701
-0.19229326
-0.21077006
-0.21283969
-0.21389792
-0.19404926
-0.2015456
-0.18167662
-0.20754722
-0.21213237
-0.21573413
-0.19097151
-0.17694021
-0.17698544
-0.19072032
-0.21552921
-0.21225447
-0.20988749
-0.18168868
-0.20099356
-0.19308893
-0.21331251
-0.21258468
-0.21101697
-0.19417679
-0.1747535
-0.17008652
-0.16014904
0.057762408
0.047568108
0.023978257
0.047921586
0.045827753
0.083745918
0.073234277
0.056318048
0.076109007
0.038740438
0.062773274
0.071588112
0.068249928
0.052159294
0.060397297
0.060874902
0.052454145
0.069147749
0.0730089
0.066409319
0.040255129
0.077160046
0.057537692
0.073853226
0.084214699
0.046305821
0.048961897
0.024487213
0.047870264
0.057952931
-0.030234242
-0.05299003
-0.051486721
-0.067296239
-0.035178577
-0.02534145
-0.045315069
-0.0663783
-0.053327234
-0.062148779
-0.066497611
-0.031543045
-0.029864243
-0.10907614
-0.046910299
-0.047015981
-0.10852623
-0.028990511
-0.030163872
-0.064492861
-0.060877792
-0.052603015
-0.066674131
-0.044972131
-0.02479194
-0.034274069
-0.065451395
-0.050724966
-0.052613637
-0.029966242
-0.0083546682
-0.0078747791
0.0046084902
0.013949621
0.0083170623
0.029296018
0.01424657
0.02119168
-5.9258685e-05
0.016746717
0.02721013
0.020081399
0.020970463
0.014335311
0.0022764626
0.002496717
0.014877585
0.021944903
0.02130529
0.028554412
0.017930309
0.00072807075
0.021557888
0.01465981
0.029856538
0.0090316387
0.014884695
0.0052522545
-0.007467727
-0.0080396005
0.23852454
0.23354525
0.23405512
0.2359297
0.23972479
0.23853448
0.23979756
0.24126171
0.2436702
0.24197384
0.24484405
0.23122229
0.23645098
0.23647372
0.23119453
0.24477198
0.24197367
0.24373425
0.24129757
0.23928889
0.23847253
0.23951271
0.23583136
0.23402483
0.23355635
0.23854246
-0.15480546
-0.19212301
-0.20242478
-0.16589307
-0.1689555
-0.21739328
-0.17586346
-0.16462798
-0.15168996
-0.14115541
-0.16071086
-0.20496777
-0.20184385
-0.20134548
-0.20461616
-0.16050041
-0.14077444
-0.15119435
-0.16398451
-0.17457941
-0.21695749
-0.16861955
-0.16596679
-0.20247862
-0.19209177
-0.1547842
0.048633007
0.067195816
0.065865934
0.044308765
0.04932186
0.049634725
0.047506406
0.046418397
0.047628977
0.054064942
0.035110682
0.046582498
0.069398496
0.070442569
0.047860549
0.036556209
0.055269411
0.048569213
0.0471889
0.048148497
0.05003613
0.049592772
0.044576038
0.066022425
0.067263817
0.048698845
-0.013710787
-0.049400623
-0.030599502
-0.04733066
-0.054113215
-0.029437614
-0.070183802
-0.040308466
-0.025958142
-0.024269376
-0.039473632
-0.040606729
-0.019047719
-0.017636721
-0.039015193
-0.03770461
-0.022770377
-0.024847716
-0.039556653
-0.069558687
-0.028996081
-0.053645388
-0.046854665
-0.030300398
-0.049248665
-0.013606646
-0.005069769
-0.013556631
-0.0043496096
0.013210985
0.019200829
0.016253118
0.017764782
-0.0012188555
-0.0006132551
0.003036142
0.010905041
0.0063787945
0.0075011146
0.009001767
0.0079672627
0.012572836
0.0044953029
0.00049373041
-0.00045868544
0.01829391
0.016672269
0.019543629
0.013535378
-0.0041026761
-0.013370663
-0.0049521077
0.23853237
0.23349991
0.23374454
0.23517608
0.23804216
0.23829537
0.23959335
0.24125993
0.24371115
0.24212749
0.24523861
0.23133714
0.23647286
0.23647845
0.2311949
0.24480258
0.24197618
0.2437359
0.24133911
0.239861
0.23840695
0.23866187
0.23534498
0.23382397
0.23351648
0.23854722
-0.15466256
-0.19195423
-0.20274617
-0.1668637
-0.16738111
-0.21694157
-0.17557018
-0.16458901
-0.15168305
-0.14091462
-0.15968084
-0.20474337
-0.20183416
-0.20135557
-0.20463601
-0.16043655
-0.14074823
-0.15122577
-0.16416124
-0.17548008
-0.21696296
-0.16800686
-0.1667572
-0.20269198
-0.19203035
-0.15469973
0.048989367
0.067562307
0.066689733
0.045747171
0.050538686
0.050217475
0.047865393
0.046461066
0.047346885
0.053314279
0.033518664
0.045846871
0.068971916
0.070442152
0.047843965
0.036459123
0.055306812
0.048591399
0.047198948
0.048152606
0.050356258
0.05041924
0.045564685
0.066567982
0.067567119
0.048949856
-0.01312032
-0.048583841
-0.029130567
-0.045036615
-0.052639263
-0.028693884
-0.069933508
-0.040326913
-0.026281044
-0.025078341
-0.040616187
-0.041348644
-0.019525875
-0.017652949
-0.03902214
-0.037706679
-0.022745169
-0.024750767
-0.039399911
-0.06935011
-0.028527736
-0.052866776
-0.045572672
-0.029487409
-0.048738763
-0.013211713
-0.0044040232
-0.012623458
-0.0030319317
0.014788531
0.020341529
0.016909131
0.01803481
-0.001242367
-0.00091305243
0.0025188046
0.010370947
0.005803666
0.007081204
0.0089846562
0.0079681615
0.012679003
0.0045480384
0.00057943291
-0.00027654436
0.018597708
0.017177076
0.020353241
0.014541267
-0.0033132249
-0.012850617
-0.0045206524
0.23201492
0.23393681
0.23695653
0.23061516
0.23640435
0.23835342
0.23416514
0.23072981
0.2287683
0.23822612
0.23501267
0.2356867
0.23805716
0.23611177
0.23597843
0.23597877
0.23608703
0.2379122
0.23488133
0.23239804
0.23702828
0.22862393
0.23076708
0.234206
0.23842515
0.23664783
0.23121216
0.23733993
0.23401803
0.23202317
-0.15991864
-0.170054
-0.17622924
-0.20567525
-0.2131474
-0.21305574
-0.21375155
-0.19392254
-0.20146738
-0.18031418
-0.19845153
-0.21057264
-0.21572604
-0.19110823
-0.17713094
-0.17707124
-0.1907956
-0.21557771
-0.21228279
-0.20984247
-0.18166597
-0.2010041
-0.19323803
-0.21340605
-0.21281862
-0.21259587
-0.20288384
-0.17595054
-0.17008393
-0.15999029
0.058748376
0.049026513
0.026851946
0.054945371
0.048412741
0.084841619
0.073728842
0.056533447
0.07540711
0.035778948
0.052542567
0.068928121
0.067235176
0.051692987
0.0602386
0.060590347
0.052367794
0.069005485
0.072982961
0.066414612
0.040352124
0.077272347
0.057511216
0.074144492
0.084933731
0.048173761
0.054057915
0.026417895
0.048784421
0.058594252
-0.028740472
-0.050680906
-0.046752815
-0.055619125
-0.030607994
-0.023495676
-0.044671154
-0.066627111
-0.053945883
-0.064327924
-0.070552123
-0.033669394
-0.031025452
-0.10985444
-0.047439517
-0.047225956
-0.10887697
-0.029100876
-0.030224437
-0.064447297
-0.060731269
-0.052142785
-0.065907763
-0.044266957
-0.023528777
-0.03142041
-0.058339739
-0.047761493
-0.051138166
-0.029014304
-0.0066633321
-0.0056045825
0.0081467472
0.019049823
0.011555396
0.030996199
0.01489034
0.020983206
-0.00091776464
0.015331114
0.025370609
0.018690716
0.020015952
0.013637656
0.0018199248
0.0021385053
0.014624271
0.021796332
0.021238489
0.028536056
0.017952527
0.00081922775
0.021983662
0.015363464
0.031048305
0.011078163
0.017981605
0.0074162176
-0.0060512948
-0.0069783054
0.2279585
0.22428882
0.22770666
0.22706453
0.23379483
0.22879202
0.23184019
0.23123397
0.23281885
0.23311406
0.23630547
0.23430315
0.23012202
0.23047041
0.22639078
0.22637345
0.23044379
0.23010639
0.23415284
0.23592979
0.23297138
0.23283625
0.23130061
0.23187601
0.22883625
0.23386007
0.22717037
0.2277762
0.22431563
0.22796519
-0.17380861
-0.19112201
-0.2075422
-0.21324891
-0.19931891
-0.20870873
-0.20955824
-0.19700836
-0.20496393
-0.21129104
-0.21347194
-0.21393139
-0.22144525
-0.19869368
-0.19916771
-0.1992194
-0.19844036
-0.22106438
-0.21378738
-0.2140226
-0.21108612
-0.20454785
-0.19665816
-0.20931428
-0.20856889
-0.19923733
-0.21298111
-0.20751724
-0.19117932
-0.17386986
0.042600328
0.052535299
0.064061785
0.08009018
0.09175898
0.075932196
0.084142246
0.077079674
0.073734369
0.084210009
0.089169768
0.10014248
0.06376898
0.059510312
0.073138109
0.073685403
0.059889914
0.064785396
0.10165956
0.091609571
0.085837716
0.074722726
0.077653966
0.084510116
0.076081798
0.091742472
0.07989913
0.063848859
0.052348242
0.042445334
-0.041738995
-0.057053717
-0.033838866
-0.0289043
-0.055743345
-0.056681957
-0.036653965
-0.039508197
-0.033866731
-0.038613192
-0.022124415
-0.033365431
-0.050877192
-0.084993475
-0.049680805
-0.049377
-0.084234364
-0.04958776
-0.031431697
-0.019654992
-0.036634384
-0.032613561
-0.038644835
-0.036164019
-0.056542347
-0.055930897
-0.029545236
-0.034300648
-0.057356516
-0.04198902
0.0076134074
0.016081617
0.0093125218
0.020787123
0.027706724
0.040479462
0.016215355
0.011366508
0.015170053
0.016017128
0.027229191
0.02457002
0.017977085
0.012862209
0.0073320183
0.0071824883
0.013593944
0.019208894
0.026295078
0.029264842
0.017903888
0.016877547
0.012364615
0.016703439
0.04060251
0.027473921
0.02031681
0.0088785499
0.015743775
0.0073331766
0.23204425
0.23076146
0.23288274
0.22344519
0.24418441
0.24646938
0.22913762
0.2249714
0.22637243
0.23245613
0.23696235
0.23238978
0.23382651
0.24161905
0.23791081
0.23805116
0.2415897
0.23385946
0.23241165
0.23696078
0.2325138
0.22643876
0.22508821
0.22918917
0.246521
0.24422171
0.22346936
0.23290111
0.23077218
0.23205501
-0.20254384
-0.20806099
-0.19636199
-0.19306551
-0.16848074
-0.1573091
-0.20171614
-0.19016457
-0.19509159
-0.20836777
-0.21298625
-0.21644606
-0.20425069
-0.16089774
-0.15819526
-0.15803509
-0.16081631
-0.2039639
-0.21609157
-0.21264576
-0.20798319
-0.19475441
-0.18993956
-0.20151036
-0.1571978
-0.16842439
-0.1930631
-0.19639171
-0.20811462
-0.20260991
0.078887273
0.070772902
0.056270555
0.045175023
0.019720888
0.020364497
0.054961237
0.067436881
0.054988108
0.062362136
0.082702722
0.043688495
0.031809292
0.021165551
0.041019232
0.041039279
0.021338504
0.032306643
0.044407678
0.083495308
0.063158281
0.055652036
0.067849977
0.055233487
0.020507967
0.019765218
0.045131784
0.056181325
0.070657221
0.078776327
-0.041780532
-0.034724776
-0.041969291
-0.055253396
-0.046638247
-0.060758027
-0.054555617
-0.047904371
-0.077247677
-0.058693431
-0.041408096
-0.056896808
-0.069428201
-0.078904075
-0.040383388
-0.040119132
-0.078285349
-0.068540075
-0.055819985
-0.040252069
-0.0576199
-0.076329703
-0.04729957
-0.054178648
-0.060552012
-0.046610024
-0.055295391
-0.042112642
-0.03488686
-0.041936839
0.0063953569
0.0070928274
-0.0046478499
0.012215787
-0.0073273759
0.0092265244
-0.0072852338
-0.0069373715
0.01167856
0.0046033496
0.021106723
0.0060937633
0.0057526348
-0.0049516148
-0.013975061
-0.013887213
-0.0044556808
0.0065127967
0.0071484021
0.022276782
0.0057381337
0.012668849
-0.0062544717
-0.0068459338
0.0094333966
-0.0073188062
0.012076431
-0.004832991
0.0068920966
0.0062019491
0.23101062
0.22307049
0.24682884
0.23180031
0.23994096
0.24625405
0.2430127
0.23981102
0.23773899
0.23836755
0.2371624
0.235266
0.23975426
0.23799036
0.24283203
0.24294503
0.238085
0.23983701
0.23531429
0.23723373
0.23850659
0.23783887
0.23989883
0.24307096
0.24630626
0.23997274
0.23182408
0.24685543
0.22308693
0.23102612
-0.19790414
-0.19828441
-0.17359152
-0.19759527
-0.2003478
-0.14439118
-0.15016482
-0.15112364
-0.15963132
-0.16557551
-0.20882795
-0.18780563
-0.16440209
-0.15496179
-0.1358303
-0.13561747
-0.15457476
-0.16414915
-0.18754761
-0.20849764
-0.16536819
-0.15942113
-0.15094829
-0.150033
-0.14430185
-0.2003274
-0.19760968
-0.17361314
-0.1983214
-0.1979592
0.075627343
0.069360203
0.050895776
0.076164135
0.061404903
0.032709952
0.045050048
0.045478445
0.042567778
0.037647568
0.041232579
0.052053645
0.027476454
0.062908916
0.047670041
0.047781355
0.062947458
0.027772778
0.052399841
0.041772446
0.038166815
0.043012451
0.045808366
0.045304539
0.032817234
0.061479536
0.076159032
0.050837812
0.069266841
0.075536141
-0.022385437
-0.035158611
-0.032165334
-0.036061432
-0.036766294
-0.046850194
-0.018262681
-0.025360826
-0.041646202
-0.065593708
-0.037911062
-0.070110001
-0.056413312
-0.052569068
-0.012148961
-0.011829521
-0.05210381
-0.05582933
-0.069328206
-0.037159267
-0.064834912
-0.040974346
-0.024832874
-0.017923935
-0.046656936
-0.036647186
-0.036039041
-0.032211508
-0.035251147
-0.022498853
-0.0052620007
-0.0058762741
-0.01021497
0.0013772705
7.9039271e-05
-0.0036586792
-0.0085014478
-0.0054468095
-0.0088492754
0.007222805
0.0064134655
0.0096879532
0.0031842208
-0.023320773
-0.0039847137
-0.0037678395
-0.022936574
0.0036990511
0.010413287
0.0072250201
0.0080248227
-0.0081298792
-0.0048983823
-0.0081113206
-0.0034029513
0.00018008749
0.0013524464
-0.010305114
-0.0059936598
-0.0053954705
)
;

boundaryField
{
    minX
    {
        type            fixedFluxPressure;
        gradient        uniform 0;
        value           nonuniform List<scalar> 
50
(
0.23094122
-0.19838068
0.074834893
-0.023450442
-0.0064662751
0.23197962
-0.20306452
0.078009983
-0.042997497
0.0049774818
0.22786282
-0.17422879
0.041569173
-0.043230115
0.0059162087
0.23199748
-0.16020901
0.057762408
-0.030234242
-0.0083546682
0.23852454
-0.15480546
0.048633007
-0.013710787
-0.005069769
0.23853237
-0.15466256
0.048989367
-0.01312032
-0.0044040232
0.23201492
-0.15991864
0.058748376
-0.028740472
-0.0066633321
0.2279585
-0.17380861
0.042600328
-0.041738995
0.0076134074
0.23204425
-0.20254384
0.078887273
-0.041780532
0.0063953569
0.23101062
-0.19790414
0.075627343
-0.022385437
-0.0052620007
)
;
    }
    maxX
    {
        type            fixedFluxPressure;
        gradient        uniform 0;
        value           nonuniform List<scalar> 
50
(
0.23096201
-0.19826344
0.074982123
-0.023191702
-0.0061862696
0.23198605
-0.20291687
0.078184172
-0.042757412
0.0053073081
0.22790072
-0.17412284
0.041748194
-0.042922962
0.0062427603
0.2320154
-0.16014904
0.057952931
-0.029966242
-0.0080396005
0.23854246
-0.1547842
0.048698845
-0.013606646
-0.0049521077
0.23854722
-0.15469973
0.048949856
-0.013211713
-0.0045206524
0.23202317
-0.15999029
0.058594252
-0.029014304
-0.0069783054
0.22796519
-0.17386986
0.042445334
-0.04198902
0.0073331766
0.23205501
-0.20260991
0.078776327
-0.041936839
0.0062019491
0.23102612
-0.1979592
0.075536141
-0.022498853
-0.0053954705
)
;
    }
    minY
    {
        type            fixedValue;
        value           uniform 0;
    }
    minZ
    {
        type            fixedFluxPressure;
        gradient        uniform 0;
        value           nonuniform List<scalar> 
150
(
0.23094122
-0.19838068
0.074834893
-0.023450442
-0.0064662751
0.22302209
-0.19872132
0.068525458
-0.036218762
-0.0070820129
0.24674314
-0.17397954
0.050154192
-0.033194105
-0.011402776
0.23174266
-0.19800217
0.075490076
-0.036991138
0.00027055334
0.23988947
-0.20064052
0.060858048
-0.037581597
-0.0008419954
0.24619729
-0.14462204
0.032309734
-0.04742702
-0.0043304318
0.24298134
-0.15030283
0.044788535
-0.018602926
-0.0088615574
0.23978478
-0.15117677
0.045392946
-0.025480549
-0.0055323934
0.23772415
-0.15960352
0.042629562
-0.041541999
-0.0086719653
0.23836588
-0.1655135
0.037836587
-0.065293032
0.0075937534
0.23715485
-0.20870278
0.041510471
-0.037524429
0.0068667897
0.23529314
-0.18762989
0.052501727
-0.069743334
0.01019604
0.23974942
-0.16431026
0.027826229
-0.056069839
0.00366445
0.23794943
-0.15504419
0.063333035
-0.052256987
-0.02289395
0.24275795
-0.13589719
0.047849676
-0.012091534
-0.0038329373
0.24302646
-0.13542495
0.047956265
-0.011476705
-0.0035342451
0.2381183
-0.15426342
0.062878796
-0.051786186
-0.02271258
0.23984792
-0.16408339
0.027719794
-0.055706693
0.0037098209
0.23529387
-0.18754176
0.052278275
-0.069177621
0.010442307
0.23721859
-0.20845673
0.041721016
-0.037202192
0.007164004
0.23848036
-0.16540337
0.038049516
-0.064893133
0.0079236229
0.23781934
-0.15951179
0.042829935
-0.041115471
-0.0083035613
0.23987537
-0.15108208
0.045544767
-0.025071919
-0.0051934341
0.24303313
-0.15020602
0.044992729
-0.01830279
-0.0085342892
0.24625822
-0.1445062
0.032414217
-0.0471508
-0.0039493562
0.23992537
-0.20058357
0.061037262
-0.037203753
-0.00049275512
0.23177334
-0.19789581
0.075676552
-0.036682487
0.00059161474
0.24680411
-0.17387925
0.050263943
-0.03288896
-0.011102825
0.2230259
-0.19860129
0.068693164
-0.035944926
-0.0067931675
0.23096201
-0.19826344
0.074982123
-0.023191702
-0.0061862696
)
;
    }
    maxZ
    {
        type            fixedFluxPressure;
        gradient        uniform 0;
        value           nonuniform List<scalar> 
150
(
0.23101062
-0.19790414
0.075627343
-0.022385437
-0.0052620007
0.22307049
-0.19828441
0.069360203
-0.035158611
-0.0058762741
0.24682884
-0.17359152
0.050895776
-0.032165334
-0.01021497
0.23180031
-0.19759527
0.076164135
-0.036061432
0.0013772705
0.23994096
-0.2003478
0.061404903
-0.036766294
7.9039271e-05
0.24625405
-0.14439118
0.032709952
-0.046850194
-0.0036586792
0.2430127
-0.15016482
0.045050048
-0.018262681
-0.0085014478
0.23981102
-0.15112364
0.045478445
-0.025360826
-0.0054468095
0.23773899
-0.15963132
0.042567778
-0.041646202
-0.0088492754
0.23836755
-0.16557551
0.037647568
-0.065593708
0.007222805
0.2371624
-0.20882795
0.041232579
-0.037911062
0.0064134655
0.235266
-0.18780563
0.052053645
-0.070110001
0.0096879532
0.23975426
-0.16440209
0.027476454
-0.056413312
0.0031842208
0.23799036
-0.15496179
0.062908916
-0.052569068
-0.023320773
0.24283203
-0.1358303
0.047670041
-0.012148961
-0.0039847137
0.24294503
-0.13561747
0.047781355
-0.011829521
-0.0037678395
0.238085
-0.15457476
0.062947458
-0.05210381
-0.022936574
0.23983701
-0.16414915
0.027772778
-0.05582933
0.0036990511
0.23531429
-0.18754761
0.052399841
-0.069328206
0.010413287
0.23723373
-0.20849764
0.041772446
-0.037159267
0.0072250201
0.23850659
-0.16536819
0.038166815
-0.064834912
0.0080248227
0.23783887
-0.15942113
0.043012451
-0.040974346
-0.0081298792
0.23989883
-0.15094829
0.045808366
-0.024832874
-0.0048983823
0.24307096
-0.150033
0.045304539
-0.017923935
-0.0081113206
0.24630626
-0.14430185
0.032817234
-0.046656936
-0.0034029513
0.23997274
-0.2003274
0.061479536
-0.036647186
0.00018008749
0.23182408
-0.19760968
0.076159032
-0.036039041
0.0013524464
0.24685543
-0.17361314
0.050837812
-0.032211508
-0.010305114
0.22308693
-0.1983214
0.069266841
-0.035251147
-0.0059936598
0.23102612
-0.1979592
0.075536141
-0.022498853
-0.0053954705
)
;
    }
    bottomWater_to_rightSolid
    {
        type            fixedFluxPressure;
        gradient        uniform 0;
        value           nonuniform List<scalar> 
130
(
0.0037098209
0.010442307
0.007164004
0.0079236229
-0.0083035613
-0.0051934341
-0.0085342892
-0.0039493562
-0.00049275512
0.00059161474
-0.011102825
-0.0067931675
-0.0061862696
0.0065556248
0.0071952784
0.022244879
0.0057143543
0.012659339
-0.0065154402
-0.0073240628
0.0087279242
-0.0082148216
0.011041971
-0.0058718742
0.0059298223
0.0053073081
0.019306736
0.026364537
0.029352827
0.018191312
0.018049913
0.01236403
0.016139653
0.039599438
0.026013941
0.018491029
0.0072894475
0.01447355
0.0062427603
0.021944903
0.02130529
0.028554412
0.017930309
0.00072807075
0.021557888
0.01465981
0.029856538
0.0090316387
0.014884695
0.0052522545
-0.007467727
-0.0080396005
0.009001767
0.0079672627
0.012572836
0.0044953029
0.00049373041
-0.00045868544
0.01829391
0.016672269
0.019543629
0.013535378
-0.0041026761
-0.013370663
-0.0049521077
0.0089846562
0.0079681615
0.012679003
0.0045480384
0.00057943291
-0.00027654436
0.018597708
0.017177076
0.020353241
0.014541267
-0.0033132249
-0.012850617
-0.0045206524
0.021796332
0.021238489
0.028536056
0.017952527
0.00081922775
0.021983662
0.015363464
0.031048305
0.011078163
0.017981605
0.0074162176
-0.0060512948
-0.0069783054
0.019208894
0.026295078
0.029264842
0.017903888
0.016877547
0.012364615
0.016703439
0.04060251
0.027473921
0.02031681
0.0088785499
0.015743775
0.0073331766
0.0065127967
0.0071484021
0.022276782
0.0057381337
0.012668849
-0.0062544717
-0.0068459338
0.0094333966
-0.0073188062
0.012076431
-0.004832991
0.0068920966
0.0062019491
0.0036990511
0.010413287
0.0072250201
0.0080248227
-0.0081298792
-0.0048983823
-0.0081113206
-0.0034029513
0.00018008749
0.0013524464
-0.010305114
-0.0059936598
-0.0053954705
)
;
    }
    bottomWater_to_leftSolid
    {
        type            fixedFluxPressure;
        gradient        uniform 0;
        value           nonuniform List<scalar> 
130
(
-0.0064662751
-0.0070820129
-0.011402776
0.00027055334
-0.0008419954
-0.0043304318
-0.0088615574
-0.0055323934
-0.0086719653
0.0075937534
0.0068667897
0.01019604
0.00366445
0.0049774818
0.005603291
-0.0062266578
0.010685302
-0.0086065261
0.0083591563
-0.0077098446
-0.0068955137
0.012175645
0.0052727931
0.021837272
0.0068088367
0.0063667784
0.0059162087
0.014098744
0.0068063653
0.017921351
0.02546869
0.039120807
0.015705557
0.011786565
0.017183807
0.017397043
0.028503429
0.025712354
0.018843805
-0.0083546682
-0.0078747791
0.0046084902
0.013949621
0.0083170623
0.029296018
0.01424657
0.02119168
-5.9258685e-05
0.016746717
0.02721013
0.020081399
0.020970463
-0.005069769
-0.013556631
-0.0043496096
0.013210985
0.019200829
0.016253118
0.017764782
-0.0012188555
-0.0006132551
0.003036142
0.010905041
0.0063787945
0.0075011146
-0.0044040232
-0.012623458
-0.0030319317
0.014788531
0.020341529
0.016909131
0.01803481
-0.001242367
-0.00091305243
0.0025188046
0.010370947
0.005803666
0.007081204
-0.0066633321
-0.0056045825
0.0081467472
0.019049823
0.011555396
0.030996199
0.01489034
0.020983206
-0.00091776464
0.015331114
0.025370609
0.018690716
0.020015952
0.0076134074
0.016081617
0.0093125218
0.020787123
0.027706724
0.040479462
0.016215355
0.011366508
0.015170053
0.016017128
0.027229191
0.02457002
0.017977085
0.0063953569
0.0070928274
-0.0046478499
0.012215787
-0.0073273759
0.0092265244
-0.0072852338
-0.0069373715
0.01167856
0.0046033496
0.021106723
0.0060937633
0.0057526348
-0.0052620007
-0.0058762741
-0.01021497
0.0013772705
7.9039271e-05
-0.0036586792
-0.0085014478
-0.0054468095
-0.0088492754
0.007222805
0.0064134655
0.0096879532
0.0031842208
)
;
    }
    bottomWater_to_heater
    {
        type            fixedFluxPressure;
        gradient        uniform 0;
        value           nonuniform List<scalar> 
92
(
-0.02289395
-0.0038329373
-0.0035342451
-0.02271258
-0.0044101361
-0.013702588
-0.0138432
-0.0042185444
0.013543053
0.0079239821
0.0070247931
0.013856615
0.23608112
0.23602252
0.23597221
0.23606451
-0.19097151
-0.17694021
-0.17698544
-0.19072032
0.052159294
0.060397297
0.060874902
0.052454145
-0.10907614
-0.046910299
-0.047015981
-0.10852623
0.014335311
0.014335311
0.0022764626
0.0022764626
0.002496717
0.002496717
0.014877585
0.014877585
0.23645098
0.23647372
-0.20184385
-0.20134548
0.069398496
0.070442569
-0.019047719
-0.017636721
0.0075011146
0.009001767
0.23647286
0.23611177
0.23597843
0.23597877
0.23647845
0.23608703
-0.20183416
-0.19110823
-0.17713094
-0.17707124
-0.20135557
-0.1907956
0.068971916
0.051692987
0.0602386
0.060590347
0.070442152
0.052367794
-0.019525875
-0.10985444
-0.047439517
-0.047225956
-0.017652949
-0.10887697
0.007081204
0.013637656
0.0018199248
0.0021385053
0.0089846562
0.014624271
0.013637656
0.0018199248
0.0021385053
0.014624271
0.012862209
0.0073320183
0.0071824883
0.013593944
-0.0049516148
-0.013975061
-0.013887213
-0.0044556808
-0.023320773
-0.0039847137
-0.0037678395
-0.022936574
)
;
    }
}


// ************************************************************************* //
