/*--------------------------------*- C++ -*----------------------------------*\
| =========                 |                                                 |
| \\      /  F ield         | OpenFOAM: The Open Source CFD Toolbox           |
|  \\    /   O peration     | Version:  v2012                                 |
|   \\  /    A nd           | Website:  www.openfoam.com                      |
|    \\/     M anipulation  |                                                 |
\*---------------------------------------------------------------------------*/
FoamFile
{
    version     2.0;
    format      ascii;
    class       surfaceScalarField;
    location    "60/bottomWater";
    object      phi;
}
// * * * * * * * * * * * * * * * * * * * * * * * * * * * * * * * * * * * * * //

dimensions      [1 0 -1 0 0 0 0];
oriented        oriented;


internalField   nonuniform List<scalar> 
3858
(
-0.0001528411
0.00013983481
1.4013752e-05
-0.00026333825
7.6870183e-05
3.7091314e-05
-0.0001644251
-0.00019655172
9.4582756e-05
-0.00028422871
0.00010781421
1.3020666e-05
-0.00028595323
1.4204308e-05
-1.3726835e-05
-0.00012163463
-0.00018065143
1.3301314e-05
4.0663739e-05
-0.00026951804
0.00010502906
0.00013678833
-0.00021644825
0.00011901321
0.0001828642
-0.0001742107
0.0001275258
0.00012802015
-8.4819189e-05
0.00013877895
-9.6401283e-05
0.00011323822
0.00011055007
-0.0002488393
3.3636758e-05
0.00011874969
-0.00020696778
-0.00015793329
0.00011499512
-0.00016726441
-0.00011150335
7.1058006e-05
-2.8631833e-06
-0.00026091057
9.4369258e-05
0.00016524111
-0.00026424734
9.3927725e-05
0.0002081076
-0.00011632693
7.2676537e-05
0.00025059943
-0.00015963042
0.00011605017
9.7631889e-05
3.3446709e-05
0.00011947283
-0.00012721614
0.00011295991
0.00011123777
-0.00018246211
-8.4811839e-05
0.00013914011
-0.00013660166
-0.00017425792
0.00012776116
-4.0500105e-05
-0.00021652943
0.00011909154
0.00012166001
-0.00026930298
0.00010493708
0.00028602943
-0.0001804135
1.2994792e-05
0.00028418351
1.4416419e-05
-1.3827309e-05
0.00016431904
0.00010791986
1.2967096e-05
0.00026343602
-0.00019684981
9.4660174e-05
0.0001528907
7.6901528e-05
3.7107268e-05
0.00013987941
1.4012955e-05
-0.00018047565
0.00033612877
-1.5818313e-05
-0.00016030012
-4.4926475e-05
0.00010162113
-2.4840566e-05
-0.00045832963
0.00012631835
-0.00024881114
0.00029874152
3.3043264e-05
-0.00044186624
0.00028896762
-8.1708211e-05
-0.00016238657
-0.00039310529
-6.7025807e-05
1.3369461e-05
-0.00056545312
0.00012017905
0.00016563649
-0.00048551975
0.00011680447
0.00029740918
-0.00043182317
0.0001258398
0.00028668855
-0.00024805472
0.00017395617
-0.00024994378
0.00049029931
0.00015957124
-0.00041895365
-1.8451802e-06
0.00020449181
-0.00027475697
-0.00044814483
0.00014601487
-0.00020838839
-0.00023315359
5.5281668e-05
-2.16807e-06
-0.00051523746
4.8106567e-05
0.0002057375
-0.00051936785
4.7214938e-05
0.00027495596
-0.00024256244
5.7017038e-05
0.00041941534
-0.00045016749
0.00014607768
0.00025051916
-1.973292e-06
0.00020431617
-0.00028602921
0.00048964268
0.00015986558
-0.00029713782
-0.00024775084
0.0001740476
-0.00016547982
-0.00043199176
0.00012607583
-1.3267992e-05
-0.000485804
0.00011706273
0.0001624883
-0.0005651807
0.00012012143
0.00044188477
-0.00039262556
-6.7184397e-05
0.00024829556
0.000289707
-8.170137e-05
2.4407942e-05
0.00029876191
3.3045569e-05
0.00016012698
-0.00045882095
0.0001262521
0.00018036934
-4.4943771e-05
0.00010160294
0.00033620006
-1.5951321e-05
0.00011859319
0.00015357085
6.3964724e-05
0.00018718684
-0.00017417952
6.0659394e-05
-5.4816114e-05
-0.00025901203
4.2685343e-05
-7.1201312e-05
0.00019324841
0.0001218783
-2.5344952e-05
0.00022235863
2.0752625e-05
-8.0058655e-05
-0.00016088829
-0.00017750331
-3.1127256e-05
-0.00045919033
-0.00015519419
9.3315463e-05
-0.00044340882
-0.00016655364
0.00010593299
-0.00029698186
-0.00014745884
1.8182612e-05
-8.1423638e-05
-7.8880692e-05
0.00010137198
0.00038437364
2.2736318e-05
0.00013151682
-6.8382944e-05
3.6392943e-05
-0.00011763648
-0.00011032198
-8.8669547e-05
-4.7250839e-05
-0.0003033892
-1.5002664e-07
1.3024782e-06
-0.00048264766
-8.1143119e-05
4.8471063e-05
-0.00048514878
-8.1387665e-05
0.00011560778
-0.00030808137
-1.6178004e-06
-0.00013373688
-0.00011136689
-8.9455967e-05
-0.00010308753
-6.8299704e-05
3.5677048e-05
-1.9245967e-05
0.00038301197
2.2789122e-05
-0.00010647817
-8.1485105e-05
-7.903354e-05
-9.3266318e-05
-0.00029753447
-0.00014766915
3.1248094e-05
-0.00044372747
-0.00016659094
8.0119824e-05
-0.00045893731
-0.00015511512
2.5151557e-05
-0.0001604105
-0.00017724679
7.1197339e-05
0.00022296584
2.0695382e-05
5.4864784e-05
0.00019321021
0.00012188426
-0.00018730553
-0.00025915101
4.2500382e-05
-0.00011868058
-0.00017416115
6.0592426e-05
0.0001535772
6.394229e-05
0.00013321127
-0.00010519113
0.0001255507
3.2767464e-05
-0.00013807875
6.4343036e-05
-6.3628297e-05
-0.0002106988
4.8082529e-05
-4.2082661e-05
7.3831906e-05
9.7870866e-05
-3.3483556e-05
0.00011579886
9.7960657e-05
-3.6169832e-05
-0.00011107406
-4.712795e-05
2.0295023e-05
-0.00043997179
-7.5683394e-05
7.0532486e-05
-0.00041777815
-7.5868127e-05
1.1214743e-05
-0.00021014155
-2.7522553e-05
-8.6933913e-05
9.8302667e-05
-8.1577637e-05
0.00016998747
0.00011475358
1.2698691e-05
7.4081273e-05
0.0001152197
-8.7696428e-05
-3.3466945e-05
3.2181718e-05
-3.495547e-05
-2.1784704e-05
-0.00033435381
1.9282375e-05
2.8034849e-07
-0.00045421715
-5.0495569e-05
2.1661273e-05
-0.00045609733
-5.04324e-05
3.3938739e-05
-0.0003401211
1.9762242e-05
-7.2719335e-05
3.0625882e-05
-3.5334726e-05
-0.00016926767
0.00011565858
-8.7409981e-05
8.6452858e-05
0.00011468319
1.260824e-05
-1.1643321e-05
9.7976722e-05
-8.1365669e-05
-7.0679086e-05
-0.00021074505
-2.7753669e-05
-2.0431461e-05
-0.00041799774
-7.5977364e-05
3.5993838e-05
-0.00043962481
-7.5737802e-05
3.3043202e-05
-0.00011029435
-4.7165515e-05
4.2045794e-05
0.00011594223
9.802102e-05
6.3805893e-05
7.3656752e-05
9.7793357e-05
-3.2623319e-05
-0.00021074338
4.8021582e-05
-0.00013312143
-0.00013802894
6.4365905e-05
-0.00010517316
0.00012562893
-5.6990262e-05
-4.8200871e-05
-0.00011263235
-8.2436671e-05
-0.00020610996
-0.00011722119
-5.083696e-05
-8.1441104e-05
0.00012095463
-5.5992734e-05
0.00021925326
-0.00020937269
4.1674531e-06
-0.00022488598
-0.00024847914
-0.00016513156
-0.00029969341
-0.00015892727
-0.00012182326
-7.9567463e-05
7.9420681e-05
-8.6490355e-05
0.00029040555
-9.5765163e-05
0.00044676734
-0.00012418007
0.00029953865
-0.00018712512
3.8929669e-06
-0.00015857147
-0.00029494198
-0.00015726239
-0.00044649307
-0.00018857003
-0.00029132289
-0.00012454432
-7.988138e-05
-9.5782947e-05
0.0001215044
-8.6702609e-05
0.00029914237
-7.966126e-05
0.00024752425
-0.00015912694
-5.0090317e-06
-0.00016546447
-0.00021972225
-0.00022491159
-0.0001207889
-0.0002092277
5.1097844e-05
-5.5944521e-05
0.00020621909
-8.1464489e-05
0.00011262248
-0.00011714677
5.6965385e-05
-8.2371838e-05
-4.8207769e-05
-0.00010105594
0.00012242065
-6.7156668e-06
-0.00019432396
0.00014116567
-9.5817932e-06
-0.00021173165
0.00011410179
-1.3554205e-06
-0.00025389
0.00011176222
-5.3135601e-05
-3.8306218e-05
-0.00026076578
2.8984151e-05
0.00016722331
-0.0002219568
2.6474985e-05
0.00015020109
7.5712606e-05
4.8078522e-05
9.2178513e-05
9.4756972e-05
8.5197659e-05
5.7865036e-05
6.2791642e-05
0.00010146515
-1.4858203e-05
0.00012182672
9.0346571e-05
-0.00013592553
0.00013226061
9.8820098e-05
-0.00024386658
0.00014404427
8.3645042e-05
-0.00025415986
1.9758385e-05
0.00010613205
-0.00012732302
-0.00018266481
0.00012529706
-1.7697859e-06
-0.00017200131
0.00014007697
0.00012736607
-0.00017710135
0.00014106455
0.00025495162
-0.00018247462
0.00012602212
0.0002449765
1.9503168e-05
0.00010712887
0.00013665622
0.00014418357
8.4614663e-05
1.5505605e-05
0.00013249844
9.9360606e-05
-5.718223e-05
0.00012186932
9.0613753e-05
-9.2313326e-05
6.3927838e-05
0.00010136191
-0.00015085354
9.5425649e-05
8.5084331e-05
-0.00016762875
7.570365e-05
4.7738641e-05
3.8563051e-05
-0.00022270675
2.6238361e-05
0.00025391382
-0.00026054842
2.8894584e-05
0.00021161203
0.00011212621
-5.3406851e-05
0.00019422383
0.00011419726
-1.394988e-06
0.00010098138
0.00014117717
-9.6041109e-06
0.00012238693
-6.7591886e-06
-9.5758888e-05
0.00025408703
-5.1725806e-05
-0.00027968017
0.00044926374
-2.2555665e-05
-0.0002760338
0.00021809462
1.8679145e-05
-0.00012485179
-2.4889209e-05
1.8512678e-05
1.2205297e-05
-0.00060435305
0.00012482197
0.00013779688
-0.00051899752
0.00010442332
0.00017826021
1.7336278e-06
0.00015369471
0.00021920268
1.4898286e-05
0.00015572069
0.00033396038
-6.2480271e-05
0.00013635402
0.00014602297
0.00035419541
0.0001295249
-0.00025404321
0.00059415234
9.7745692e-05
-0.00046962357
0.00041572604
0.00014839041
-0.00041387782
-4.9463124e-05
0.00015949064
-0.00017393756
-0.00047722315
0.00010989976
-1.6469037e-06
-0.00041957018
0.00012338477
0.00017351682
-0.00042846626
0.00012341612
0.00041345736
-0.0004766567
0.00011125857
0.00046911894
-5.0207077e-05
0.00016012634
0.00025402395
0.00041451477
0.00014907994
-0.00014590604
0.00059382435
9.8469661e-05
-0.00033366536
0.00035359377
0.00013008246
-0.00021898447
-6.1542595e-05
0.00013686538
-0.00017867851
1.6098588e-05
0.00015608383
-0.0001379195
1.6064822e-06
0.00015345958
-1.2199629e-05
-0.00052002557
0.00010441455
0.00012480396
-0.00060397933
0.00012472595
0.00027639054
-2.4573123e-05
1.8158325e-05
0.00027960008
0.00021859407
1.8645769e-05
9.5514427e-05
0.0004492942
-2.2428436e-05
0.00025368833
-5.1738293e-05
2.5802334e-05
0.00014252093
0.00014972848
1.7810889e-05
0.00035057448
0.00016734009
0.00017265509
7.536532e-05
3.0570441e-05
0.00032975863
-7.2152918e-05
1.2038462e-05
2.1722975e-05
-0.00018273834
-9.2826437e-05
-0.00030392351
-8.2442141e-05
-0.00028841221
-0.00010375757
-0.00023658666
-0.00011703984
0.00010104275
-0.00031308131
-4.3374364e-05
8.5325216e-05
-8.9165317e-05
-0.00010505625
5.2781851e-05
0.00026932304
3.8535055e-05
-4.199255e-06
0.00061419054
5.9679236e-05
0.00010240184
0.00032413386
2.1384044e-05
0.00014888728
-8.1611227e-05
-0.00010300688
-6.724386e-05
-0.00010413716
-0.00015710487
-1.3860288e-06
-0.00042157263
-0.00014499851
6.6097389e-05
-0.0004303533
-0.00014698405
-0.00014927325
-0.000105981
-0.00015692288
-0.00010387186
-8.1632155e-05
-0.0001034323
2.6398218e-06
0.00032243589
2.1244224e-05
-5.3792386e-05
0.00061344421
5.9601459e-05
-8.5935543e-05
0.00026817861
3.8524763e-05
-0.00010096502
-8.9245805e-05
-0.00010493648
0.00010429113
-0.00031265896
-4.3089546e-05
0.00030399714
-0.00023611035
-0.0001171043
-2.2285497e-05
-8.2571555e-05
-0.00028841817
-0.00033022082
-0.00018275718
-9.2591447e-05
-0.00017253521
-7.2196919e-05
1.1822453e-05
-1.761561e-05
7.5642638e-05
3.0532213e-05
-2.5796082e-05
0.00035070882
0.00016735828
0.00014209141
0.00014974313
-2.5768002e-05
0.00018268691
0.00011115272
0.00010670529
0.00011983023
0.000162614
0.00021238459
-2.810161e-05
4.5870149e-05
0.0001246492
0.00010758425
5.8690821e-06
9.918012e-05
-0.00010771865
4.8410043e-05
1.1990547e-05
7.5360914e-05
-0.00011774143
4.2926237e-06
-0.00019024443
-0.00011432769
4.9054504e-06
-0.00030084599
-8.8716266e-05
-0.00014332843
0.00015005727
-0.00011851125
-0.00010561063
0.00014289296
7.1346544e-06
0.00010842377
0.00035365903
5.919582e-05
0.00027382345
0.00013086088
-5.9823119e-05
0.00018210057
9.7189971e-05
-0.00012203378
2.0948537e-06
5.8037425e-05
3.7113505e-05
-1.3731802e-06
-0.00040898885
-5.9611322e-05
-6.1565007e-07
-0.00042040965
-6.1133595e-05
-0.00017853999
5.2114979e-05
3.9590585e-05
-0.00027262818
9.8513328e-05
-0.00012139205
-0.00010850564
0.00013058242
-5.9679078e-05
0.00010521222
0.00035329049
5.904407e-05
0.00014268152
0.00014242496
6.9186611e-06
-5.4979909e-06
0.00014974758
-0.00011856755
-4.2686534e-06
-0.0003010279
-8.8837767e-05
-1.2275968e-05
-0.00018946414
-0.0001143767
-9.965785e-05
7.5368615e-05
-0.0001177238
-0.00012490094
-0.00010768462
4.8191554e-05
-0.00021218372
0.0001070848
5.7944229e-06
-0.00010612645
-2.8398815e-05
4.6005769e-05
2.6282653e-05
0.00011997216
0.00016269347
0.00018289337
0.00011110962
3.5815803e-05
9.8670227e-05
3.6184243e-05
3.7025109e-05
-1.2195469e-05
-9.6943094e-05
8.7207986e-05
-7.3260313e-05
7.928903e-05
-0.00015579243
0.00019824812
-0.00025297087
3.6158412e-05
-0.00025304071
-0.00023178627
-0.00019803286
-0.00020854584
-3.2110424e-05
-0.0001244802
-2.0740132e-05
0.00013008268
1.2605808e-05
0.00026119174
-9.6013323e-05
0.00036912831
-0.00013492667
0.0003960767
-0.00015603609
7.3320236e-06
-0.00017881565
-0.00039186828
-0.00017847174
-0.00037069318
-0.00015763017
-0.00026142765
-0.00013529654
-0.00013052477
-9.6103429e-05
0.00012393128
1.2131822e-05
0.00020794693
-2.1251971e-05
0.00023097933
-3.2411758e-05
-3.6941388e-05
-0.00019857166
-0.00019831126
-0.00025300586
-7.9171956e-05
-0.00025299839
-8.6916872e-05
-0.00015588422
1.2217852e-05
-7.3514411e-05
-3.6362042e-05
-9.6965684e-05
-3.5862734e-05
3.7101019e-05
9.882287e-05
0.00014804955
-0.00010588748
-4.700311e-05
0.00011249687
0.00010275236
-7.3777199e-05
5.2738029e-05
0.00014214058
-8.1818962e-05
-3.0838013e-05
0.00013796099
-0.00010549217
-1.8568573e-05
5.3422994e-05
-3.6743835e-05
-2.4891463e-05
0.00010178542
-6.7480817e-05
-2.3377016e-05
0.00012538431
-7.8104149e-05
-1.0404873e-05
0.00012404767
-5.0936774e-05
-5.5177803e-06
0.00012911904
-3.2114029e-05
-1.9040426e-05
0.00014545968
-4.1190681e-05
-2.0620786e-05
0.00012091937
-2.1001388e-05
-5.3666436e-05
0.00012724202
-1.0514246e-05
-9.5077399e-05
0.000164565
-1.5679581e-05
-3.2688502e-05
5.3042162e-05
1.0967444e-05
6.7769855e-07
8.4925509e-05
2.4013679e-05
3.3333659e-05
8.5659629e-05
2.5001808e-05
9.5106675e-05
5.4530396e-05
1.0856415e-05
5.4104062e-05
0.00016470979
-1.5226327e-05
2.1008959e-05
0.0001276484
-9.8841881e-06
1.9498176e-05
0.0001208937
-2.0492653e-05
6.0333668e-06
0.00014545884
-4.0982239e-05
1.0809032e-05
0.00012923194
-3.223487e-05
2.3658267e-05
0.00012417073
-5.1070694e-05
2.4994538e-05
0.00012543915
-7.8328906e-05
1.8504387e-05
0.00010170384
-6.7473484e-05
3.0792141e-05
5.3394498e-05
-3.6825125e-05
-5.2860817e-05
0.0001380363
-0.00010574409
-0.00011262164
0.00014220946
-8.1919752e-05
-0.00014816773
0.00010277643
-7.3832231e-05
-0.00010605698
-4.7005752e-05
0.00023053584
-0.00038004958
-8.0995527e-06
0.00037807031
6.2295978e-06
-7.3567363e-05
0.0002629813
0.0003525008
-7.6592071e-05
3.866965e-05
0.00048602122
-0.00010523591
2.3400089e-05
0.00013277218
6.0742345e-05
3.9396989e-05
9.3225148e-05
9.6986693e-05
1.7571615e-05
0.00033621861
-3.5314213e-05
0.00012730126
0.00021925288
-4.9214167e-05
0.00021077976
0.00024808741
-6.6092853e-05
0.00017490944
0.0003341743
-2.3319399e-05
-5.5190731e-05
0.00054144234
-9.2677103e-05
-0.00026762564
0.00050613587
-1.8068527e-05
-0.00034571493
0.00035558984
4.6555094e-05
-0.00016848434
-8.0027401e-05
6.5738737e-05
9.3541751e-08
-3.2298095e-05
7.2030485e-05
0.00016721111
-3.1000003e-05
7.295817e-05
0.00034440798
-7.7820301e-05
6.6412393e-05
0.00026772163
0.00035410044
4.7422034e-05
5.6419199e-05
0.00050552583
-1.7495057e-05
-0.00017405748
0.00054192529
-9.2085252e-05
-0.0002105062
0.00033517245
-2.3182438e-05
-0.00012682408
0.00024853024
-6.6115051e-05
-1.721147e-05
0.00022005042
-4.9408482e-05
-3.9560829e-05
0.00033696935
-3.5721258e-05
-2.3919709e-05
9.3255386e-05
9.7221888e-05
-3.9526014e-05
0.00013323862
6.0488136e-05
-0.00026365379
0.00048584748
-0.00010552507
-0.00037825567
0.00035206645
-7.660934e-05
-0.00023059216
6.1221907e-06
-7.3437711e-05
-0.00038037415
-8.013279e-06
-0.0001590014
-0.00017002817
9.8708476e-05
-4.8554711e-05
-4.3250304e-05
0.00010637331
4.3087661e-05
0.00026010965
3.1319212e-05
1.8357479e-05
0.00043530239
8.7487471e-05
7.5494429e-05
3.7828746e-05
-5.5019954e-05
-1.3223414e-05
2.0513478e-05
-0.0001269827
3.4493739e-05
0.00021817425
-4.6712636e-05
0.00012448067
-1.4410872e-05
0.00010030246
9.1883413e-05
0.00010775267
6.7875767e-05
7.1520023e-05
0.00023896416
0.0001541086
-7.4489805e-06
0.00049914796
0.00018094263
-1.530869e-05
0.00051531025
2.0069385e-05
-1.2725204e-05
0.00027675501
-2.6755532e-05
-0.00010582442
-0.00012002139
-2.4011667e-05
-8.4243623e-06
-0.000258846
-1.5850664e-05
0.00010044259
-0.00027086953
-1.5981493e-05
1.2054457e-05
-0.00012056336
-2.5791708e-05
1.4318841e-05
0.00027533011
-2.6926375e-05
7.3338813e-06
0.00051419502
1.9559979e-05
-7.1543262e-05
0.00049969358
0.00018071029
-9.1849561e-05
0.0002397976
0.0001542059
-0.00012429516
0.00010805202
6.7987332e-05
-3.4704579e-05
-1.3120043e-05
0.00010049034
1.2821528e-05
0.00021898298
-4.6644037e-05
-7.5753647e-05
2.0455229e-05
-0.00012704283
-1.8520982e-05
3.8269374e-05
-5.4854864e-05
-4.3382791e-05
0.0004351285
8.7403242e-05
4.8522433e-05
0.00025953146
3.1161992e-05
0.00015909509
-4.3388855e-05
0.00010629668
-0.0001701728
9.8636872e-05
-2.2934984e-05
-9.2811736e-05
5.6871261e-05
-0.00012915831
0.00014961047
7.5976546e-05
1.5341526e-05
0.0001098039
5.1676054e-05
0.00024194291
0.0001866326
2.7937484e-05
0.00015004543
0.00021349096
-3.5354692e-05
-0.00010117635
0.00029731401
-0.00014332019
-8.6477774e-05
0.00014196867
-5.2820686e-05
-4.4445002e-05
-0.00011719293
-2.7966967e-05
-5.6895345e-05
9.2759117e-06
-7.5841347e-06
-4.8781848e-05
0.00017102758
6.6957751e-05
6.748231e-05
0.00029037881
0.00015170084
0.00021344806
0.00030693152
2.5898696e-06
0.00033766563
0.00014738379
-0.00011688012
9.3308749e-05
0.00014760617
1.3842821e-05
-8.3106865e-06
-0.00019972424
-1.7113654e-05
-9.9366709e-05
-0.00022224891
-1.8698207e-05
-0.00033697773
0.00014157854
1.5059683e-05
-0.00021420158
0.00014775672
-0.00011659483
-6.8006533e-05
0.00030604154
2.2793287e-06
4.821622e-05
0.00029099484
0.00015152005
5.6716385e-05
0.00017106867
6.7147407e-05
4.4417362e-05
9.3009377e-06
-7.5174661e-06
8.6490711e-05
-0.00011623556
-2.7795603e-05
0.00010150768
0.00014204182
-5.2452521e-05
-0.0001498326
0.0002973047
-0.000143233
-0.00024166024
0.0002136776
-3.5389018e-05
-1.5110071e-05
0.00018670388
2.7668882e-05
0.00012923092
0.00010953063
5.1665606e-05
2.303307e-05
0.00014930998
7.6192487e-05
-9.2899225e-05
5.6869123e-05
-0.00016317551
0.000169034
-0.00011820317
0.00014166324
-0.00013056837
2.5226007e-05
-3.639915e-05
1.9203056e-05
4.6051165e-05
-2.4751788e-05
0.00017353961
-8.3145293e-05
0.00016911034
-0.00010664277
-5.1199464e-05
-9.4915981e-05
-0.00019520246
0.0001211685
-0.00014510273
0.00010018772
4.1043427e-05
0.00011683847
0.00022690295
2.5058682e-05
0.0003052297
-6.5869617e-05
0.00034663812
-4.9838347e-05
1.25419e-05
-4.4443682e-05
-0.00034096751
-4.7211264e-05
-0.00030633947
-5.0679686e-05
-0.0002272455
-6.6633808e-05
-4.196929e-05
2.4661884e-05
0.00014457606
0.00011658129
0.00019480881
9.9583944e-05
5.0777192e-05
0.00012092079
-0.00016903316
-9.499688e-05
-0.00017345269
-0.0001065445
-4.5988776e-05
-8.3157609e-05
3.6551467e-05
-2.4746866e-05
0.00013079456
1.8946379e-05
0.00011828409
2.5075424e-05
0.00016310675
0.00014158835
0.0001690304
0.00010407254
-0.00010256297
-4.7821823e-05
0.00014783037
-8.3793612e-05
-3.3561346e-05
0.00017561756
-0.00010078077
-9.7798432e-06
9.8765809e-05
6.1288695e-05
-8.9405843e-05
3.7385293e-05
0.00013032281
-0.00010644121
-5.0406667e-05
0.00012521293
-0.000106012
-0.00012348666
0.00012173777
-0.00012650344
-0.000149014
0.00010710169
-0.00013119222
-8.0547724e-05
3.5460212e-05
-0.00013425987
9.7304385e-05
-0.0001237438
-9.5964847e-05
0.00011377861
5.1687474e-05
-8.8679782e-05
1.0606539e-05
0.00013143455
-3.8962493e-05
-9.0782178e-05
0.00013137961
-4.669399e-05
-0.00013716693
5.6860765e-05
1.8732611e-07
-0.00011383742
0.0001367311
-0.00011202583
8.9670784e-05
5.7428865e-05
-1.130458e-05
0.00013146113
-4.6735901e-05
-0.00011380738
0.00013139321
-3.8918279e-05
-9.7149337e-05
5.2042885e-05
-8.8560864e-05
8.0673677e-05
-0.000123395
-9.6019662e-05
0.00014900628
3.5430245e-05
-0.00013423026
0.000123455
0.00010699487
-0.00013122182
5.0334386e-05
0.00012165934
-0.0001266142
-3.7255249e-05
0.00012513789
-0.00010613251
-9.8546955e-05
0.00013033852
-0.00010659138
-0.00017551484
6.1374159e-05
-8.9517077e-05
-0.00014769256
-0.00010080998
-9.8296296e-06
-0.00010416472
-8.3521621e-05
-3.3647518e-05
-0.0001026524
-4.7832128e-05
0.0001989214
-0.0003036261
-5.9578266e-06
0.00026778856
-0.00027074348
4.4515341e-05
0.00037990964
-0.00035618848
6.6694561e-05
0.00040082006
4.3672155e-05
-0.0001085298
0.00023578914
0.00050800655
-0.00015191048
-0.00010558852
0.00063430349
-7.0726207e-05
-0.00034034855
0.00048875138
-0.00016756779
-0.00022001922
7.3155781e-05
-0.00013559759
-2.4708938e-05
-7.2125893e-05
-0.00015381702
0.00029774496
-0.00039089284
-7.8624246e-05
0.00030735212
4.7843701e-05
-9.8440483e-05
-5.1988953e-05
0.00054623637
-7.3529269e-05
-0.00044992041
0.00062176318
-4.5897014e-05
-0.00033561342
8.2925149e-06
5.366795e-07
-0.00037795704
0.00033523036
-0.00037376135
0.00044962076
9.4508471e-06
5.1686102e-05
0.00062254769
-4.5729874e-05
-0.00030699739
0.00054613144
-7.3549793e-05
-0.00029786978
4.9447378e-05
-9.8617368e-05
2.463795e-05
-0.00039031171
-7.8773458e-05
0.00021987113
-7.2159229e-05
-0.00015375876
0.00034049593
7.2617689e-05
-0.00013565611
0.00010583296
0.00048832269
-0.00016772164
-0.00023566466
0.00063452884
-7.0671446e-05
-0.00040104646
0.00050834629
-0.00015213783
-0.00038018259
4.3603041e-05
-0.00010861782
-0.00026778014
-0.00035651717
6.6695417e-05
-0.00019909298
-0.00027013562
4.4489136e-05
-0.00030382545
-5.9332079e-06
0.00010249376
-0.00035871136
5.129998e-05
0.00014399883
-0.00018058719
-2.5288054e-05
-5.9217787e-05
-0.00011024336
-1.1409294e-05
8.9386877e-06
-3.5818154e-05
9.8821302e-05
5.6472383e-05
0.00038828782
1.7165078e-05
-5.5641856e-05
0.00061612919
3.3058386e-06
-9.1650386e-05
0.00044095919
3.7088087e-05
2.2187758e-05
-2.3732626e-05
8.3352734e-05
0.00019765709
-0.00031446505
0.00013474559
-3.0870367e-05
-0.00010470957
9.6452802e-05
-4.0763208e-05
1.190511e-05
0.00022677407
-4.6848426e-05
0.00051950277
5.2888208e-05
9.3014475e-06
0.00058178025
-4.292247e-05
5.5228012e-05
-6.1645718e-05
5.398613e-07
-0.00033911956
-5.278986e-05
-0.00033641313
-7.4794264e-06
-6.1651308e-05
4.7049785e-05
0.00058329932
-4.2207228e-05
4.0411694e-05
0.00051958888
5.2740613e-05
3.1248778e-05
1.2537771e-05
0.0002267828
-0.00019724022
-0.00010416376
9.6546939e-05
-2.1987824e-05
-0.00031436942
0.00013494511
9.1994982e-05
-2.4327186e-05
8.3452399e-05
5.5858713e-05
0.00044032493
3.7489992e-05
-5.6459137e-05
0.00061645009
3.3537727e-06
-8.6569371e-06
0.00038883374
1.6855485e-05
5.9161664e-05
-3.5913526e-05
9.9101214e-05
-0.00014444576
-0.00011029328
-1.1454463e-05
-0.0001023473
-0.00018060969
-2.5327713e-05
-0.00035878804
5.1252168e-05
1.6596906e-05
-0.00035032877
3.1891754e-05
5.9851147e-06
-0.00010826596
1.4267096e-05
-0.00012558145
8.9477509e-05
-1.6478254e-05
-0.00021242924
0.00010393879
-2.4971678e-05
-3.744376e-05
0.00011802151
5.9926143e-05
0.00010949736
0.00034233393
-1.6466045e-05
0.00018953758
0.00023554226
7.2556022e-05
7.3272312e-05
6.8573916e-05
-4.0082272e-06
3.9386578e-05
-0.000336169
4.8005564e-05
-7.2108975e-05
6.055219e-05
1.3191551e-05
-0.00020118453
0.0002595458
3.3135713e-05
1.9447411e-05
0.00026653943
3.4921274e-05
0.00026153742
0.00029213794
-6.9327814e-05
4.5136469e-05
0.00016859804
1.5503874e-06
-0.00031264715
-4.4621412e-05
-0.00030893956
-0.00026174082
0.00017052776
-1.9192511e-05
0.00029342476
-6.9268597e-05
0.00020146353
0.0002665148
3.4697351e-05
7.2984267e-05
0.00025943297
3.3104099e-05
-3.8618853e-05
6.1300003e-05
1.3286743e-05
-7.2751539e-05
-0.00033585838
4.8104165e-05
-0.00018943144
6.8536168e-05
-3.9790677e-06
-0.00010946284
0.00023528188
7.2621914e-05
3.7595551e-05
0.0003425344
-1.6375702e-05
0.00021266798
0.00011817213
6.0200179e-05
0.00012539078
0.00010435729
-2.5324741e-05
-6.2721282e-06
8.9687599e-05
-1.665235e-05
-1.6606081e-05
-0.00010832753
1.4244294e-05
-0.00035042762
3.1902631e-05
-0.00029348895
0.00011219418
-0.00036071041
0.00010061874
-0.00029935838
5.3351476e-05
-0.00020015162
2.3935092e-05
-0.00012385598
1.6974075e-05
9.3568759e-05
4.1763905e-05
0.00020163145
2.0836808e-05
0.00010426379
7.1025608e-05
-0.00023791552
0.0001271788
-0.00026159562
0.00018442002
-7.9350485e-05
0.00019413915
7.1210347e-05
0.00014103729
0.00023732752
6.0151148e-05
0.00035608722
-1.0036202e-06
-0.00035715445
-0.00023730639
-7.0595915e-05
6.0080464e-05
7.976539e-05
0.00014081537
0.00026157961
0.00019420002
0.00023808344
0.00018438011
-0.0001039891
0.00012713495
-0.00020158886
7.1139041e-05
-9.3754017e-05
2.090253e-05
0.000123773
4.1849779e-05
0.00020022263
1.6975631e-05
0.0002995718
2.3954512e-05
0.00036095922
5.3375609e-05
0.00029361147
0.00010060857
0.00011221425
0.00019314314
-0.00024194031
4.3116826e-09
0.00013814895
2.1742785e-05
6.3178438e-09
4.0996894e-05
8.7424551e-05
1.4610413e-09
8.1549908e-05
-0.00013034445
-2.2484806e-08
4.0574139e-05
-6.7114117e-05
1.0881295e-07
-0.00017423424
0.00010771027
2.8818124e-08
-0.0002443097
-5.7708928e-05
5.2522182e-08
-0.00019380222
-0.00018322245
4.309389e-08
-6.5602855e-05
-0.00026472511
2.4776102e-09
9.0629549e-05
-0.0002542165
6.9808072e-08
0.00025129273
-0.00025185505
-5.7784991e-08
0.00017488979
3.8535415e-05
4.535096e-09
0.0001276528
1.7383535e-08
-0.00017486958
0.00012767795
-7.6154559e-08
-0.00025135804
3.8736191e-05
-5.8334391e-08
-9.0685853e-05
-0.00025172634
-5.6394833e-08
6.5493002e-05
-0.00025414583
-2.307218e-09
0.00019366903
-0.00026468744
-7.4822343e-10
0.0002442794
-0.00018332748
5.1852033e-09
0.00017421797
-5.7617583e-05
-1.9033948e-08
-4.051355e-05
0.00010754003
1.9363815e-08
-8.1441154e-05
-6.7224822e-05
8.1823665e-08
-4.0745405e-05
-0.00013063212
3.9076253e-08
-0.0001379658
8.7434027e-05
1.86904e-08
-0.00019306854
2.1773386e-05
-5.218834e-09
-0.00024187224
-4.6948788e-09
0.00030628096
-0.00055417298
-6.1194674e-09
0.00030232504
7.0232434e-05
-1.8396199e-08
7.7636365e-05
0.00037881126
-3.4697724e-09
0.00020488707
-0.00036596125
-1.6370037e-07
0.00019336654
-0.00020732863
-1.7543038e-07
-0.00028341806
0.00051377574
-7.0757656e-09
-0.00032771457
-0.00018120806
2.2786203e-07
-0.00020456424
-0.00044203576
6.5391666e-08
-6.9762462e-05
-0.00055335128
7.3758333e-09
9.7685689e-05
-0.00050038748
9.8590283e-08
0.0003119788
-0.0005646725
8.3858498e-08
0.0003154343
-3.8586173e-05
1.3682273e-07
0.00039711456
7.5530044e-08
-0.00031533443
0.000397221
6.1499199e-08
-0.00031188734
-3.8387238e-05
1.2653882e-07
-9.7714236e-05
-0.00056456516
4.8343771e-08
6.9662319e-05
-0.00050033368
3.7832426e-08
0.0002044862
-0.00055330428
3.4188848e-08
0.00032751819
-0.00044205894
4.3356472e-08
0.00028366139
-0.00018161503
1.3261328e-07
-0.00019303848
0.00051352836
4.0094891e-08
-0.00020457835
-0.00020783852
1.574945e-08
-7.7324031e-05
-0.00036651526
1.1001201e-08
-0.00030225933
0.0003790596
5.1501726e-09
-0.00030629506
7.0316027e-05
-1.7767829e-08
-0.00055408732
-1.3185327e-08
-4.835685e-05
-0.00045453018
1.4029174e-08
0.00014799045
-0.00015146839
6.5462953e-08
0.00029488804
0.00022056128
-5.6908261e-08
6.4140263e-05
-3.6361505e-05
-3.0665965e-08
-7.598423e-05
-5.0267415e-05
2.283521e-07
2.061843e-05
0.00042052807
-4.9146545e-08
-2.1504189e-05
-0.00010167195
-3.2540503e-07
-7.4605115e-05
-0.00030545809
-1.2400581e-07
-3.1107628e-05
-0.00046207632
-2.6847009e-08
-8.8542185e-05
-0.0003466214
1.2128513e-07
-0.00028205371
-0.00014453445
1.4755321e-07
-0.00014911262
-0.00011874573
1.0667954e-07
0.00020498391
9.5567175e-08
0.00014909308
0.00020581863
1.0204975e-07
0.00028210977
-0.0001188924
2.2907298e-07
8.8653493e-05
-0.00014457728
2.5118651e-07
3.1226389e-05
-0.00034640882
4.917067e-08
7.4906442e-05
-0.00046204434
5.1123223e-09
2.2044081e-05
-0.00030568827
-5.5917183e-08
-2.0371282e-05
-0.00010162481
-8.4866187e-08
7.6338892e-05
0.00042019067
-1.8714096e-08
-6.392212e-05
-5.0357755e-05
-3.6426592e-07
-0.00029480946
-3.6451657e-05
-7.5037881e-08
-0.00014793936
0.0002207517
-1.6655982e-08
4.8283549e-05
-0.00015115255
-8.2029557e-08
-0.0004545229
-2.8688509e-08
-1.1462072e-05
-0.00041115979
-1.6564495e-08
4.2804753e-05
-0.00019151796
4.9843079e-08
0.00022609075
2.0859253e-05
-6.2232026e-08
5.5187848e-05
0.00010952291
4.6810896e-08
-5.2332409e-05
0.00011752567
-3.4667916e-07
0.00019731467
0.00015453093
-1.159799e-07
-1.8652459e-05
0.00018692735
-7.614388e-08
-0.00012819543
-0.000199673
-2.5033283e-07
-9.1591617e-05
-0.00045058842
-8.6148715e-08
-9.9077713e-05
-0.00032612784
1.8409115e-07
-0.00018544043
-2.5745343e-05
7.0932852e-07
-0.000236043
-3.3284358e-05
6.2474708e-08
-0.0001004113
2.4405182e-08
0.00023607806
-9.949803e-05
-3.0007966e-08
0.00018535614
-3.3592319e-05
1.1917044e-07
9.9082349e-05
-2.5722941e-05
5.2353065e-07
9.160798e-05
-0.00032571328
6.5555345e-08
0.0001281079
-0.00045040993
-3.018205e-08
1.843085e-05
-0.00019991834
-7.1951479e-08
-0.00019720964
0.00018660955
2.8030698e-08
5.2308395e-05
0.00015431746
-2.0520826e-08
-5.518634e-05
0.00011717205
1.6511207e-07
-0.00022612363
0.00010933901
-1.7810326e-07
-4.2847741e-05
2.0863883e-05
-4.041112e-08
1.1457772e-05
-0.00019112272
-9.1036911e-08
-0.00041113977
-2.2717813e-08
-0.0002988975
-6.8109511e-08
-0.00038967217
-1.2456189e-07
-0.00031538121
-8.0231086e-08
-0.00018191936
-3.8447092e-09
-4.7565772e-05
1.4615175e-07
0.00014872059
8.4731468e-09
0.00035653803
-5.3268276e-08
0.00022790668
-1.6035805e-08
-9.5369553e-05
-1.3338376e-07
-0.00023672885
-3.4852059e-07
-6.7759237e-05
-5.7580056e-07
4.0028065e-05
-3.436801e-08
-2.3209003e-07
-3.9468505e-05
5.0926443e-08
6.7868061e-05
-1.135294e-07
0.00023670339
-3.582649e-07
9.5585372e-05
-2.1516457e-07
-0.00022759165
-9.7973762e-08
-0.00035632803
-4.2935398e-08
-0.00014874826
-6.7695055e-08
4.7480278e-05
-6.1295159e-08
0.00018181872
-1.9075698e-07
0.00031521575
-1.0349527e-07
0.00038948102
-2.576018e-08
0.00029893133
3.5562769e-08
5.815213e-09
0.0001931037
-0.00024186832
4.7795499e-05
0.00013808933
2.1757469e-05
3.3592217e-05
4.0934535e-05
8.7451398e-05
9.8466011e-06
8.1869965e-05
-0.00013063696
8.9485475e-05
4.0880207e-05
-6.6309186e-05
0.00010634808
-0.0001738348
0.00010777296
0.00010598179
-0.00024424004
-5.7189155e-05
0.00012647535
-0.00019384662
-0.00018298922
0.00013115932
-6.5669212e-05
-0.00026461701
0.00013416699
9.0477329e-05
-0.00025394813
9.5878035e-05