/*--------------------------------*- C++ -*----------------------------------*\
| =========                 |                                                 |
| \\      /  F ield         | OpenFOAM: The Open Source CFD Toolbox           |
|  \\    /   O peration     | Version:  v2012                                 |
|   \\  /    A nd           | Website:  www.openfoam.com                      |
|    \\/     M anipulation  |                                                 |
\*---------------------------------------------------------------------------*/
FoamFile
{
    version     2.0;
    format      ascii;
    class       volScalarField;
    location    "440/rightSolid";
    object      T;
}
// * * * * * * * * * * * * * * * * * * * * * * * * * * * * * * * * * * * * * //

dimensions      [0 0 0 1 0 0 0];


internalField   nonuniform List<scalar> 
130
(
752.66426
760.63938
768.97419
777.27643
785.21314
792.54595
799.11575
804.82063
809.60859
813.46472
816.3659
818.30335
819.27207
746.78875
756.12158
765.6407
774.88235
783.53145
791.38382
798.32004
804.28158
809.24213
813.20807
816.18566
818.16954
819.16028
734.97344
747.40043
759.45193
770.58901
780.59832
789.40417
796.98989
803.38735
808.64201
812.80029
815.9029
817.96402
818.99356
717.25904
735.50844
751.64256
765.50317
777.29366
787.24966
795.58455
802.47104
808.04711
812.41934
815.66185
817.8039
818.86889
696.33288
724.15467
745.1264
761.60082
774.89256
785.73373
794.61876
801.84917
807.65171
812.18548
815.51607
817.70578
818.7922
696.1393
723.9787
744.9623
761.45312
774.75126
785.61188
794.51404
801.76197
807.58382
812.12475
815.46211
817.65692
818.74713
716.62949
734.91972
751.11388
765.02183
776.84273
786.85123
795.23483
802.16922
807.80153
812.2278
815.49833
817.65795
818.73337
734.00356
746.49849
758.63372
769.85154
779.92143
788.78129
796.42805
802.89158
808.22221
812.46107
815.61972
817.7141
818.75991
745.61036
755.03116
764.65277
773.97731
782.68949
790.60332
797.60986
803.65077
808.70517
812.76805
815.81669
817.84731
818.86381
751.36089
759.4446
767.89526
776.28166
784.28688
791.68834
798.33892
804.14286
809.03537
812.98239
815.96025
817.9552
818.95784
)
;

boundaryField
{
    maxX
    {
        type            zeroGradient;
    }
    minZ
    {
        type            zeroGradient;
    }
    maxZ
    {
        type            zeroGradient;
    }
    rightSolid_to_bottomWater
    {
        type            compressible::turbulentTemperatureCoupledBaffleMixed;
        refValue        nonuniform List<scalar> 
130
(
941.79358
938.27458
934.24396
934.825
935.73485
936.70278
937.86199
938.12518
937.52985
939.34561
939.9235
940.32392
940.1368
940.01725
938.74976
936.06492
935.03273
936.03064
937.32695
938.30196
939.70524
939.3523
939.4681
940.93141
941.46192
941.20798
938.66466
938.51524
937.53169
934.91789
934.82557
937.51014
938.50828
938.92691
939.04111
938.62936
939.77262
940.75031
941.46503
929.64373
931.63262
932.16377
932.36354
934.3537
935.85459
936.94281
937.54871
937.59274
937.48659
940.12667
941.38237
941.57129
916.27583
921.43448
923.96084
926.32178
933.41642
934.0491
937.2184
936.88451
936.44979
941.37357
942.13769
942.40519
942.29466
919.00892
927.0933
927.21908
930.65127
934.65576
936.76809
939.78701
939.30846
940.17457
942.23364
942.62203
942.65061
942.77191
928.48547
930.14506
934.40488
934.32263
931.68924
936.84326
938.36634
938.05543
939.53728
941.7345
942.12773
942.43227
942.79007
934.5051
935.37226
936.08638
936.18834
935.83083
936.67652
937.68406
937.28955
937.36028
939.10983
940.09707
940.25944
940.57118
937.77369
936.8814
937.51238
936.79551
935.77856
935.64479
936.07251
935.96625
936.13291
939.08012
940.32539
940.54081
940.82022
935.54106
936.24232
936.73669
935.92449
935.31006
934.93837
935.37311
936.66637
937.38748
938.30388
939.26502
940.28227
941.50871
)
;
        refGradient     uniform 0;
        valueFraction   nonuniform List<scalar> 
130
(
0.0075140686
0.0075140686
0.0075140686
0.0075140686
0.0075140686
0.0075140686
0.0075140686
0.0075140686
0.0075140686
0.0075140686
0.0075140686
0.0075140686
0.0075140686
0.0075140686
0.0075140686
0.0075140686
0.0075140686
0.0075140686
0.0075140686
0.0075140686
0.0075140686
0.0075140686
0.0075140686
0.0075140686
0.0075140686
0.0075140686
0.0075140686
0.0075140686
0.0075140686
0.0075140686
0.0075140686
0.0075140686
0.0075140686
0.0075140686
0.0075140686
0.0075140686
0.0075140686
0.0075140686
0.0075140686
0.0075140686
0.0075140686
0.0075140686
0.0075140686
0.0075140686
0.0075140686
0.0075140686
0.0075140686
0.0075140686
0.0075140686
0.0075140686
0.0075140686
0.0075140686
0.0075140686
0.0075140686
0.0075140686
0.0075140686
0.0075140686
0.0075140686
0.0075140686
0.0075140686
0.0075140686
0.0075140686
0.0075140686
0.0075140686
0.0075140686
0.0075140686
0.0075140686
0.0075140686
0.0075140686
0.0075140686
0.0075140686
0.0075140686
0.0075140686
0.0075140686
0.0075140686
0.0075140686
0.0075140686
0.0075140686
0.0075140686
0.0075140686
0.0075140686
0.0075140686
0.0075140686
0.0075140686
0.0075140686
0.0075140686
0.0075140686
0.0075140686
0.0075140686
0.0075140686
0.0075140686
0.0075140686
0.0075140686
0.0075140686
0.0075140686
0.0075140686
0.0075140686
0.0075140686
0.0075140686
0.0075140686
0.0075140686
0.0075140686
0.0075140686
0.0075140686
0.0075140686
0.0075140686
0.0075140686
0.0075140686
0.0075140686
0.0075140686
0.0075140686
0.0075140686
0.0075140686
0.0075140686
0.0075140686
0.0075140686
0.0075140686
0.0075140686
0.0075140686
0.0075140686
0.0075140686
0.0075140686
0.0075140686
0.0075140686
0.0075140686
0.0075140686
0.0075140686
0.0075140686
0.0075140686
0.0075140686
)
;
        value           nonuniform List<scalar> 
130
(
754.08489
761.97361
770.21552
778.45976
786.34366
793.62864
800.15778
805.82176
810.56924
814.41002
817.29373
819.21962
820.17966
748.2402
757.49336
766.92075
776.08523
784.67684
792.47993
799.37135
805.29861
810.21922
814.15622
817.12242
819.09537
820.07676
736.50357
748.83602
760.78954
771.82328
781.75668
790.51653
798.05273
804.40525
809.62126
813.74519
816.83308
818.88604
819.91321
718.85452
736.9817
752.99853
766.75646
778.47328
788.36574
796.64616
803.48544
809.01993
813.3585
816.59649
818.73187
819.79027
697.98508
725.63653
746.46961
762.83794
776.08311
786.84758
795.68964
802.86322
808.61889
813.15559
816.46691
818.64218
819.71961
697.81328
725.50424
746.33109
762.72377
775.95211
786.74701
795.60496
802.79485
808.57947
813.10178
816.417
818.59555
819.67848
718.22066
736.38591
752.49038
766.29322
778.00554
787.97757
796.30961
803.18958
808.79071
813.20029
816.44922
818.59493
819.66497
735.5094
747.91695
759.96635
771.10064
781.0922
789.89185
797.48872
803.90074
809.19188
813.41209
816.55447
818.63435
819.67464
747.05349
756.39681
765.95087
775.19996
783.83905
791.69244
798.64957
804.64432
809.66203
813.71658
816.7517
818.76869
819.77964
752.74401
760.77226
769.16313
777.48043
785.4209
792.76399
799.3679
805.138
809.99921
813.92349
816.88622
818.87384
819.87815
)
;
        Tnbr            T;
        thicknessLayers List<scalar> 0();
        kappaLayers     List<scalar> 0();
        kappaMethod     solidThermo;
        kappa           none;
        alphaAni        none;
        alpha           none;
        field           T;
    }
    rightSolid_to_topAir
    {
        type            compressible::turbulentTemperatureCoupledBaffleMixed;
        refValue        nonuniform List<scalar> 
130
(
491.54602
485.08979
479.44358
474.90294
471.52918
469.26055
468.00016
467.67254
468.26025
469.84086
472.6478
477.25182
484.59836
437.11189
431.80441
428.63748
426.91908
426.12377
425.94899
426.28451
427.15183
428.65938
431.01146
434.59207
440.41358
450.50234
447.34582
438.83815
431.5101
425.29929
420.18078
416.27559
413.79134
412.87515
413.52147
415.6268
419.16238
425.1114
435.33642
500.6136
502.60887
503.90181
504.05499
502.79427
500.03851
495.94378
491.06924
486.62121
484.47057
486.578
492.59797
503.0928
502.64574
506.91062
511.46507
516.00794
520.23331
523.83349
526.54607
528.25059
529.12481
529.79805
531.39365
535.51404
544.1403
499.30491
503.3048
507.44449
511.36212
514.74641
517.3684
519.10792
519.97998
520.21007
520.4138
521.69687
525.50314
533.36387
493.05839
493.18111
492.22535
489.92337
486.51889
482.50732
478.32039
474.24767
470.68059
468.88078
471.42157
480.44371
490.95
443.23547
434.49629
427.21482
421.39013
417.05147
414.24156
412.95137
413.0766
414.40972
416.7397
420.12662
425.59694
436.65071
436.71922
431.23616
427.81275
425.8307
424.86352
424.69276
425.22502
426.41459
428.27061
430.9027
434.72597
440.83868
450.21372
490.75238
484.08711
478.23025
473.47901
469.9189
467.52254
466.21377
465.90618
466.54319
468.14905
470.92311
475.40581
482.35121
)
;
        refGradient     uniform 0;
        valueFraction   nonuniform List<scalar> 
130
(
0.00032132529
0.00032132529
0.00032132529
0.00032132529
0.00032132529
0.00032132529
0.00032132529
0.00032132529
0.00032132529
0.00032132529
0.00032132529
0.00032132529
0.00032132529
0.00032132529
0.00032132529
0.00032132529
0.00032132529
0.00032132529
0.00032132529
0.00032132529
0.00032132529
0.00032132529
0.00032132529
0.00032132529
0.00032132529
0.00032132529
0.00032132529
0.00032132529
0.00032132529
0.00032132529
0.00032132529
0.00032132529
0.00032132529
0.00032132529
0.00032132529
0.00032132529
0.00032132529
0.00032132529
0.00032132529
0.00032132529
0.00032132529
0.00032132529
0.00032132529
0.00032132529
0.00032132529
0.00032132529
0.00032132529
0.00032132529
0.00032132529
0.00032132529
0.00032132529
0.00032132529
0.00032132529
0.00032132529
0.00032132529
0.00032132529
0.00032132529
0.00032132529
0.00032132529
0.00032132529
0.00032132529
0.00032132529
0.00032132529
0.00032132529
0.00032132529
0.00032132529
0.00032132529
0.00032132529
0.00032132529
0.00032132529
0.00032132529
0.00032132529
0.00032132529
0.00032132529
0.00032132529
0.00032132529
0.00032132529
0.00032132529
0.00032132529
0.00032132529
0.00032132529
0.00032132529
0.00032132529
0.00032132529
0.00032132529
0.00032132529
0.00032132529
0.00032132529
0.00032132529
0.00032132529
0.00032132529
0.00032132529
0.00032132529
0.00032132529
0.00032132529
0.00032132529
0.00032132529
0.00032132529
0.00032132529
0.00032132529
0.00032132529
0.00032132529
0.00032132529
0.00032132529
0.00032132529
0.00032132529
0.00032132529
0.00032132529
0.00032132529
0.00032132529
0.00032132529
0.00032132529
0.00032132529
0.00032132529
0.00032132529
0.00032132529
0.00032132529
0.00032132529
0.00032132529
0.00032132529
0.00032132529
0.00032132529
0.00032132529
0.00032132529
0.00032132529
0.00032132529
0.00032132529
0.00032132529
0.00032132529
0.00032132529
)
;
        value           nonuniform List<scalar> 
130
(
752.57985
760.5503
768.88064
777.17876
785.11183
792.44155
799.00883
804.71176
809.49834
813.35372
816.25486
818.19316
819.16393
746.68876
756.01686
765.53188
774.77003
783.4161
791.26588
798.19997
804.15985
809.11927
813.08468
816.06245
818.04756
819.04122
734.88059
747.30082
759.34606
770.47754
780.48199
789.28375
796.86622
803.26131
808.51447
812.67207
815.77482
817.83718
818.86967
717.18903
735.43317
751.56247
765.41865
777.20491
787.15682
795.4877
802.37039
807.94322
812.31335
815.55551
817.69879
818.76681
696.27018
724.08435
745.05075
761.5213
774.81012
785.64896
794.532
801.76063
807.56159
812.09412
815.42417
817.6145
818.70334
696.07537
723.90711
744.88528
761.37203
774.66703
785.52501
794.42487
801.67077
807.49083
812.03039
815.36711
817.56246
818.65485
716.55691
734.84129
751.02993
764.93268
776.74872
786.75272
795.13227
802.06315
807.69251
812.11683
815.38716
817.54901
818.62747
733.90938
746.39748
758.52646
769.7388
779.80408
788.6602
796.30409
802.7656
808.09498
812.33328
815.49205
817.58753
818.63655
745.5103
754.92632
764.54375
773.86466
782.57374
790.485
797.48949
803.52887
808.58228
812.64475
815.69368
817.72561
818.74479
751.27633
759.3553
767.80137
776.18356
784.18508
791.58343
798.23149
804.03352
808.92471
812.87101
815.84883
817.84459
818.84913
)
;
        Tnbr            T;
        thicknessLayers List<scalar> 0();
        kappaLayers     List<scalar> 0();
        kappaMethod     solidThermo;
        kappa           none;
        alphaAni        none;
        alpha           none;
        field           T;
    }
    rightSolid_to_heater
    {
        type            compressible::turbulentTemperatureCoupledBaffleMixed;
        refValue        nonuniform List<scalar> 10(745.52183 738.29224 723.23744 698.37877 657.16058 656.9758 697.72825 722.22569 737.04934 744.15582);
        refGradient     uniform 0;
        valueFraction   nonuniform List<scalar> 10(0.50000003 0.50000003 0.50000003 0.50000003 0.50000003 0.50000003 0.50000003 0.50000003 0.50000003 0.50000003);
        value           nonuniform List<scalar> 10(749.09279 742.54025 729.10522 707.81871 676.74649 676.55721 707.1785 728.11425 741.32945 747.75794);
        Tnbr            T;
        thicknessLayers List<scalar> 0();
        kappaLayers     List<scalar> 0();
        kappaMethod     solidThermo;
        kappa           none;
        alphaAni        none;
        alpha           none;
        field           T;
    }
}


// ************************************************************************* //
