/*--------------------------------*- C++ -*----------------------------------*\
| =========                 |                                                 |
| \\      /  F ield         | OpenFOAM: The Open Source CFD Toolbox           |
|  \\    /   O peration     | Version:  v2012                                 |
|   \\  /    A nd           | Website:  www.openfoam.com                      |
|    \\/     M anipulation  |                                                 |
\*---------------------------------------------------------------------------*/
FoamFile
{
    version     2.0;
    format      ascii;
    class       surfaceScalarField;
    location    "50/bottomWater";
    object      phi;
}
// * * * * * * * * * * * * * * * * * * * * * * * * * * * * * * * * * * * * * //

dimensions      [1 0 -1 0 0 0 0];
oriented        oriented;


internalField   nonuniform List<scalar> 
3858
(
-0.00011666995
0.00012189414
-3.9479008e-06
-0.00022904188
0.00012722766
-1.2813528e-05
-0.0002510572
1.7534309e-05
7.358011e-06
-9.6043956e-05
-0.00020661737
4.9822434e-05
-0.00014927518
8.1568778e-05
-2.5602143e-05
-0.00018353906
5.445254e-05
-1.9190782e-05
-5.8455305e-05
-0.00020211803
7.7012582e-05
0.00011347086
-0.00024937505
7.6382971e-05
0.00020614887
-0.00020490481
0.00011093694
0.00011187695
-1.0003175e-05
0.0001037573
-9.5170497e-05
0.00012562106
8.0721933e-05
-0.00025261231
8.4422731e-05
7.3217052e-05
-0.00023915796
-9.5695157e-05
8.2205796e-05
-0.00015442541
-0.00015073421
6.5670849e-05
-5.2527238e-07
-0.00022276881
6.7694169e-05
0.00015420065
-0.00022379663
6.7878365e-05
0.00023897093
-0.00015110823
6.6007101e-05
0.00025261124
-9.6149082e-05
8.2464661e-05
9.513778e-05
8.4192323e-05
7.3475199e-05
-0.00011196348
0.00012557071
8.0827331e-05
-0.0002060549
-1.0276446e-05
0.00010384901
-0.00011344067
-0.00020481074
0.00011091266
5.8433078e-05
-0.00024930265
7.636812e-05
0.0001834748
-0.00020208194
7.7023341e-05
0.0001492186
5.4471695e-05
-1.9212021e-05
9.6046442e-05
8.1496909e-05
-2.5580937e-05
0.00025106354
-0.00020661056
4.9817528e-05
0.00022902453
1.7564643e-05
7.3554132e-06
0.00011665899
0.00012722907
-1.2817938e-05
0.00012188925
-3.9506348e-06
-0.00010888216
0.00024857176
-1.7795466e-05
-0.00029674056
0.0002756588
3.9427256e-05
-0.00028154612
-9.5264902e-05
9.7604768e-05
-8.2470082e-05
-0.00052407321
0.0001183798
-9.9390705e-05
8.8124481e-05
1.0364923e-05
-0.00018101892
0.00019316351
-5.708275e-05
-9.6951079e-07
-0.00044804828
6.5880831e-05
0.00019008453
-0.00051427646
7.3847372e-05
0.00035392686
-0.00048845764
0.00011971051
0.00027563216
-8.5178546e-05
0.00015347007
-0.00020042744
0.00047235084
0.00012932981
-0.00041617132
0.0001672034
0.00013296321
-0.00032057945
-0.00031650173
0.0001252147
-0.00019428726
-0.00033693709
5.9910691e-05
-4.9844844e-07
-0.00045291365
3.6356021e-05
0.00019407728
-0.00045443845
3.6066091e-05
0.00031995044
-0.00033742208
6.0440686e-05
0.00041579917
-0.00031737275
0.00012537493
0.00020067783
0.00016606959
0.00013324407
-0.00027551493
0.00047229196
0.0001294715
-0.0003536579
-8.5777267e-05
0.00015364379
-0.0001900792
-0.00048817963
0.0001197902
9.7222303e-07
-0.0005141765
7.3822432e-05
0.0001809179
-0.00044794373
6.5916115e-05
9.9332092e-05
0.00019317789
-5.7120385e-05
8.24826e-05
8.794129e-05
1.0405112e-05
0.0002815567
-0.00052406613
0.00011838147
0.00029675754
-9.5230605e-05
9.7594403e-05
0.00010887751
0.00027569248
3.9416617e-05
0.00024856186
-1.7795096e-05
6.7733255e-05
3.801318e-06
0.00017703719
0.000179779
9.1642346e-05
7.1970712e-05
0.00020857699
-0.00015594839
3.1885509e-05
-0.00015160587
-0.00015128828
-1.2602064e-05
-0.00012717484
-2.7406397e-05
9.1099845e-05
5.1311204e-05
3.6605699e-06
1.1016902e-05
8.6051073e-05
-0.00041897638
-6.3811769e-05
4.908922e-05
-0.00041237023
-6.494438e-05
-0.00011993815
-0.00022113893
-9.829135e-05
-0.00010918483
-7.3798148e-05
-2.2133717e-05
-3.1924119e-05
0.00036226276
3.2827367e-05
5.4873362e-05
5.9082977e-05
2.1322942e-05
-1.5937592e-05
-0.0001241113
-0.00012157948
-6.7408413e-05
-0.00025612356
-2.9342709e-05
2.5478361e-08
-0.00044137445
-7.8973086e-05
6.746378e-05
-0.00044214956
-7.9727198e-05
1.629039e-05
-0.00025744358
-2.8805114e-05
-5.5071542e-05
-0.00012402327
-0.00012198756
3.1456322e-05
5.7900636e-05
2.1641089e-05
0.0001088616
0.00036211564
3.2771045e-05
0.00011913104
-7.3837192e-05
-2.2209507e-05
-4.9447552e-05
-0.00022131618
-9.8284863e-05
-8.6161104e-05
-0.0004124231
-6.5039851e-05
-5.1340809e-05
-0.00041892457
-6.3839448e-05
0.00012716525
3.7179222e-06
1.0953912e-05
0.00015154615
-2.7499961e-05
9.1060349e-05
-0.00020859404
-0.00015129584
-1.2630099e-05
-0.00017977465
-0.00015592377
3.1873764e-05
-6.7735517e-05
9.1692721e-05
7.1960622e-05
3.7901429e-06
0.00017703619
4.255354e-05
-0.00016039731
0.00012164508
0.00017919716
-0.00012653552
8.1534253e-05
0.00018618876
-0.00013162999
-3.1310001e-05
0.00012742924
-6.9453822e-05
-2.307493e-05
-0.00014590797
0.00026101486
-1.5084041e-05
-8.2626148e-05
-3.5727388e-05
-2.3893863e-05
1.3136954e-06
-0.00043416842
-6.8747803e-05
2.5892717e-05
-0.00039263344
-4.4315814e-05
-3.7478266e-05
-0.00013506255
-2.2705391e-05
-0.0001620052
0.00011085537
-6.0126587e-05
6.9837603e-05
0.00010038444
3.0035518e-05
0.00013514735
3.155889e-05
-3.7785664e-05
4.0643335e-05
1.3145228e-05
-4.2752514e-05
-1.793218e-05
-0.00022981987
3.2271821e-05
1.1282259e-07
-0.00040759472
-5.1824735e-05
1.803378e-05
-0.00040816698
-5.1903542e-05
-4.0082974e-05
-0.00023168723
3.2360402e-05
-0.00013460547
1.3188448e-05
-4.2689226e-05
-7.0403075e-05
3.1566624e-05
-3.7868384e-05
0.00016159935
0.00010017175
2.9941459e-05
3.728572e-05
0.00011067836
-6.0201916e-05
-2.5979773e-05
-0.00013532241
-2.2728268e-05
-1.3807682e-06
-0.0003926492
-4.4372898e-05
8.2609389e-05
-0.00043412638
-6.8788343e-05
0.000145917
-3.5682042e-05
-2.3907643e-05
-0.00012744586
0.00026097195
-1.5109055e-05
-0.00018619738
-6.9471341e-05
-2.3072981e-05
-0.00017921956
-0.00013159852
-3.130307e-05
-4.2545188e-05
-0.00012652269
8.154104e-05
-0.0001603965
0.00012164145
-9.3591248e-05
-6.6806065e-05
-0.00014469569
-7.5431086e-05
-0.00014978024
-0.00012654543
-6.6268403e-05
-0.00015296565
0.00024700509
-5.2258637e-05
0.00032179255
-0.00011051485
2.4071026e-05
-0.00013644689
-0.00025854606
-0.00011001635
-0.00028400056
-0.00010960806
-0.00011127733
-6.186786e-05
4.8445839e-05
-5.9338731e-05
0.00018209723
-0.0001020925
0.00032581739
-0.00013057493
0.00025914847
-0.00016315095
1.2778648e-06
-0.00014972412
-0.00025774744
-0.00014914168
-0.00032583735
-0.00016359732
-0.00018208856
-0.00013056035
-4.8447799e-05
-0.00010207414
0.0001112124
-5.9488441e-05
0.00028388636
-6.1995596e-05
0.00025831398
-0.00010975002
-2.4231182e-05
-0.00011010403
-0.00032186478
-0.00013649278
-0.00024701501
-0.00011053181
6.6241273e-05
-5.2284332e-05
0.0001497468
-0.00015297687
0.00014468715
-0.00012653888
9.3593967e-05
-7.5429511e-05
-6.6802532e-05
-0.00010118355
0.00013735163
-3.875391e-05
-0.00020596645
0.00013855944
-4.5871458e-05
-0.0002844241
0.00012539124
-3.8663582e-05
-0.0002711987
3.2120375e-06
3.2978204e-05
-0.0001232138
-0.00021680222
4.0971622e-05
-8.3438826e-06
-0.00014181299
5.8179744e-06
7.3690574e-05
-0.0001163175
0.00011034291
0.00015713849
-0.00012384429
0.00011582672
0.000131709
1.2758277e-05
0.0001237769
3.3919562e-05
0.00012521139
7.5939886e-05
-8.6734075e-05
0.00012862447
7.1059619e-05
-0.0002056597
0.0001537205
3.8560572e-05
-0.00024619968
7.2991859e-05
5.0376301e-05
-0.00013853429
-0.00014687091
0.00010376
-2.5776306e-07
-0.0001729276
0.00010181613
0.00013857577
-0.00017402801
0.00010252863
0.00024620963
-0.00014685567
0.00010412035
0.00020580585
7.2868219e-05
5.0612552e-05
8.6815548e-05
0.00015370707
3.8897876e-05
-3.3886145e-05
0.00012861755
7.1221998e-05
-0.00013163815
0.00012520003
7.6008042e-05
-0.00015708791
1.2786487e-05
0.00012374778
-7.3740537e-05
-0.00012373075
0.00011580381
8.2857552e-06
-0.00011626146
0.00011031061
0.00012322021
-0.00014187076
5.7927643e-06
0.00027121115
-0.00021676559
4.0954542e-05
0.00028438515
3.3016327e-06
3.29401e-05
0.00020592473
0.00012541288
-3.868118e-05
0.00010116007
0.00013855478
-4.5885962e-05
0.00013734806
-3.8772619e-05
0.0001025474
2.6308727e-05
-9.299969e-06
-0.00020760212
0.0005330259
-4.488969e-05
-0.00042940915
0.00046714735
-2.2344312e-05
-0.00034809407
-7.4263943e-05
0.00011454071
-0.00013641499
-0.00053466595
0.00011654958
4.6706816e-06
-0.00034861384
8.6324295e-06
0.00012876985
-0.00033791617
0.00016338034
0.00028781237
-0.00037136247
0.00016232303
0.00036999478
-9.3267967e-05
0.00014355434
0.00014471989
0.00040492738
9.9028967e-05
-0.0002390649
0.00059373153
4.8007544e-05
-0.00044585076
0.00041331733
8.0152246e-05
-0.00041580017
3.5523716e-05
0.00013263225
-0.00019227357
-0.0004145607
0.00010407387
-3.3217244e-07
-0.00041443135
8.5918375e-05
0.00019194932
-0.00041668037
8.6436952e-05
0.00041558751
-0.00041452522
0.00010447204
0.00044564889
3.523534e-05
0.00013294642
0.00023907274
0.00041304358
8.0483703e-05
-0.00014467221
0.0005936506
4.8183402e-05
-0.00036996706
0.00040498342
9.915527e-05
-0.0002877991
-9.3216518e-05
0.00014362525
-0.00012883958
-0.00037116208
0.00016229425
-4.7507192e-06
-0.00033779824
0.00016336402
0.00013637597
-0.00034873835
8.6205227e-06
0.0003480735
-0.00053459908
0.00011654108
0.00042938312
-7.4127536e-05
0.00011450101
0.00020755882
0.00046717681
-2.234523e-05
-0.00010257553
0.00053300337
-4.4897631e-05
2.6281524e-05
-9.3040873e-06
1.7302661e-05
-6.2722164e-05
0.00024876542
-2.2901569e-05
0.00047795769
0.00016724315
5.9272604e-05
0.00040346029
1.3398407e-05
9.3002377e-05
-8.7215541e-05
-3.3380234e-05
-9.748063e-05
-0.00010945353
-0.00014362957
-0.00013956434
-0.00014613286
-0.00014938036
-2.1106888e-05
-0.00037825478
-0.00014193062
-5.4789023e-05
-0.00032225274
-8.0371973e-05
-5.8582625e-05
-9.7312363e-05
-9.0453353e-05
-1.73213e-05
0.00030999095
3.1541387e-05
-3.2549481e-05
0.00059682493
4.4962146e-05
0.00010239751
0.00033414155
-3.4448275e-05
0.00017065707
-4.8959343e-05
-0.00010535599
-5.5507837e-06
-0.00011869678
-0.00014899877
-8.1967613e-07
-0.00037710041
-0.00012103514
5.2110209e-06
-0.00037998185
-0.00012245642
-0.00017072151
-0.00011919065
-0.00014820715
-0.00010263593
-4.9041755e-05
-0.00010579605
3.2532377e-05
0.00033363413
-3.4117771e-05
1.7273387e-05
0.0005967478
4.4932839e-05
5.8407328e-05
0.00031007726
3.1562712e-05
5.465675e-05
-9.7325796e-05
-9.0425e-05
2.1068747e-05
-0.00032223802
-8.0375911e-05
0.00013958611
-0.00037820935
-0.00014194569
9.7370432e-05
-0.0001460882
-0.00014948057
-9.3087914e-05
-0.00010943795
-0.00014364243
-5.9249894e-05
-8.718592e-05
-3.3409736e-05
2.2895461e-05
0.00040350147
1.3403749e-05
-1.7305511e-05
0.00047793331
0.00016723165
-6.2736769e-05
0.00024874897
-0.00012723143
9.0421802e-05
9.573255e-05
3.9014748e-05
0.00021824874
0.00017499702
0.00019132546
0.00019643483
2.3404749e-05
6.2258809e-05
0.00010279372
-8.4017539e-05
-9.8330439e-05
0.00010914627
-7.3094592e-05
-6.5777358e-05
-5.961675e-05
-0.00014296306
-1.0703489e-05
-0.00039173092
-0.00011034553
-5.6287738e-05
-0.0002544462
-6.6538108e-05
-0.00019619127
0.00012652526
-0.00010663949
-0.00013229383
0.00016991065
1.6056281e-05
7.3731418e-05
0.0003510221
6.9813094e-05
0.00027754013
0.00015913607
-6.6588896e-05
0.00019338844
0.00012007707
-0.00012763723
2.7483178e-05
5.6819855e-05
2.2660448e-05
-3.6318789e-07
-0.00034988306
-5.1195716e-05
-2.6876028e-05
-0.00035362635
-5.1746209e-05
-0.00019210137
5.5037861e-05
2.3357223e-05
-0.00027700841
0.00012055742
-0.00012738137
-7.3671476e-05
0.00015893396
-6.6505143e-05
0.00013224346
0.00035101808
6.9756241e-05
0.00019615379
0.00016992819
1.603683e-05
5.6208775e-05
0.00012652687
-0.00010663591
1.0600861e-05
-0.00025443549
-6.6567509e-05
6.5732025e-05
-0.00039172056
-0.0001104083
9.8275552e-05
-5.9542246e-05
-0.00014299712
-6.2312305e-05
0.00010915762
-7.3116769e-05
-0.00019133825
0.0001027964
-8.402936e-05
-3.9016e-05
0.00019645662
2.3419527e-05
0.0001272267
0.00021823815
0.00017499349
9.0406188e-05
9.5725192e-05
-7.7483701e-05
0.00010109944
-1.4069195e-05
7.9403152e-05
5.8370943e-05
-2.5507356e-06
0.00010386269
-9.5663672e-05
0.00026610395
-0.00010535362
0.0002840147
-0.00018804234
-3.4022197e-05
-0.00021014091
-0.00028839587
-0.00011008888
-0.00025376751
-1.7711156e-05
-0.0001604958
1.4771082e-05
8.5859972e-05
4.5327595e-05
0.00022191412
-7.9010583e-05
0.0003273818
-0.00011596555
0.00034968989
-0.00012863919
2.6826416e-06
-0.00015259994
-0.00034803945
-0.00015204594
-0.00032768379
-0.00012891512
-0.00022172668
-0.00011596005
-8.5892864e-05
-7.8973997e-05
0.00016042491
4.5211867e-05
0.00025368477
1.4672737e-05
0.00028832192
-1.7860298e-05
3.395503e-05
-0.00011017263
-0.00028407515
-0.00021018316
-0.00026609943
-0.00018804977
-0.00010385494
-0.00010537119
-5.8367692e-05
-9.5667726e-05
1.4086928e-05
-2.5368881e-06
7.7493191e-05
7.940237e-05
0.00010109684
0.00015034632
-0.00014994412
-3.8564633e-05
9.0070181e-05
7.2797912e-05
-5.7075222e-05
5.7792125e-06
0.00011042793
-6.4653338e-05
-7.4142848e-05
0.00012271203
-1.0337824e-05
-8.2459783e-05
4.9372988e-05
1.3424752e-06
2.92695e-05
-9.0006502e-05
-1.6411699e-05
4.1024993e-05
0.0001119948
-1.1516679e-05
6.0279542e-05
9.0312371e-05
6.3969608e-06
6.0971254e-05
0.00013393924
-1.0153229e-05
5.452637e-05
0.00013056088
-4.814652e-05
4.7227354e-05
0.00012839915
-4.9955363e-05
7.5804697e-06
0.00012247858
-4.4605252e-05
-5.423476e-05
0.00016447152
-5.1559925e-05
-6.1492954e-05
0.00011595237
-3.5420115e-06
1.3587784e-06
3.1674979e-05
8.873709e-06
6.1138541e-05
3.5453905e-05
8.9291835e-06
5.3613969e-05
0.00011667359
-3.6182337e-06
-7.7322934e-06
0.00016424845
-5.1566915e-05
-4.729516e-05
0.000122588
-4.4450555e-05
-5.451651e-05
0.00012833872
-4.9809972e-05
-6.0923249e-05
0.00013055309
-4.8104832e-05
-6.0238272e-05
0.00013392535
-1.0159646e-05
-4.1007253e-05
9.0351558e-05
6.3625948e-06
-2.9247652e-05
0.00011200108
-1.1555787e-05
8.2427038e-05
-8.9917746e-05
-1.6464146e-05
7.4092188e-05
4.9405581e-05
1.3155773e-06
-5.8272611e-06
0.00012272658
-1.0388697e-05
-9.010559e-05
0.00011043879
-6.4690134e-05
-0.00015036046
7.2788006e-05
-5.7097638e-05
-0.00014995206
-3.8586535e-05
0.00030525666
-0.00046144021
-3.0605411e-06
0.00037025069
5.2885862e-05
-8.9971673e-05
0.00010879454
0.00047839685
-0.00012885708
-0.00025475542
0.00062633626
-2.5533543e-05
-0.00018849134
1.2750245e-05
8.6908239e-05
4.1532025e-05
-0.00034793841
3.6540977e-05
0.00015497505
5.2199672e-05
0.00010973243
0.00022023553
0.00014461019
4.2764735e-05
0.00022784133
0.00032093894
-5.1051164e-05
0.00019578592
0.00030056865
-3.8923393e-05
5.1767876e-05
0.00044040524
-0.0001199805
-0.0001763693
0.00049057509
-5.9807084e-05
-0.00033602201
0.00043262243
2.4134045e-05
-0.00018465668
8.540226e-06
6.0120687e-05
-1.3719798e-07
-0.00010314697
3.6220846e-05
0.00018288479
-9.803289e-05
3.6901753e-05
0.00033473549
8.95459e-06
6.0340344e-05
0.00017610497
0.0004315431
2.4282286e-05
-5.1659693e-05
0.00049052961
-5.9693246e-05
-0.00019567032
0.00044043087
-0.00011989812
-0.00022777911
0.00030072666
-3.8909501e-05
-0.00022023685
0.00032104056
-5.1032222e-05
-0.00015498106
0.0001446731
4.2716918e-05
-4.1536507e-05
5.2254232e-05
0.00010966633
0.00018840206
-0.00034776487
3.6529086e-05
0.00025459743
1.284873e-05
8.6902564e-05
-0.00010889838
0.00062629462
-2.5571234e-05
-0.00037026215
0.0004783167
-0.00012885936
-0.00030525524
5.2854397e-05
-8.9970935e-05
-0.00046144366
-3.067727e-06
-6.6869651e-05
-0.00024879274
0.0001029876
3.7678446e-05
-1.7646742e-05
0.00013322766
4.9892038e-05
0.00038174806
9.7833599e-05
2.5985169e-05
0.00057884327
3.8019624e-05
4.4113397e-05
-5.4512548e-05
-9.4495e-05
-0.00022182105
-8.349401e-05
-0.00014789031
-0.00014515206
-7.7544779e-05
-8.8855156e-05
5.8988678e-05
-0.00013234097
-7.5615504e-06
7.1171613e-05
0.00017739641
4.0906237e-05
7.7422151e-05
0.00020779255
0.00011806695
5.8154282e-05
0.00035840227
0.00014623298
4.7848618e-05
0.00046887389
-2.441408e-06
4.4623108e-05
0.00035585112
-2.535917e-05
5.6552608e-06
-9.5925899e-05
-5.5648006e-06
-4.8871362e-06
-0.00022333593
9.696216e-06
-6.6152397e-06
-0.00022885195
1.0090746e-05
-4.3677703e-05
-9.6172294e-05
-6.0178066e-06
-4.8153541e-05
0.00035528112
-2.5058236e-05
-5.7900178e-05
0.00046868623
-2.527756e-06
-7.7416724e-05
0.00035852853
0.00014635173
-7.1070838e-05
0.00020791697
0.00011802652
-5.8970762e-05
0.00017754
4.0975488e-05
0.00014509982
-0.00013220786
-7.5655265e-06
0.00022175829
-7.7472271e-05
-8.8877657e-05
-4.4106919e-05
-8.3470323e-05
-0.00014790991
-2.5993214e-05
-5.4448823e-05
-9.4458586e-05
-4.9924786e-05
0.00057880368
3.8012776e-05
-3.7683148e-05
0.00038165671
9.7822101e-05
6.6861302e-05
-1.7676817e-05
0.00013321841
-0.00024880514
0.00010297174
-4.6919853e-05
-0.00017067423
6.4533886e-05
-0.00012896215
0.00014161373
9.7778851e-05
1.1839234e-06
0.00014903192
0.00012597482
0.00017410967
0.00027720246
4.469753e-05
1.0166667e-05
0.00017759362
-0.00014125775
-0.00013923868
9.2881049e-05
-0.00016993277
-0.00018022792
-3.3992431e-05
-0.00011290864
-8.4513473e-05
-0.00024042662
-5.4166908e-05
-3.0999507e-05
2.8939807e-05
-1.1696848e-05
-3.8454951e-05
0.00017877271
5.2531569e-05
7.2550376e-05
0.00019256784
0.0001246422
0.00019723253
0.00027346442
4.1384239e-06
0.00035057463
0.00016299994
-8.8128152e-05
0.00013238045
0.00014221514
2.713585e-06
-3.9862753e-06
-0.00013537472
-2.7902133e-06
-0.00013503061
-0.00014635617
-3.1976641e-06
-0.00035026049
0.00013950534
2.909463e-06
-0.00019749006
0.00016316002
-8.80307e-05
-7.2565739e-05
0.00027321834
4.0384192e-06
3.8386223e-05
0.00019269881
0.000124634
3.1061108e-05
0.0001788045
5.2474421e-05
8.4525361e-05
2.91325e-05
-1.1692651e-05
0.00018024175
-0.00024027971
-5.4212033e-05
0.00013924185
-3.3949152e-05
-0.00011293152
-1.0159584e-05
9.2885277e-05
-0.00016995128
-0.00017409538
0.00017761315
-0.00014124294
-1.1767808e-06
0.00027717714
4.467858e-05
0.00012895323
0.00014897556
0.00012597065
4.6900859e-05
0.00014159312
9.7775912e-05
-0.00017069378
6.451469e-05
-0.0002459661
0.00017639131
-0.00019229002
0.00016734081
-0.00012676722
8.0958391e-05
4.4394737e-05
1.0376835e-05
0.00017192291
-5.5288173e-05
0.00021692008
-0.00014015846
0.00012415425
-0.00015136752
-0.00011319663
-0.00011316461
-0.00018784284
8.5874853e-05
-0.00011249417
0.00011819512
1.8330303e-05
0.00010707096
0.00017213649
4.064764e-05
0.00025595766
-3.6786776e-05
0.00028901671
-1.9483097e-05
6.068019e-06
-5.02597e-06
-0.00028658647
-5.7476165e-06
-0.00025630082
-1.9695441e-05
-0.00017218122
-3.6919634e-05
-1.8501618e-05
4.0564734e-05
0.00011239989
0.00010700917
0.00018775066
0.00011812647
0.00011320036
8.5822506e-05
-0.00012410932
-0.00011314266
-0.00021688458
-0.00015135704
-0.00017189073
-0.00014015834
-4.4354573e-05
-5.5294203e-05
0.00012680041
1.035442e-05
0.00019229903
8.0940055e-05
0.00024596943
0.00016732508
0.00017637249
0.00012257578
-0.00011817368
-4.2049912e-05
0.00019227433
-0.000102985
-2.324801e-05
0.00021779587
-2.4615331e-05
-6.4899354e-05
0.00016886945
0.00010296617
-6.3495278e-05
8.3452179e-05
0.00013992386
-5.3077444e-05
-9.8242618e-06
0.00013544286
-5.9599501e-05
-7.6463398e-05
0.00012613906
-7.2008199e-05
-0.0001158695
0.00013370982
-8.8125296e-05
-6.8095107e-05
6.4079673e-05
-0.00012120189
0.00011884656
-0.0001527965
-8.4123549e-05
0.00014056446
1.3958109e-05
-8.5433177e-05
1.2554273e-05
0.00012592565
-4.2662104e-05
-0.00012385859
0.00012679239
-4.2828283e-05
-0.00017624089
4.8519269e-05
1.9323018e-07
-0.00016840372
0.00017629748
-0.00016800502
0.00012350258
4.8869718e-05
-1.2867473e-05
0.00012684284
-4.292178e-05
-0.0001406974
0.00012593744
-4.2689992e-05
-0.00011893109
1.4055183e-05
-8.542598e-05
6.804765e-05
-0.00015277723
-8.4133191e-05
0.00011585423
6.4056686e-05
-0.00012121437
7.6470812e-05
0.00013369999
-8.8169659e-05
9.8366951e-06
0.00012613059
-7.2041268e-05
-8.3446626e-05
0.00013543729
-5.963753e-05
-0.00016885411
0.00013991817
-5.3108109e-05
-0.00021779725
0.0001029544
-6.3515326e-05
-0.00019226754
-2.4642518e-05
-6.4915242e-05
-0.00012257538
-0.00010298858
-2.3258445e-05
-0.0001181863
-4.2056972e-05
0.00023232688
-0.00031470161
-3.8859506e-05
0.00039065524
-0.00031539424
-3.5890795e-05
0.00048426814
-0.00014961818
-9.7467125e-05
0.000429803
0.0002248978
-9.300003e-05
0.00031021549
0.00038004714
-3.362753e-05
3.4850528e-05
0.00045731686
-9.9680615e-06
-0.00019300054
0.00050758
-4.3857437e-05
-0.00027302727
0.00035839781
-0.00010189653
-8.6233544e-05
-5.0143775e-06
-0.00016875084
0.00024785539
-0.00044643473
-7.9374099e-05
0.00027084662
-4.8182786e-05
-8.0830838e-05
-8.3380112e-05
0.00048550554
-6.5160245e-05
-0.00045102746
0.00055775105
-3.9177257e-05
-0.00033179684
-1.0590666e-05
-4.0426029e-07
-0.00046357546
0.00033137091
-0.00046287844
0.00045089855
-1.0317584e-05
8.3222978e-05
0.00055799971
-3.9199012e-05
-0.00027079321
0.00048540493
-6.5144549e-05
-0.00024776184
-4.8042631e-05
-8.083168e-05
8.6321022e-05
-0.00044638255
-7.9387035e-05
0.000273082
-4.9986241e-06
-0.00016873788
0.00019309887
0.00035833382
-0.00010193378
-3.4787255e-05
0.00050761495
-4.3931902e-05
-0.00031021348
0.00045739273
-1.000012e-05
-0.00042980755
0.00038003872
-3.3623909e-05
-0.00048424528
0.00022480036
-9.2979468e-05
-0.00039061719
-0.00014967758
-9.74524e-05
-0.00023231725
-0.00031537998
-3.5879479e-05
-0.00031471816
-3.8853121e-05
0.00011468955
-0.00036237933
3.5975773e-05
8.7319794e-05
-0.00016728323
1.2486404e-05
9.1799824e-06
-9.5120374e-05
0.00012147561
6.4285365e-05
0.00010973892
9.8073121e-05
7.5818113e-05
0.00025194577
2.2073625e-05
3.5324184e-05
0.00037286252
-2.2942042e-05
-3.4876733e-05
0.00047176526
1.7160499e-05
4.417985e-05
0.00019837869
7.3400986e-05
0.00027032655
-0.0002708367
8.0581859e-05
7.8035216e-06
-0.0001438065
7.7961745e-05
-3.7329921e-05
-5.9339879e-05
0.00020252352
-3.2093037e-05
0.00041249938
6.5327864e-05
4.3287199e-05
0.00049377628
-3.6764644e-05
9.9304769e-05
-7.2173038e-05
-3.3224872e-07
-0.00035424223
-9.8979404e-05
-0.00035414054
-4.2982528e-05
-7.2332272e-05
3.2216832e-05
0.00049421746
-3.6475347e-05
3.7412052e-05
0.0004124662
6.5215741e-05
-7.6917593e-06
-5.9243711e-05
0.00020265663
-0.00027024062
-0.0001437585
7.7951331e-05
-4.4176491e-05
-0.0002706951
8.060784e-05
3.4939231e-05
0.00019823853
7.3414048e-05
-3.5278811e-05
0.00047182407
1.7131273e-05
-7.5812778e-05
0.00037296084
-2.2944044e-05
-6.424243e-05
0.00025193749
2.2072293e-05
-9.1624527e-06
0.00010965569
9.8077466e-05
-8.734496e-05
-9.5122514e-05
0.00012144954
-0.00011467696
-0.00016731208
1.248251e-05
-0.00036238592
3.5962529e-05
1.5834711e-05
-0.0003574415
4.3761337e-05
-3.8912928e-06
-0.0001004847
5.070633e-05
-0.00011651914
2.1904449e-05
0.00012157785
-9.2100447e-05
1.3074428e-05
0.00011694334
-6.6323742e-05
0.00011068569
-2.5774373e-05
-1.6738265e-05
0.00020615515
-5.2810867e-05
6.8099057e-05
0.00025000434
2.4014956e-05
0.00015207255
-1.8417161e-05
7.8655452e-05
0.00014752979
-0.00029254022
1.4549432e-05
2.2631848e-05
1.7511581e-05
1.6111428e-05
-0.00016013819
0.00020999933
3.8073027e-05
1.6250813e-05
0.00019489543
4.5353375e-05
0.00024113644
0.00024863865
-6.7876153e-05
4.734473e-05
0.00012433226
9.2283465e-08
-0.00030978
-4.72811e-05
-0.00030996483
-0.0002409286
0.00012422468
-1.6037536e-05
0.00024901635
-6.7720667e-05
0.00016037465
0.00019482514
4.526729e-05
-2.2378945e-05
0.00021007481
3.8069083e-05
-0.00014745067
1.7680288e-05
1.6107362e-05
-0.0001520923
-0.0002923347
1.4588588e-05
-6.8109769e-05
-1.8565713e-05
7.8609691e-05
1.6721556e-05
0.00024999931
2.406192e-05
6.6350426e-05
0.00020618804
-5.2807343e-05
9.2151879e-05
0.00011069178
-2.5798689e-05
0.00011649161
1.3103132e-05
0.0001168914
3.8818273e-06
2.1896968e-05
0.00012156095
-1.5821282e-05
-0.00010053922
5.0706145e-05
-0.00035744348
4.3750964e-05
-0.00028489377
0.00010384359
-0.00031925802
0.00010122035
-0.00024903367
3.2638496e-05
-0.00022852149
2.9390829e-06
-0.00013704599
-3.6077983e-05
1.8644304e-05
-8.9693609e-05
0.00016418553
-4.6904407e-05
8.0498272e-05
-4.7894512e-05
-0.00018398504
5.7817941e-05
-0.00020327316
0.00015499482
-5.9581524e-05
0.00017337866
5.1720801e-05
0.00012424074
0.00021057296
5.2999712e-05
0.00031542212
6.161517e-07
-0.0003150963
-0.00021056706
-5.1467351e-05
5.2997001e-05
5.9716233e-05
0.00012420629
0.0002033323
0.00017346791
0.00018406538
0.00015507369
-8.0344578e-05
5.7897776e-05
-0.00016417845
-4.7874499e-05
-1.8651349e-05
-4.6884824e-05
0.0001370599
-8.9681553e-05
0.00022854617
-3.6088687e-05
0.00024906898
2.9347343e-06
0.00031928912
3.2616873e-05
0.00028488902
0.00010118596
0.00010381803
0.00011889272
-0.00015985401
-8.3069122e-09
0.00010014286
-1.3998507e-06
-6.5695945e-09
0.00021648037
-0.00018121977
-4.5828597e-09
0.00025277956
-9.955874e-05
-7.545907e-09
0.00011981862
8.0546846e-05
-1.0107631e-09
-6.2899866e-05
0.00012169197
9.564917e-10
-0.00021746723
8.2288718e-05
2.8609575e-09
-0.00021701124
-8.9276315e-05
1.8872009e-08
-0.00010988208
-0.0002300095
-1.2108031e-09
5.2070143e-05
-0.00024809852
1.2199407e-08
0.0002288156
-0.00026473852
-7.5989767e-09
0.00016801425
1.8736521e-05
2.4423958e-08
0.00012461636
1.2263164e-08
-0.00016803515
0.00012462529
-6.2367745e-08
-0.00022886985
1.8834534e-05
-5.8755883e-08
-5.205654e-05
-0.00026476213
-4.0782308e-08
0.0001098749
-0.00024804822
-2.2712221e-08
0.00021701662
-0.00023001696
-1.676789e-08
0.00021748461
-8.9273109e-05
-3.8904727e-08
6.2941281e-05
8.2268435e-05
-3.2465895e-08
-0.00011978792
0.00012169207
-2.4160228e-08
-0.00025275281
8.0535213e-05
-1.4886691e-08
-0.00021646006
-9.9569909e-05
-8.1147923e-09
-0.00010013044
-0.00018122179
-8.9331932e-09
-0.00011890048
-1.3790949e-06
-1.5446512e-08
-0.00015987057
-4.9384217e-09
0.00017655482
-0.00037526077
-7.5744216e-09
0.00018974517
-5.0473857e-05
-7.139837e-09
0.00036094008
-0.00044987307
-8.729663e-09
0.00048060462
-0.00031220148
-2.1823605e-08
0.0002940174
0.00023352724
-2.0699034e-08
-0.00017369644
0.00057943328
4.4667005e-09
-0.00034525209
0.00020994839
3.8539526e-08
-0.00024568597
-0.00029078556
4.6596582e-08
-0.00013151907
-0.00051292773
4.9706016e-10
4.7132056e-05
-0.00050615369
2.9938299e-08
0.00027827492
-0.00057674634
3.4111367e-08
0.00030065242
-6.890896e-05
1.0774134e-07
0.00038604918
4.2339803e-08
-0.00030059422
0.00038599258
2.7911469e-08
-0.00027817328
-6.8795409e-05
6.4449127e-08
-4.701686e-05
-0.00057678323
3.3003488e-08
0.00013158191
-0.00050605298
1.8957745e-08
0.00024574603
-0.00051293777
1.88197e-08
0.00034531386
-0.00029075929
-1.5429413e-08
0.00017378017
0.00020989173
-2.1500202e-08
-0.00029396562
0.00057943305
4.6922957e-09
-0.00048055184
0.00023346791
2.9613057e-08
-0.00036089819
-0.00031222641
2.3380261e-08
-0.00018971668
-0.0004498648
9.0872888e-09
-0.00017655492
-5.0423788e-05
3.4535095e-09
-0.0003752885
9.872704e-09
7.3543106e-05
-0.00041283242
4.3175283e-09
0.00027243882
-0.00023686936
-1.380705e-08
3.844247e-05
-9.4401282e-05
1.7478433e-10
-6.4858276e-05
-0.00011083081
3.2038047e-09
4.3753635e-05
0.00014699499
-6.0266837e-09
4.0499426e-05
0.00055974439
1.0689554e-09
0.00013657705
0.0001310236
7.6642009e-09
3.3742131e-05
-0.00011448353
-6.6131837e-08
-3.627903e-05
-0.00036230207
-2.2640332e-08
-8.6525499e-05
-0.00037796493
1.9450226e-08
-0.00023408267
-0.00022673038
6.4726942e-08
-0.00010667853
-0.00013108287
9.7628718e-08
0.00024259331
1.2689392e-08
0.0001068117
0.00024266996
3.5563358e-08
0.00023430914
-0.00013114155
6.4436281e-08
8.6659399e-05
-0.00022655088
7.4012172e-08
3.6334947e-05
-0.0003777974
2.0207866e-08
-3.3689028e-05
-0.0003623251
1.9154381e-08
-0.00013649506
-0.00011453474
-4.4521072e-09
-4.0417776e-05
0.00013096278
-1.7060201e-08
-4.3683545e-05
0.00055975636
-1.5737395e-09
6.4907838e-05
0.00014693556
1.3259692e-08
-3.8418849e-05
-0.00011081968
-2.5790159e-09
-0.00027243255
-9.439794e-05
-3.635722e-09
-7.3517802e-05
-0.00023687045
1.4416388e-08
-0.0004128418
-1.9708814e-09
2.5932961e-05
-0.0003950072
3.1577134e-09
3.2309769e-05
-0.00019253714
-2.6963231e-09
-4.3242764e-05
0.00010271938
9.721757e-09
-9.8449503e-05
6.1294971e-05
2.4296103e-08
-7.171287e-05
9.443918e-05
4.4806333e-08
0.0001168131
0.00031840416
3.3961482e-09
9.0189989e-05
0.0001817101
-4.8428006e-08
-3.8986667e-05
9.3397178e-05
-4.8604023e-08
-9.1769357e-05
-0.00029492191
-4.8043467e-08
-9.8535376e-05
-0.00035510604
1.855329e-08
-0.00015274191
-0.00013469206
2.4124317e-07
-0.00019580055
-4.2694444e-05
2.3579534e-08
-2.1047542e-05
-3.5846319e-08
0.00019584639
-2.0889524e-05
-7.5892809e-09
0.00015280312
-4.2860805e-05
2.9814327e-08
9.8634738e-05
-0.00013444373
1.303124e-07
9.185696e-05
-0.00035493093
1.867678e-08
3.9121111e-05
-0.00029502457
2.3907561e-08
-9.0063612e-05
9.3266079e-05
-6.3948702e-09
-0.00011675723
0.00018170616
1.2166737e-08
7.1785533e-05
0.00031841106
-4.809031e-09
9.8496922e-05
9.4456903e-05
-3.1422755e-08
4.32704e-05
6.1322725e-05
-2.4490722e-08
-3.2291478e-05
0.00010274028
-1.5401393e-08
-2.5924287e-05
-0.0001925301
-1.4035718e-09
-0.00039501504
-9.5001364e-11
-0.00029117957
1.5955689e-08
-0.00038252009
2.3725912e-08
-0.00024717117
8.9580416e-09
-0.00018293577
-1.3382343e-09
-0.00012458161
7.039973e-09
0.00010412961
-6.8159794e-10
0.00023893713
-1.8301753e-09
0.00028445753
-1.7729212e-08
4.7417391e-05
-6.3834664e-08
-0.00015248823
-2.0559967e-07
-0.00011359274
-2.0889433e-07
-3.1963092e-05
-8.3356788e-08
-1.0923918e-08
3.2087671e-05
1.9798022e-08
0.0001135077
-7.4548413e-08
0.00015262101
-8.9140517e-08
-4.7180885e-05
-5.5342634e-08
-0.00028432895
2.1279147e-08
-0.00023895561
1.8247128e-08
-0.0001041359
1.6367539e-09
0.00012458555
8.0590335e-09
0.00018295015
3.6140005e-09
0.00024718959
1.8010764e-08
0.00038253764
9.095505e-09
0.0002911948
-1.3201282e-09
-2.2171445e-09
0.00011890056
-0.00015986885
4.2040159e-05
0.00010014812
-1.4063811e-06
2.3243842e-05
0.00021648329
-0.00018122168
6.4894595e-05
0.00025280568
-9.9591386e-05
6.34897e-05
0.0001198563
8.0537598e-05
5.3074137e-05
-6.2860463e-05
0.00012169402
5.9598378e-05
-0.00021744902
8.2332122e-05
7.1992137e-05
-0.0002170524
-8.91452e-05
8.8093579e-05
-0.00010990706
-0.00022999477
0.00012116971
5.2017887e-05
-0.00024800877
8.4088077e-05
0.00022887779