/*--------------------------------*- C++ -*----------------------------------*\
| =========                 |                                                 |
| \\      /  F ield         | OpenFOAM: The Open Source CFD Toolbox           |
|  \\    /   O peration     | Version:  v2012                                 |
|   \\  /    A nd           | Website:  www.openfoam.com                      |
|    \\/     M anipulation  |                                                 |
\*---------------------------------------------------------------------------*/
FoamFile
{
    version     2.0;
    format      ascii;
    class       volScalarField;
    location    "50/bottomWater";
    object      T;
}
// * * * * * * * * * * * * * * * * * * * * * * * * * * * * * * * * * * * * * //

dimensions      [0 0 0 1 0 0 0];


internalField   nonuniform List<scalar> 
1460
(
1050.2484
1048.391
1047.1978
1046.214
1043.9496
1041.1955
1038.4736
1037.3116
1040.9412
1042.7966
1041.9404
1036.4475
1034.748
1032.538
1030.2667
1030.2051
1032.4858
1034.7092
1036.4143
1041.9158
1042.7676
1040.9064
1037.2715
1038.4531
1041.1799
1043.9388
1046.2076
1047.1917
1048.386
1050.2457
1049.8554
1048.0217
1047.2778
1046.4984
1043.0939
1040.1148
1037.1298
1035.4385
1041.0972
1042.6334
1041.3326
1036.9777
1036.3672
1032.2052
1028.7099
1028.6435
1032.1413
1036.3349
1036.9484
1041.3055
1042.6058
1041.0578
1035.3929
1037.1121
1040.1009
1043.0848
1046.4945
1047.274
1048.0174
1049.8529
1047.0005
1047.9499
1046.6127
1046.1636
1042.8456
1040.5334
1036.785
1034.6389
1042.4358
1044.787
1041.9664
1038.1464
1039.677
1033.0481
1028.0454
1027.9735
1032.9701
1039.6543
1038.1253
1041.9459
1044.7749
1042.3956
1034.5915
1036.7672
1040.5215
1042.8374
1046.1606
1046.6102
1047.9462
1046.9986
1027.7988
1040.1549
1041.4914
1043.8897
1043.9726
1038.376
1035.5269
1032.4108
1038.9688
1044.7304
1043.0793
1040.089
1040.5589
1031.938
1026.9042
1026.8242
1031.8449
1040.5473
1040.0822
1043.063
1044.7192
1038.9171
1032.3522
1035.5082
1038.3646
1043.9679
1043.8867
1041.4895
1040.1538
1027.7993
1025.4504
1030.9622
1034.3493
1034.9006
1040.2422
1037.0805
1034.6125
1030.9222
1033.1481
1035.1044
1034.6508
1031.247
1029.9915
1028.4751
1025.7169
1025.6299
1028.3844
1029.8744
1031.1451
1034.5823
1035.0426
1033.0834
1030.8582
1034.5926
1037.0674
1040.2341
1034.8929
1034.3437
1030.9589
1025.4499
1047.8139
1049.1571
1048.9681
1048.1275
1047.5681
1045.2723
1041.142
1041.1561
1042.6145
1044.3727
1042.71
1037.7181
1035.7855
1034.4026
1031.7262
1031.6648
1034.3588
1035.7468
1037.6844
1042.6847
1044.3496
1042.5888
1041.13
1041.125
1045.2623
1047.5611
1048.1213
1048.9635
1049.1546
1047.8142
1046.0889
1047.6212
1048.5195
1048.3755
1048.1185
1044.2369
1040.3151
1040.3225
1042.3274
1043.3264
1041.1194
1037.1045
1036.2256
1035.6474
1030.6273
1030.5548
1035.6132
1036.1938
1037.0744
1041.0931
1043.2999
1042.2976
1040.2899
1040.295
1044.2238
1048.1129
1048.3703
1048.5149
1047.6189
1046.0896
1043.763
1047.4673
1048.8533
1049.7595
1048.595
1043.8296
1040.2484
1040.3645
1046.2206
1044.1044
1041.6866
1038.213
1037.572
1037.9518
1030.4414
1030.3517
1037.9354
1037.5529
1038.1843
1041.6619
1044.0803
1046.2027
1040.3267
1040.2257
1043.8152
1048.5913
1049.7552
1048.8489
1047.4651
1043.7625
1038.8288
1046.4191
1049.0286
1049.5497
1048.6777
1043.7213
1038.4225
1037.9193
1045.835
1044.4783
1042.4865
1040.226
1039.251
1039.4826
1029.4058
1029.2997
1039.4533
1039.2328
1040.2013
1042.4636
1044.4566
1045.815
1037.8731
1038.3984
1043.7081
1048.6731
1049.546
1049.0247
1046.4175
1038.8289
1034.2071
1041.2767
1043.9788
1042.1009
1041.7782
1039.4384
1036.9492
1034.7801
1038.6212
1039.224
1039.8429
1036.5916
1033.7852
1031.2894
1027.489
1027.3968
1031.1976
1033.6946
1036.5161
1039.7973
1039.1741
1038.5705
1034.7226
1036.9239
1039.4235
1041.7696
1042.0949
1043.9748
1041.2751
1034.2069
1043.2786
1044.8744
1047.1782
1051.2418
1050.2534
1048.9409
1045.569
1044.8186
1045.2714
1045.4294
1044.2591
1043.0525
1029.7289
1035.3849
1035.0753
1035.0371
1035.3458
1029.7108
1043.0292
1044.2348
1045.4054
1045.2517
1044.8011
1045.5568
1048.9324
1050.2471
1051.2373
1047.1791
1044.8753
1043.2793
1042.2222
1042.9255
1044.3523
1048.5038
1048.5055
1047.1757
1043.8786
1043.4613
1043.6554
1044.3248
1043.3954
1038.7793
1033.9139
1034.5857
1032.6323
1032.6169
1034.5727
1033.8982
1038.759
1043.3658
1044.2989
1043.6307
1043.4412
1043.8642
1047.1629
1048.4965
1048.498
1044.3527
1042.9256
1042.2222
1042.1444
1046.8053
1045.1699
1048.5628
1050.3396
1046.7006
1043.401
1041.8282
1044.2518
1045.1405
1044.2306
1040.3808
1033.9722
1035.5715
1032.1157
1032.0003
1035.5304
1033.97
1040.3585
1044.2045
1045.1175
1044.2289
1041.8007
1043.3775
1046.6869
1050.3369
1048.5576
1045.1703
1046.805
1042.1441
1039.3513
1046.9706
1046.1804
1048.9183
1050.0192
1046.4544
1041.4638
1038.1186
1045.2287
1046.5316
1044.9362
1042.086
1034.2583
1035.528
1031.3786
1031.1799
1035.5223
1034.2507
1042.0649
1044.9132
1046.512
1045.2053
1038.0759
1041.4339
1046.4388
1050.0155
1048.9138
1046.1807
1046.9701
1039.3506
1035.8826
1040.732
1041.7058
1044.74
1044.1907
1041.848
1039.009
1034.194
1036.9219
1040.1633
1039.0896
1038.7369
1031.5659
1029.4208
1025.6361
1025.5152
1029.3322
1031.4582
1038.6584
1039.0163
1040.1026
1036.8571
1034.1378
1038.9808
1041.8306
1044.1817
1044.7339
1041.7022
1040.7297
1035.8814
1040.6699
1042.9307
1045.0579
1046.926
1049.1176
1050.7959
1044.1491
1040.7613
1038.2542
1037.6723
1036.6564
1037.746
1011.4048
1002.3804
1004.0479
1004.0357
1002.3656
1011.4227
1037.7066
1036.6018
1037.6101
1038.1949
1040.7129
1044.1125
1050.7894
1049.1183
1046.9268
1045.0585
1042.9309
1040.67
1038.2394
1041.8072
1044.1169
1045.5595
1047.2907
1048.979
1043.6306
1039.7104
1037.1356
1039.0683
1038.6019
1033.7858
1010.8075
1007.486
1004.6619
1004.6621
1007.4849
1010.8069
1033.7523
1038.5494
1039.0123
1037.0709
1039.6585
1043.5975
1048.9757
1047.2897
1045.5595
1044.1167
1041.8064
1038.2383
1037.6322
1043.4788
1047.1976
1047.1117
1048.2548
1049.5003
1044.9481
1040.9486
1038.3963
1040.4944
1043.4314
1033.7978
1011.9518
1008.1167
1003.2833
1003.2526
1008.0898
1011.9414
1033.7643
1043.4023
1040.4479
1038.3411
1040.9029
1044.9197
1049.4969
1048.2544
1047.1118
1047.1975
1043.4776
1037.6306
1035.5911
1042.8062
1048.617
1049.226
1049.877
1049.7159
1046.2879
1041.7191
1035.8527
1038.9407
1041.2974
1035.6719
1012.9349
1011.3234
1001.9545
1001.9033
1011.3064
1012.9073
1035.6389
1041.2654
1038.8827
1035.7798
1041.6792
1046.2644
1049.7095
1049.8749
1049.2256
1048.6169
1042.8033
1035.5887
1033.9732
1036.4339
1037.443
1039.1903
1042.9836
1043.9552
1042.1121
1035.884
1032.1548
1034.4416
1036.2985
1032.6083
1013.0849
1006.9569
1001.5089
1001.4598
1006.904
1012.9331
1032.4792
1036.1986
1034.3337
1032.054
1035.8317
1042.0814
1043.9373
1042.9703
1039.1787
1037.4344
1036.4282
1033.9699
1039.011
1042.4454
1045.4965
1047.2875
1048.7094
1047.0611
1038.8859
1036.7544
1033.7071
1030.3481
1029.6625
1031.495
1020.1093
1020.0606
1031.43
1029.5846
1030.2437
1033.6247
1036.6883
1038.8305
1047.0432
1048.7102
1047.2881
1045.4969
1042.4456
1039.0103
1036.3664
1039.6694
1044.6747
1047.6022
1048.3885
1046.1029
1040.0111
1039.2968
1033.55
1028.8079
1028.6752
1028.0635
1021.2681
1021.209
1027.9913
1028.5925
1028.6846
1033.4622
1039.2396
1039.9591
1046.0836
1048.3887
1047.6023
1044.6742
1039.6677
1036.3643
1035.5514
1040.0778
1045.272
1049.7191
1049.3587
1046.8011
1042.7274
1043.21
1034.3081
1028.6264
1028.4106
1020.7265
1016.7317
1016.6813
1020.6493
1028.3284
1028.4958
1034.2236
1043.1729
1042.6868
1046.7838
1049.3593
1049.7196
1045.2712
1040.0755
1035.5488
1034.6729
1039.541
1049.0851
1050.4747
1049.9289
1047.3504
1046.2667
1042.6329
1032.5877
1026.2547
1022.2809
1014.4306
1007.2359
1007.1773
1014.3251
1022.1368
1026.0881
1032.4914
1042.5908
1046.2417
1047.3342
1049.9264
1050.4743
1049.0858
1039.5375
1034.6698
1033.8613
1037.4925
1040.5125
1041.4454
1042.903
1044.1434
1042.0686
1039.0301
1034.3523
1026.9677
1025.196
1017.3773
980.10207
979.6674
1017.0602
1024.9713
1026.7844
1034.2727
1038.9819
1042.0358
1044.1223
1042.8892
1041.4362
1040.5067
1037.4874
1033.8575
1039.0109
1042.4452
1045.4965
1047.2875
1048.7093
1047.063
1038.8865
1036.7535
1033.7066
1030.3454
1029.655
1031.4908
1020.1106
1020.0631
1031.4304
1029.5835
1030.2428
1033.6242
1036.6896
1038.8317
1047.0427
1048.7099
1047.2878
1045.4968
1042.4459
1039.011
1036.3662
1039.6692
1044.6747
1047.6025
1048.3886
1046.1044
1040.0103
1039.2947
1033.5491
1028.8022
1028.6649
1028.0579
1021.2652
1021.2098
1027.9901
1028.5891
1028.6824
1033.4613
1039.242
1039.9619
1046.0839
1048.3882
1047.6018
1044.6742
1039.6682
1036.3648
1035.5512
1040.0778
1045.2719
1049.7191
1049.359
1046.8022
1042.725
1043.2108
1034.3079
1028.6202
1028.3986
1020.7062
1016.7301
1016.6828
1020.642
1028.3232
1028.4929
1034.2226
1043.1749
1042.6923
1046.7844
1049.3587
1049.7192
1045.2713
1040.0754
1035.549
1034.6727
1039.5409
1049.0852
1050.4748
1049.9287
1047.3516
1046.2647
1042.6343
1032.5831
1026.248
1022.2581
1014.4103
1007.2074
1007.1587
1014.3131
1022.1246
1026.0852
1032.4905
1042.5901
1046.2461
1047.335
1049.9267
1050.4738
1049.0851
1039.5373
1034.6697
1033.8613
1037.493
1040.5133
1041.4464
1042.9034
1044.1448
1042.0674
1039.0292
1034.3489
1026.9707
1025.2211
1017.425
980.12073
979.67646
1017.0918
1024.9845
1026.7862
1034.2735
1038.9832
1042.0389
1044.1227
1042.8893
1041.4352
1040.5055
1037.4865
1033.8571
1040.6695
1042.9303
1045.0576
1046.9257
1049.1173
1050.7958
1044.151
1040.7635
1038.2566
1037.6741
1036.6558
1037.7457
1011.41
1002.3848
1004.0553
1004.0363
1002.366
1011.3984
1037.7045
1036.6023
1037.6108
1038.1953
1040.7142
1044.1142
1050.7895
1049.1183
1046.9268
1045.0586
1042.9311
1040.6704
1038.2389
1041.8067
1044.1168
1045.5594
1047.2905
1048.9789
1043.6326
1039.7117
1037.1369
1039.0689
1038.5929
1033.7768
1010.8174
1007.4989
1004.676
1004.6616
1007.4848
1010.8011
1033.7419
1038.5459
1039.0117
1037.0701
1039.6589
1043.5991
1048.9758
1047.2897
1045.5595
1044.1167
1041.8066
1038.2386
1037.6316
1043.4781
1047.197
1047.1119
1048.2551
1049.5002
1044.95
1040.95
1038.399
1040.4965
1043.4296
1033.7859
1011.9587
1008.1136
1003.2878
1003.2609
1008.0916
1011.9381
1033.7552
1043.4022
1040.4477
1038.3397
1040.9034
1044.9214
1049.4972
1048.2542
1047.1115
1047.1976
1043.4778
1037.6309
1035.5904
1042.8037
1048.6167
1049.2266
1049.8775
1049.716
1046.2896
1041.7182
1035.8546
1038.9413
1041.29
1035.6569
1012.9375
1011.3203
1001.9528
1001.9167
1011.2977
1012.9084
1035.6296
1041.2625
1038.8835
1035.7792
1041.6802
1046.266
1049.71
1049.8747
1049.2247
1048.6166
1042.8042
1035.5889
1033.9726
1036.4334
1037.4426
1039.1915
1042.9842
1043.9557
1042.1126
1035.8824
1032.1546
1034.444
1036.2986
1032.5999
1013.0942
1006.9631
1001.5118
1001.4736
1006.912
1012.947
1032.4767
1036.2002
1034.3339
1032.0532
1035.8331
1042.0824
1043.9374
1042.9703
1039.1777
1037.4339
1036.4281
1033.9699
1043.2785
1044.8742
1047.178
1051.2416
1050.2536
1048.9416
1045.569
1044.8181
1045.2719
1045.4308
1044.259
1043.0505
1029.7264
1035.3761
1035.0681
1035.0408
1035.3489
1029.7061
1043.0275
1044.2342
1045.4056
1045.2513
1044.7998
1045.556
1048.9314
1050.2463
1051.2374
1047.1794
1044.8755
1043.2795
1042.2223
1042.9254
1044.3522
1048.5038
1048.5063
1047.1765
1043.8792
1043.4611
1043.6558
1044.3257
1043.3931
1038.776
1033.9127
1034.5857
1032.6313
1032.6131
1034.5692
1033.8949
1038.7567
1043.3648
1044.2989
1043.6301
1043.4402
1043.864
1047.1629
1048.4962
1048.4983
1044.3528
1042.9259
1042.2224
1042.1444
1046.8055
1045.1698
1048.5627
1050.3398
1046.7012
1043.4013
1041.8276
1044.2521
1045.1413
1044.229
1040.3764
1033.9734
1035.5602
1032.0808
1032.0238
1035.5351
1033.9618
1040.3571
1044.204
1045.1175
1044.2283
1041.7996
1043.3772
1046.6868
1050.337
1048.558
1045.1703
1046.8047
1042.1444
1039.3511
1046.9708
1046.1804
1048.9183
1050.0196
1046.4554
1041.4644
1038.1177
1045.2287
1046.5321
1044.9347
1042.0821
1034.2602
1035.5309
1031.3241
1031.2335
1035.5178
1034.2463
1042.064
1044.9131
1046.5126
1045.205
1038.0743
1041.4336
1046.439
1050.0158
1048.9141
1046.1805
1046.97
1039.3509
1035.8823
1040.7317
1041.7053
1044.7397
1044.1913
1041.8485
1039.0095
1034.1941
1036.9239
1040.1639
1039.091
1038.7344
1031.5704
1029.4134
1025.6219
1025.5535
1029.3476
1031.463
1038.6589
1039.0163
1040.1011
1036.8524
1034.1376
1038.9817
1041.831
1044.182
1044.7343
1041.7023
1040.7298
1035.8813
1047.8139
1049.157
1048.968
1048.1274
1047.5682
1045.2726
1041.1422
1041.1558
1042.614
1044.372
1042.704
1037.7113
1035.7787
1034.3953
1031.7145
1031.6743
1034.3639
1035.7502
1037.6865
1042.6843
1044.3491
1042.5883
1041.1289
1041.1248
1045.2612
1047.5603
1048.1204
1048.9627
1049.1542
1047.8142
1046.089
1047.6212
1048.5196
1048.3758
1048.1194
1044.2382
1040.3157
1040.3215
1042.3268
1043.3258
1041.1161
1037.1004
1036.2217
1035.6431
1030.6147
1030.5684
1035.6168
1036.1963
1037.0762
1041.0938
1043.2998
1042.298
1040.2887
1040.2953
1044.2235
1048.1123
1048.3699
1048.5144
1047.6188
1046.0897
1043.763
1047.4673
1048.8533
1049.7594
1048.596
1043.8311
1040.249
1040.3624
1046.2209
1044.104
1041.684
1038.209
1037.5696
1037.9494
1030.4244
1030.3708
1037.9336
1037.5516
1038.1866
1041.6631
1044.0807
1046.2024
1040.3251
1040.2259
1043.8146
1048.5903
1049.755
1048.8484
1047.4651
1043.7628
1038.8295
1046.4194
1049.0287
1049.5497
1048.6789
1043.7233
1038.4232
1037.9175
1045.835
1044.4777
1042.4844
1040.2227
1039.2497
1039.4774
1029.3888
1029.3254
1039.4542
1039.2326
1040.2026
1042.4649
1044.4574
1045.8158
1037.8715
1038.3989
1043.7084
1048.6727
1049.5458
1049.0244
1046.4175
1038.8293
1034.2076
1041.2771
1043.979
1042.1007
1041.7785
1039.4387
1036.9499
1034.7794
1038.6202
1039.2228
1039.8413
1036.5895
1033.7867
1031.2819
1027.4798
1027.4163
1031.2096
1033.6952
1036.5175
1039.7982
1039.1737
1038.5697
1034.7216
1036.9249
1039.4238
1041.7697
1042.0945
1043.9743
1041.2752
1034.207
1050.2484
1048.3908
1047.1975
1046.2138
1043.9493
1041.1957
1038.474
1037.3116
1040.9401
1042.7958
1041.9364
1036.4426
1034.7432
1032.5316
1030.2581
1030.2139
1032.4911
1034.7102
1036.414
1041.9132
1042.7677
1040.9072
1037.2708
1038.4526
1041.1786
1043.9372
1046.2063
1047.1906
1048.385
1050.245
1049.8554
1048.0216
1047.2779
1046.4987
1043.0942
1040.116
1037.1307
1035.4388
1041.0945
1042.6326
1041.3305
1036.9753
1036.3648
1032.1991
1028.7034
1028.6535
1032.1502
1036.3349
1036.9477
1041.3051
1042.6049
1041.0603
1035.3921
1037.1119
1040.1001
1043.0837
1046.4935
1047.2731
1048.0166
1049.8524
1047.0002
1047.9498
1046.6129
1046.1643
1042.8464
1040.5344
1036.7861
1034.6394
1042.4321
1044.7876
1041.9655
1038.1452
1039.6743
1033.0399
1028.0389
1027.9846
1032.983
1039.6543
1038.1212
1041.9431
1044.7703
1042.3998
1034.5899
1036.7669
1040.5207
1042.8368
1046.1596
1046.6096
1047.9456
1046.9986
1027.7987
1040.1561
1041.4918
1043.8898
1043.9733
1038.3774
1035.5281
1032.4115
1038.9658
1044.7311
1043.0791
1040.0896
1040.5588
1031.9289
1026.8977
1026.8363
1031.859
1040.5408
1040.0708
1043.0591
1044.7142
1038.9206
1032.3501
1035.508
1038.3639
1043.9673
1043.8864
1041.4891
1040.1536
1027.7992
1025.4499
1030.9617
1034.349
1034.9005
1040.2431
1037.081
1034.6135
1030.9233
1033.149
1035.1052
1034.6522
1031.246
1029.9915
1028.4732
1025.7105
1025.6421
1028.3893
1029.8776
1031.147
1034.5792
1035.0389
1033.0796
1030.8555
1034.5928
1037.0675
1040.234
1034.8926
1034.3434
1030.9586
1025.4494
)
;

boundaryField
{
    minX
    {
        type            zeroGradient;
    }
    maxX
    {
        type            zeroGradient;
    }
    minY
    {
        type            fixedValue;
        value           uniform 1073;
    }
    minZ
    {
        type            zeroGradient;
    }
    maxZ
    {
        type            zeroGradient;
    }
    bottomWater_to_rightSolid
    {
        type            compressible::turbulentTemperatureCoupledBaffleMixed;
        refValue        nonuniform List<scalar> 
130
(
465.76289
466.70881
467.62163
468.42852
469.10944
469.68157
470.17963
470.58203
470.87683
471.04138
471.13264
471.15313
471.13592
464.59801
465.86181
467.03792
468.04441
468.87338
469.54292
470.10742
470.55966
470.89472
471.11107
471.2365
471.27514
471.26128
462.01778
464.04216
465.80078
467.23539
468.35629
469.23569
469.94772
470.491
470.87981
471.12684
471.25866
471.31615
471.31924
457.7589
461.30915
464.08735
466.16196
467.70528
468.87739
469.76606
470.40277
470.82942
471.08697
471.23321
471.30244
471.31945
452.4303
458.52213
462.55262
465.29367
467.23726
468.63346
469.63736
470.34138
470.8048
471.08925
471.24716
471.31264
471.32571
452.43041
458.52227
462.5527
465.29369
467.23727
468.63347
469.63737
470.34139
470.80482
471.08926
471.24717
471.31265
471.32572
457.75904
461.30921
464.08738
466.16196
467.70527
468.8774
469.76608
470.40279
470.82945
471.08701
471.23326
471.30249
471.31951
462.01787
464.04218
465.80077
467.23535
468.35624
469.23567
469.94774
470.49104
470.87986
471.12691
471.25874
471.31625
471.31936
464.59803
465.8618
467.03789
468.04437
468.87334
469.5429
470.10744
470.55971
470.89479
471.11117
471.23663
471.27531
471.26148
465.76284
466.70876
467.62155
468.42844
469.10938
469.68154
470.17964
470.58207
470.87691
471.04149
471.13281
471.15338
471.13628
)
;
        refGradient     uniform 0;
        valueFraction   uniform 0.99248593;
        value           nonuniform List<scalar> 
130
(
470.00178
470.95011
471.88186
472.68611
473.34722
473.89835
474.42073
474.83872
475.1551
475.27817
475.36465
475.35956
475.30112
468.87432
470.14983
471.34178
472.33601
473.1542
473.78979
474.36659
474.83422
475.1844
475.40154
475.5402
475.55821
475.49138
466.29668
468.35998
470.10801
471.54005
472.62817
473.48046
474.22354
474.78415
475.18774
475.43702
475.54509
475.59482
475.56148
461.93059
465.6011
468.3863
470.4313
471.94588
473.13757
474.06655
474.71239
475.12864
475.35572
475.48777
475.54891
475.54732
456.3923
462.71919
466.77875
469.51277
471.49804
472.91918
473.93849
474.6529
475.10362
475.37501
475.52471
475.56699
475.55268
456.39248
462.71956
466.77893
469.51281
471.49805
472.91919
473.93853
474.65292
475.10363
475.37502
475.52471
475.567
475.55269
461.93084
465.60114
468.38633
470.4313
471.94586
473.13758
474.06657
474.71242
475.12867
475.35575
475.48781
475.54896
475.54738
466.29681
468.36
470.108
471.54
472.62809
473.48044
474.22356
474.78419
475.18779
475.43709
475.54517
475.59493
475.5616
468.87435
470.14983
471.34176
472.33596
473.15416
473.78977
474.36661
474.83426
475.18446
475.40163
475.54032
475.55838
475.49158
470.00176
470.95008
471.88176
472.68601
473.34713
473.8983
474.42074
474.83876
475.15517
475.27828
475.36482
475.35981
475.30148
)
;
        Tnbr            T;
        thicknessLayers List<scalar> 0();
        kappaLayers     List<scalar> 0();
        kappaMethod     fluidThermo;
        kappa           none;
        alphaAni        none;
        alpha           none;
        field           T;
    }
    bottomWater_to_leftSolid
    {
        type            compressible::turbulentTemperatureCoupledBaffleMixed;
        refValue        nonuniform List<scalar> 
130
(
471.11338
471.17542
471.24391
471.28915
471.31588
471.27777
471.2106
471.14062
471.10217
471.06888
471.02188
470.96333
470.9264
471.25059
471.31199
471.3679
471.3883
471.37834
471.32415
471.24538
471.16839
471.12282
471.07429
471.01449
470.93969
470.88416
471.31665
471.36548
471.41144
471.44079
471.42567
471.35959
471.25765
471.14181
471.05772
470.98097
470.88562
470.78273
470.68549
471.31094
471.34953
471.39252
471.42357
471.42559
471.36832
471.25105
471.08882
470.92876
470.78846
470.64182
470.46403
470.27625
471.30884
471.3535
471.40568
471.43589
471.43022
471.36885
471.23989
471.05867
470.84506
470.61611
470.39307
470.1322
469.84314
471.30884
471.3535
471.40568
471.43589
471.43022
471.36886
471.23989
471.05866
470.84506
470.61616
470.39322
470.13244
469.84333
471.31093
471.34952
471.39252
471.42357
471.4256
471.36833
471.25106
471.08882
470.92877
470.7885
470.64188
470.46411
470.27639
471.31665
471.36547
471.41143
471.44079
471.42568
471.3596
471.25766
471.14183
471.05774
470.981
470.88566
470.78277
470.68557
471.25059
471.31199
471.3679
471.3883
471.37834
471.32416
471.2454
471.1684
471.12283
471.0743
471.01451
470.93971
470.88419
471.11337
471.17541
471.2439
471.28915
471.31589
471.27778
471.21062
471.14064
471.1022
471.0689
471.02191
470.96334
470.92641
)
;
        refGradient     uniform 0;
        valueFraction   uniform 0.99248593;
        value           nonuniform List<scalar> 
130
(
475.27876
475.38171
475.47513
475.52414
475.59091
475.52932
475.4441
475.34692
475.32547
475.30709
475.25708
475.17342
475.12737
475.48078
475.5948
475.67064
475.67673
475.66444
475.59307
475.49619
475.40348
475.38713
475.3435
475.28882
475.19012
475.11392
475.55892
475.6438
475.69675
475.74866
475.72956
475.64633
475.52384
475.37269
475.30978
475.25794
475.1552
475.05049
474.90007
475.5389
475.59569
475.64594
475.68988
475.72043
475.67082
475.54061
475.33277
475.1459
475.02384
474.89226
474.68815
474.35503
475.53597
475.60758
475.68207
475.71911
475.72444
475.67281
475.52924
475.32652
475.07933
474.7966
474.56197
474.2444
473.67757
475.53596
475.60758
475.68208
475.71913
475.72445
475.67283
475.52922
475.32651
475.0793
474.79667
474.56231
474.245
473.6779
475.53889
475.59568
475.64593
475.68989
475.72045
475.67083
475.54062
475.33276
475.14591
475.0239
474.89233
474.68817
474.35524
475.55891
475.64379
475.69674
475.74866
475.72957
475.64635
475.52386
475.3727
475.30982
475.25797
475.15524
475.05051
474.90018
475.48078
475.5948
475.67063
475.67673
475.66445
475.59308
475.49621
475.40348
475.38713
475.3435
475.28882
475.19012
475.11396
475.27875
475.3817
475.47512
475.52414
475.59093
475.52934
475.44413
475.34695
475.3255
475.30713
475.25711
475.17342
475.12738
)
;
        Tnbr            T;
        thicknessLayers List<scalar> 0();
        kappaLayers     List<scalar> 0();
        kappaMethod     fluidThermo;
        kappa           none;
        alphaAni        none;
        alpha           none;
        field           T;
    }
    bottomWater_to_heater
    {
        type            compressible::turbulentTemperatureCoupledBaffleMixed;
        refValue        nonuniform List<scalar> 
92
(
463.39623
463.63821
464.13793
464.8602
461.39483
461.71523
462.38782
463.37497
456.84623
457.32608
458.37866
459.99441
329.3431
326.05419
326.06911
329.3789
371.84781
367.40304
367.46236
371.99101
402.13827
397.71754
397.87736
402.52867
422.26556
418.25242
418.65699
423.28347
448.73391
433.45847
449.34276
430.48199
450.97722
431.45238
453.84726
436.10746
329.3431
329.3789
371.84781
371.99101
402.13827
402.52867
422.26556
423.28347
433.45847
436.10746
329.3431
329.3431
326.05419
326.0691
329.37891
329.37891
371.84778
371.84778
367.40304
367.46236
371.99102
371.99102
402.13817
402.13817
397.71751
397.87737
402.52869
402.52869
422.26537
422.26537
418.25237
418.657
423.28343
423.28343
433.45851
433.45851
430.48201
431.45245
436.10757
436.10757
448.73401
449.34287
450.97739
453.84741
456.84618
457.32607
458.37885
459.99456
461.39467
461.71514
462.38789
463.37506
463.39593
463.63805
464.13795
464.86028
)
;
        refGradient     uniform 0;
        valueFraction   nonuniform List<scalar> 
92
(
0.99248593
0.99248593
0.99248593
0.99248593
0.99248593
0.99248593
0.99248593
0.99248593
0.99248593
0.99248593
0.99248593
0.99248593
0.99248593
0.99248593
0.99248593
0.99248593
0.99248593
0.99248593
0.99248593
0.99248593
0.99248593
0.99248593
0.99248593
0.99248593
0.99248593
0.99248593
0.99248593
0.99248593
0.99248593
0.99248593
0.99248593
0.99248593
0.99248593
0.99248593
0.99248593
0.99248593
0.99248593
0.99248593
0.99248593
0.99248593
0.99248593
0.99248593
0.99248593
0.99248593
0.99248593
0.99248593
0.99248593
0.99248593
0.99248593
0.99248593
0.99248593
0.99248593
0.99248593
0.99248593
0.99248593
0.99248593
0.99248593
0.99248593
0.99248593
0.99248593
0.99248593
0.99248593
0.99248593
0.99248593
0.99248593
0.99248593
0.99248593
0.99248593
0.99248593
0.99248593
0.99248593
0.99248593
0.99248593
0.99248593
0.99248593
0.99248593
0.99248593
0.99248593
0.99248593
0.99248593
0.99248593
0.99248593
0.99248593
0.99248593
0.99248593
0.99248593
0.99248593
0.99248593
0.99248593
0.99248593
0.99248593
0.99248593
)
;
        value           nonuniform List<scalar> 
92
(
467.64237
467.86179
468.35711
469.09466
465.67714
465.96657
466.63341
467.64171
461.14869
461.5965
462.64027
464.27255
334.40049
331.14882
331.16353
334.4359
376.62417
372.1916
372.25047
376.76628
406.69176
402.26796
402.42634
407.07903
426.6919
422.63854
423.03968
427.70202
452.92852
437.76787
453.49189
434.77284
455.1137
435.73557
458.00305
440.39656
334.53366
334.56882
376.72769
376.86936
406.75646
407.14355
426.66114
427.67096
437.5663
440.19212
334.53367
334.40052
331.14887
331.16353
334.56885
334.43591
376.72763
376.62423
372.1917
372.25046
376.86938
376.76629
406.75635
406.69164
402.26796
402.42641
407.14358
407.07906
426.66073
426.69168
422.63847
423.03979
427.67078
427.70192
437.56648
437.76795
434.77288
435.73574
440.1923
440.39673
452.92867
453.49202
455.11397
458.00326
461.14859
461.59638
462.64074
464.27281
465.67692
465.96641
466.63363
467.64189
467.64206
467.86159
468.35722
469.09478
)
;
        Tnbr            T;
        thicknessLayers List<scalar> 0();
        kappaLayers     List<scalar> 0();
        kappaMethod     fluidThermo;
        kappa           none;
        alphaAni        none;
        alpha           none;
        field           T;
    }
}


// ************************************************************************* //
