/*--------------------------------*- C++ -*----------------------------------*\
| =========                 |                                                 |
| \\      /  F ield         | OpenFOAM: The Open Source CFD Toolbox           |
|  \\    /   O peration     | Version:  v2012                                 |
|   \\  /    A nd           | Website:  www.openfoam.com                      |
|    \\/     M anipulation  |                                                 |
\*---------------------------------------------------------------------------*/
FoamFile
{
    version     2.0;
    format      ascii;
    class       volScalarField;
    location    "420/heater";
    object      T;
}
// * * * * * * * * * * * * * * * * * * * * * * * * * * * * * * * * * * * * * //

dimensions      [0 0 0 1 0 0 0];


internalField   nonuniform List<scalar> 
80
(
732.49031
734.59491
738.71127
744.56415
723.13302
725.60386
730.44784
737.37979
703.40951
706.60337
712.99338
722.38034
671.24023
675.23274
683.7877
697.57828
345.57682
342.85026
342.89433
345.6574
422.23238
418.928
419.18497
422.84412
487.75028
484.97757
485.71758
489.53048
543.40442
541.706
543.62584
548.14918
589.35507
589.55005
594.15032
601.68502
624.29425
627.90998
637.36482
656.43295
345.4971
342.78063
342.8219
345.56279
422.1004
418.79973
419.05346
422.68987
487.57812
484.8244
485.56873
489.35951
543.22115
541.55427
543.48509
547.9992
589.19244
589.39487
594.00491
601.55632
624.04743
627.6588
637.11408
656.18617
670.37305
674.31706
682.8637
696.67811
702.07493
705.19178
711.56246
720.97924
721.49629
723.93411
728.77488
735.72263
730.7032
732.82137
736.93123
742.78116
)
;

boundaryField
{
    minY
    {
        type            fixedValue;
        value           uniform 300;
    }
    minZ
    {
        type            zeroGradient;
    }
    maxZ
    {
        type            zeroGradient;
    }
    heater_to_topAir
    {
        type            compressible::turbulentTemperatureCoupledBaffleMixed;
        refValue        nonuniform List<scalar> 
40
(
508.14772
506.32096
502.08905
496.12382
474.17951
464.07379
452.87009
442.73204
484.0761
474.30795
463.30088
452.88555
497.97431
494.63411
493.35286
494.05185
495.82315
493.95006
495.1185
497.51036
497.02878
493.30668
492.57876
494.69132
500.66858
497.44611
495.47513
495.43407
486.68729
478.18572
467.55258
456.5916
475.568
466.30849
455.70061
445.67037
508.1459
506.60935
502.73823
497.07837
)
;
        refGradient     uniform 0;
        valueFraction   nonuniform List<scalar> 
40
(
0.00032132529
0.00032132529
0.00032132529
0.00032132529
0.00032132529
0.00032132529
0.00032132529
0.00032132529
0.00032132529
0.00032132529
0.00032132529
0.00032132529
0.00032132529
0.00032132529
0.00032132529
0.00032132529
0.00032132529
0.00032132529
0.00032132529
0.00032132529
0.00032132529
0.00032132529
0.00032132529
0.00032132529
0.00032132529
0.00032132529
0.00032132529
0.00032132529
0.00032132529
0.00032132529
0.00032132529
0.00032132529
0.00032132529
0.00032132529
0.00032132529
0.00032132529
0.00032132529
0.00032132529
0.00032132529
0.00032132529
)
;
        value           nonuniform List<scalar> 
40
(
732.4173
734.52065
738.63446
744.48361
723.05223
725.51906
730.35793
737.28444
703.33834
706.52807
712.91251
722.2931
671.184
675.17417
683.72597
697.51233
624.25256
627.86652
637.31871
656.38148
624.00622
627.61523
637.06723
656.13388
670.31801
674.25969
682.80292
696.61286
702.00492
705.11807
711.48329
720.89351
721.41627
723.85041
728.68625
735.62856
730.63064
732.74772
736.85506
742.70137
)
;
        Tnbr            T;
        thicknessLayers List<scalar> 0();
        kappaLayers     List<scalar> 0();
        kappaMethod     solidThermo;
        kappa           none;
        alphaAni        none;
        alpha           none;
        field           T;
    }
    heater_to_rightSolid
    {
        type            compressible::turbulentTemperatureCoupledBaffleMixed;
        refValue        nonuniform List<scalar> 10(751.74987 745.87961 734.07328 716.38036 695.4749 695.2212 715.53301 732.72449 744.26433 749.98795);
        refGradient     uniform 0;
        valueFraction   nonuniform List<scalar> 10(0.49999997 0.49999997 0.49999997 0.49999997 0.49999997 0.49999997 0.49999997 0.49999997 0.49999997 0.49999997);
        value           nonuniform List<scalar> 10(748.15666 741.62936 728.22649 706.97904 675.95373 675.70349 706.10527 726.85148 739.99305 746.38413);
        Tnbr            T;
        thicknessLayers List<scalar> 0();
        kappaLayers     List<scalar> 0();
        kappaMethod     solidThermo;
        kappa           none;
        alphaAni        none;
        alpha           none;
        field           T;
    }
    heater_to_leftSolid
    {
        type            compressible::turbulentTemperatureCoupledBaffleMixed;
        refValue        nonuniform List<scalar> 10(886.27526 886.18028 886.00141 885.74861 885.57378 885.43694 885.47173 885.70989 885.86364 885.96215);
        refGradient     uniform 0;
        valueFraction   nonuniform List<scalar> 10(2.0832898e-05 2.0832898e-05 2.0832898e-05 2.0832898e-05 2.0832898e-05 2.0832898e-05 2.0832898e-05 2.0832898e-05 2.0832898e-05 2.0832898e-05);
        value           nonuniform List<scalar> 10(732.49259 723.13562 703.41262 671.24415 624.29928 624.05248 670.37702 702.07795 721.49872 730.70539);
        Tnbr            T;
        thicknessLayers List<scalar> 1(0.001);
        kappaLayers     List<scalar> 1(0.0005);
        kappaMethod     solidThermo;
        kappa           none;
        alphaAni        none;
        alpha           none;
        field           T;
    }
    heater_to_bottomWater
    {
        type            compressible::turbulentTemperatureCoupledBaffleMixed;
        refValue        nonuniform List<scalar> 
92
(
951.55991
947.58533
945.45874
943.60197
949.31794
946.64494
943.95883
942.26168
946.03062
946.64014
946.12993
939.67294
934.84888
934.27579
929.58158
929.71479
936.0653
939.67442
937.69292
935.61191
936.05739
942.14937
938.8834
934.83181
933.02887
939.10338
937.88335
933.65926
932.45755
932.45755
932.91369
932.91369
931.23083
931.23083
930.09831
930.09831
937.67442
926.37123
933.10165
930.80791
934.88726
927.72763
938.91791
921.85882
940.3347
908.16933
933.51856
920.31789
918.18541
914.44453
922.56153
910.60117
929.93043
923.34254
920.06139
919.62869
927.84369
917.13828
926.74376
925.59885
921.42365
920.84021
923.24409
917.40943
927.16966
926.29198
921.77778
922.53146
917.76142
919.81457
936.03881
928.96058
920.86211
920.36829
911.30328
920.27534
928.96058
920.86211
920.36829
920.27534
946.37934
930.87332
930.19275
927.36232
947.13318
937.64253
936.96992
935.12364
943.70201
944.0058
940.71908
935.98716
)
;
        refGradient     uniform 0;
        valueFraction   nonuniform List<scalar> 
92
(
0.0075140686
0.0075140686
0.0075140686
0.0075140686
0.0075140686
0.0075140686
0.0075140686
0.0075140686
0.0075140686
0.0075140686
0.0075140686
0.0075140686
0.0075140686
0.0075140686
0.0075140686
0.0075140686
0.0075140686
0.0075140686
0.0075140686
0.0075140686
0.0075140686
0.0075140686
0.0075140686
0.0075140686
0.0075140686
0.0075140686
0.0075140686
0.0075140686
0.0075140686
0.0075140686
0.0075140686
0.0075140686
0.0075140686
0.0075140686
0.0075140686
0.0075140686
0.0075140679
0.0075140679
0.0075140679
0.0075140679
0.0075140679
0.0075140679
0.0075140679
0.0075140679
0.0075140679
0.0075140679
0.0075140679
0.0075140686
0.0075140686
0.0075140686
0.0075140679
0.0075140686
0.0075140679
0.0075140686
0.0075140686
0.0075140686
0.0075140679
0.0075140686
0.0075140679
0.0075140686
0.0075140686
0.0075140686
0.0075140679
0.0075140686
0.0075140679
0.0075140686
0.0075140686
0.0075140686
0.0075140679
0.0075140686
0.0075140679
0.0075140686
0.0075140686
0.0075140686
0.0075140679
0.0075140686
0.0075140686
0.0075140686
0.0075140686
0.0075140686
0.0075140686
0.0075140686
0.0075140686
0.0075140686
0.0075140686
0.0075140686
0.0075140686
0.0075140686
0.0075140686
0.0075140686
0.0075140686
0.0075140686
)
;
        value           nonuniform List<scalar> 
92
(
734.1355
736.19444
740.26402
746.05903
724.8318
727.26402
732.05146
738.91862
705.23189
708.40637
714.74455
724.01245
350.00462
347.29422
347.30268
350.04597
426.09328
422.8408
423.08087
426.69683
491.11879
488.41262
489.1224
492.87606
546.3319
544.69184
546.58802
551.04546
673.20249
591.93289
677.16843
592.12982
685.64647
596.68287
699.3249
604.15242
350.02585
350.02085
426.07101
426.66073
491.11
492.82267
546.37615
550.95679
591.99208
603.98764
349.91553
349.81634
347.10422
347.11702
349.89823
349.80836
425.91619
425.86669
422.56612
422.81457
426.48521
426.40477
490.87791
490.86931
488.10486
488.83907
492.61917
492.57533
546.10599
546.0994
544.41109
546.333
550.7772
550.79263
591.79843
591.74524
591.88527
596.45697
603.88356
603.95097
672.31559
676.16908
684.64777
698.35765
703.90985
706.8868
713.20451
722.52924
723.19075
725.53901
730.3384
737.22008
732.30265
734.40727
738.4616
744.23209
)
;
        Tnbr            T;
        thicknessLayers List<scalar> 0();
        kappaLayers     List<scalar> 0();
        kappaMethod     solidThermo;
        kappa           none;
        alphaAni        none;
        alpha           none;
        field           T;
    }
}


// ************************************************************************* //
