/*--------------------------------*- C++ -*----------------------------------*\
| =========                 |                                                 |
| \\      /  F ield         | OpenFOAM: The Open Source CFD Toolbox           |
|  \\    /   O peration     | Version:  v2012                                 |
|   \\  /    A nd           | Website:  www.openfoam.com                      |
|    \\/     M anipulation  |                                                 |
\*---------------------------------------------------------------------------*/
FoamFile
{
    version     2.0;
    format      ascii;
    class       volScalarField;
    location    "32";
    object      p;
}
// * * * * * * * * * * * * * * * * * * * * * * * * * * * * * * * * * * * * * //

dimensions      [0 2 -2 0 0 0 0];


internalField   nonuniform List<scalar> 
64000
(
5.22381e-22
-3.47881e-21
-2.95548e-21
-5.13837e-21
-8.40957e-21
-2.90287e-21
-4.62791e-21
-4.44587e-21
-5.60738e-21
-4.39898e-21
-5.19094e-21
-6.42653e-21
-4.22672e-21
-6.39152e-21
-3.8301e-21
-5.1754e-21
-1.09428e-21
-7.4372e-22
-1.50655e-21
-2.06438e-21
-1.53536e-21
-1.75215e-21
-1.97555e-21
3.07337e-23
-5.18735e-21
-1.74674e-21
4.748e-22
-4.78746e-21
-3.15441e-21
-1.99202e-21
-2.77992e-21
9.4639e-23
4.37904e-23
-5.80314e-22
-1.22159e-21
-5.11713e-21
-4.07159e-22
2.24053e-22
-5.30715e-22
-1.17291e-21
-6.87956e-21
-1.07015e-20
-1.06744e-20
-8.07517e-21
-1.07216e-20
-1.13429e-20
-8.91658e-21
-5.5897e-21
-4.09522e-21
-9.32249e-21
-1.09518e-20
-1.08159e-20
-5.10534e-21
-4.95966e-21
-6.01947e-21
-5.65127e-21
-3.62072e-21
2.03236e-21
-1.4422e-21
-4.32865e-21
9.57371e-22
-2.64763e-21
-4.99892e-21
-8.1104e-21
-5.32138e-21
-2.91854e-21
-3.54531e-21
-5.66699e-21
-3.9873e-21
-1.67557e-21
1.28479e-21
1.30613e-22
-3.74371e-21
-2.21761e-21
-8.04207e-22
-2.05932e-21
-8.57275e-22
1.57383e-21
-4.09774e-22
-2.11656e-21
-6.56924e-21
-9.25041e-21
-1.30016e-20
-1.03145e-20
-9.34441e-21
-1.15931e-20
-9.99926e-21
-8.12406e-21
-9.46914e-21
-1.02246e-20
-7.92318e-21
-8.90838e-21
-8.02061e-21
-4.52811e-21
-3.6131e-21
-1.39595e-21
-8.77521e-21
-3.20212e-21
6.87806e-22
-1.20436e-21
-2.28488e-21
-5.50454e-21
-5.66863e-21
-5.88268e-21
-3.51762e-21
-4.67367e-21
-5.06802e-21
-5.5737e-21
-2.01118e-21
-2.46984e-21
-1.62612e-21
-4.55092e-22
-3.2305e-21
7.37886e-22
-1.00104e-21
-4.84469e-21
2.60294e-21
2.97479e-21
1.66705e-22
4.052e-23
-8.49524e-21
-9.43283e-21
-1.08266e-20
-1.4464e-20
-1.28383e-20
-1.3359e-20
-1.09582e-20
-7.66885e-21
-1.01556e-20
-1.05467e-20
-8.59658e-21
-9.99204e-21
-8.94937e-21
-4.61797e-21
-4.86063e-21
-4.00618e-21
-5.53563e-21
-4.44276e-21
7.32163e-22
2.99844e-22
-3.35799e-21
-6.53074e-21
-8.22293e-21
-6.89355e-21
-7.2503e-21
-2.42755e-21
-3.24035e-21
-3.43237e-21
-3.10326e-21
-3.02208e-21
-2.32419e-22
-1.02347e-21
-1.16213e-21
-2.16731e-22
-1.43239e-21
-2.69169e-21
1.05006e-21
7.01577e-22
-1.22896e-21
-2.08045e-23
-1.57162e-20
-1.0476e-20
-1.14828e-20
-1.27541e-20
-1.23539e-20
-1.45742e-20
-1.09989e-20
-5.36189e-21
-8.92811e-21
-1.21921e-20
-9.64565e-21
-9.30823e-21
-7.35555e-21
-3.46882e-21
-9.15523e-21
-1.21913e-20
-5.20495e-21
-2.98068e-21
-1.61346e-21
-2.17067e-21
-2.86932e-21
-7.661e-21
-9.32454e-21
-7.15627e-21
-5.10804e-21
-3.8961e-21
-2.31174e-21
-3.15438e-21
-5.23652e-21
-8.76004e-22
3.317e-22
1.69928e-21
5.18165e-23
4.71066e-22
-2.77472e-21
-2.9391e-21
-8.35572e-22
-1.13137e-21
-1.14286e-22
-6.31528e-22
-1.22747e-20
-1.12511e-20
-1.08919e-20
-1.40081e-20
-1.22358e-20
-1.18477e-20
-8.86082e-21
-1.21231e-20
-1.19586e-20
-1.13123e-20
-9.45877e-21
-9.25324e-21
-8.54988e-21
-4.16729e-21
-8.04558e-21
-1.01764e-20
-4.894e-21
-2.03564e-21
-2.53666e-21
-5.03245e-21
-1.16472e-21
-4.89732e-21
-1.02018e-20
-8.44838e-21
-7.99789e-21
-3.34704e-21
-3.27916e-21
-7.12524e-22
-2.16741e-21
-2.87805e-21
-2.24958e-21
-1.75256e-21
-5.26065e-22
-5.48817e-23
-1.07669e-21
1.21644e-23
-2.71004e-21
-1.23251e-21
-6.28997e-22
9.08649e-22
-1.28338e-20
-1.52366e-20
-9.53243e-21
-1.13414e-20
-1.25901e-20
-1.23251e-20
-9.43214e-21
-1.15268e-20
-1.26673e-20
-1.12465e-20
-9.83131e-21
-1.09739e-20
-7.42978e-21
-7.20298e-21
-7.81172e-21
-8.18044e-21
-4.99939e-21
-2.95863e-22
-7.67677e-22
-4.10955e-21
-4.18045e-21
-7.96957e-21
-1.26087e-20
-1.16511e-20
-5.32779e-21
-4.26303e-21
-2.97714e-21
1.41562e-22
-7.86916e-22
-3.33995e-22
-4.02624e-21
-4.35138e-21
1.04455e-21
5.42869e-22
-1.19435e-21
-2.41245e-21
-1.5892e-21
-9.7058e-22
-2.69354e-21
-9.59587e-22
-1.39119e-20
-1.36758e-20
-1.17054e-20
-1.06088e-20
-1.2137e-20
-1.02419e-20
-9.42498e-21
-1.70654e-20
-1.4471e-20
-1.1687e-20
-9.67069e-21
-8.96855e-21
-8.16165e-21
-9.20013e-21
-6.9472e-21
-8.6107e-21
-4.03107e-21
-2.00661e-21
-4.61159e-21
-3.58354e-21
-4.59128e-21
-8.03894e-21
-8.92852e-21
-9.45427e-21
-5.24498e-21
-4.61277e-21
-3.18572e-21
-4.56309e-22
-8.69833e-22
-2.08793e-21
-3.55395e-21
-3.16765e-21
6.15176e-22
-1.32594e-21
-4.24605e-21
-5.54403e-21
-1.55564e-21
-2.40214e-23
-4.14948e-22
-1.07602e-21
-1.90159e-20
-1.49054e-20
-1.11151e-20
-1.16501e-20
-1.29628e-20
-1.40605e-20
-1.25196e-20
-1.22884e-20
-1.33333e-20
-1.42369e-20
-8.26428e-21
-8.39944e-21
-7.00216e-21
-9.57398e-21
-1.01345e-20
-8.74226e-21
-4.10221e-21
1.51333e-21
-6.59928e-21
-7.20031e-21
-2.72132e-21
-8.14873e-21
-9.38268e-21
-9.46203e-21
-2.89247e-21
-3.59781e-21
-5.88239e-21
-3.13342e-21
-1.03808e-22
-3.82437e-21
-2.48154e-21
-1.19117e-21
6.79867e-22
-1.81838e-21
-5.61507e-21
-3.16341e-21
-3.45358e-21
1.07397e-21
1.40793e-21
-9.60459e-22
-1.15676e-20
-1.2994e-20
-1.23822e-20
-1.11487e-20
-1.44259e-20
-1.49631e-20
-1.22053e-20
-1.15914e-20
-1.29096e-20
-1.31147e-20
-1.04035e-20
-8.09998e-21
-7.98239e-21
-9.68244e-21
-9.83805e-21
-7.38221e-21
-5.0271e-21
-3.23975e-21
-1.66036e-22
-3.03767e-21
-6.11262e-21
-6.54872e-21
-1.10293e-20
-9.64842e-21
-6.6419e-21
-2.45598e-21
-3.21125e-21
-3.43482e-22
-3.08709e-21
-3.09322e-21
-2.09424e-21
-8.23861e-22
-1.40068e-21
-1.81463e-21
-5.75799e-21
-4.36897e-21
-2.72053e-21
-6.53715e-23
3.40856e-22
4.99185e-22
-1.00109e-20
-1.32304e-20
-1.27003e-20
-1.55127e-20
-1.22412e-20
-1.39235e-20
-1.66186e-20
-9.67477e-21
-1.36789e-20
-1.39602e-20
-9.72684e-21
-7.47511e-21
-6.81015e-21
-9.99812e-21
-9.6277e-21
-9.58093e-21
-4.9951e-21
-2.22825e-21
1.66425e-21
-1.54525e-21
-8.65098e-21
-1.11128e-20
-8.68776e-21
-8.09023e-21
-7.02463e-21
-4.21822e-21
8.03868e-22
-3.43218e-22
-2.72013e-21
-4.50948e-21
-3.29239e-21
1.21323e-21
-3.86103e-21
-1.88762e-21
-3.5781e-21
-5.99535e-21
-1.92373e-21
-2.49502e-21
1.17515e-21
1.11788e-21
-1.05304e-20
-1.37184e-20
-1.40527e-20
-1.34654e-20
-1.35498e-20
-1.68312e-20
-1.21824e-20
-1.24557e-20
-9.68556e-21
-1.238e-20
-1.42516e-20
-1.03707e-20
-5.872e-21
-1.00572e-20
-9.81986e-21
-1.16829e-20
-6.25054e-21
-5.24499e-22
-1.52544e-21
-1.775e-21
-6.30921e-21
-1.09302e-20
-9.30584e-21
-9.08075e-21
-8.49334e-21
-1.41014e-21
-9.62786e-22
-1.70869e-21
-3.54172e-21
-2.09449e-21
3.85201e-22
-1.14392e-21
-2.73905e-21
-9.21066e-22
-2.22774e-21
-4.77668e-21
-2.72777e-21
-2.05704e-21
-6.84131e-22
-5.756e-22
-1.52628e-20
-1.33568e-20
-1.3313e-20
-1.40871e-20
-1.59011e-20
-1.50613e-20
-1.42327e-20
-1.37698e-20
-1.51531e-20
-1.29124e-20
-1.12318e-20
-7.66716e-21
-7.8346e-21
-1.01874e-20
-9.49455e-21
-8.86999e-21
-5.80977e-21
-2.12571e-21
-1.25961e-21
-4.65396e-21
-6.38091e-21
-7.37722e-21
-7.94274e-21
-8.37606e-21
-5.41111e-21
-1.41327e-21
-9.52132e-22
-3.36243e-21
-2.88389e-21
-1.79487e-21
-4.37742e-21
-1.95529e-21
6.37408e-22
-4.8203e-21
-5.85642e-21
-2.37274e-21
-9.91692e-22
-2.79247e-21
-1.62065e-21
-1.73974e-21
-1.79991e-20
-1.76117e-20
-1.39707e-20
-1.60691e-20
-1.27938e-20
-1.27703e-20
-1.46299e-20
-1.13196e-20
-1.17608e-20
-1.51311e-20
-1.11592e-20
-9.81413e-21
-1.04598e-20
-1.20542e-20
-1.00734e-20
-8.69766e-21
-5.21745e-21
-5.55036e-22
-1.75647e-21
-3.99427e-21
-7.81958e-21
-9.07795e-21
-9.74434e-21
-1.00276e-20
-3.27625e-21
4.90717e-23
1.73444e-21
-3.70482e-21
-5.45284e-21
-1.84249e-22
-1.85321e-21
-3.578e-21
-1.6385e-21
-2.79836e-21
-5.34706e-21
-2.53196e-21
-1.63809e-21
-3.08224e-21
8.95369e-23
-1.82581e-21
-1.19008e-20
-1.88235e-20
-1.76952e-20
-1.4313e-20
-1.1207e-20
-1.36345e-20
-1.81868e-20
-1.7603e-20
-1.29019e-20
-1.03059e-20
-8.84209e-21
-1.23586e-20
-1.22876e-20
-1.14643e-20
-7.97005e-21
-8.65639e-21
-6.36846e-21
-4.0558e-21
-4.68186e-21
-3.50394e-21
-1.02838e-20
-6.56959e-21
-7.4591e-21
-1.10561e-20
-2.3837e-21
-1.44961e-21
-1.60656e-21
-2.91569e-21
-2.76085e-21
-1.14643e-21
-2.91191e-22
-1.48042e-21
-2.68033e-21
-2.30828e-21
-4.95791e-21
-3.70214e-21
-1.27193e-21
-3.1705e-21
-8.89021e-22
8.32197e-22
-1.34072e-20
-1.42279e-20
-1.74401e-20
-1.4474e-20
-1.503e-20
-1.26875e-20
-1.64096e-20
-1.7289e-20
-1.20742e-20
-9.77392e-21
-1.36197e-20
-1.22199e-20
-1.02697e-20
-9.88504e-21
-1.12318e-20
-1.04781e-20
-5.90272e-21
-5.93534e-21
-4.237e-21
-4.08056e-21
-1.09603e-20
-8.32434e-21
-6.89415e-21
-5.32962e-21
-1.67474e-21
-3.86693e-21
-4.76043e-21
-2.19023e-21
-1.77301e-21
-4.83764e-22
-1.34388e-21
-8.30004e-22
-2.55817e-21
-3.64802e-21
-7.34104e-21
-5.59026e-21
-4.58837e-23
7.45089e-23
-1.43188e-21
1.15682e-22
-1.44394e-20
-1.33664e-20
-1.63335e-20
-1.2031e-20
-1.2083e-20
-1.42044e-20
-1.80404e-20
-1.81333e-20
-1.25079e-20
-1.26387e-20
-1.29499e-20
-1.18681e-20
-6.0431e-21
-9.93469e-21
-1.10763e-20
-8.97088e-21
-7.6155e-21
-5.76976e-21
-6.32711e-21
-4.55714e-21
-9.86473e-21
-6.6761e-21
-5.84188e-21
-4.06014e-21
-2.71033e-21
-2.98088e-21
-4.28155e-21
-5.22378e-21
-6.36594e-22
-2.40375e-21
1.11356e-21
-3.90262e-21
-2.97451e-21
-2.11031e-21
-4.31182e-21
-4.64784e-21
-2.21744e-21
-1.8454e-21
-1.63582e-22
-4.3495e-23
-1.09089e-20
-1.47058e-20
-1.93333e-20
-1.19441e-20
-9.15512e-21
-1.39226e-20
-1.76499e-20
-1.62748e-20
-1.39311e-20
-1.30075e-20
-1.26253e-20
-1.21984e-20
-7.41842e-21
-7.75463e-21
-1.26097e-20
-1.06841e-20
-7.76013e-21
-5.71637e-22
-5.20726e-21
-7.14883e-21
-1.35198e-20
-6.87523e-21
-2.80709e-21
-3.19101e-21
-1.32109e-22
-5.21889e-21
-3.95028e-21
-2.39166e-21
-2.6302e-21
-1.84013e-21
-1.57184e-21
-1.08179e-21
-1.54536e-21
-1.10908e-21
-1.51071e-21
-3.93762e-21
-3.06913e-21
-3.72185e-21
-1.01835e-24
8.32921e-22
-9.59926e-21
-1.11213e-20
-1.48785e-20
-1.41435e-20
-1.27708e-20
-1.3725e-20
-1.48465e-20
-1.3811e-20
-1.42487e-20
-1.47827e-20
-1.11403e-20
-1.19145e-20
-9.13118e-21
-6.28378e-21
-1.15814e-20
-9.14578e-21
-8.53993e-21
-8.27379e-21
-1.12539e-20
-7.84723e-21
-9.48251e-21
-9.11528e-22
-3.49129e-21
-3.91637e-21
-1.07456e-21
-1.92166e-21
-3.32917e-21
-1.22227e-21
-1.76489e-21
-2.00323e-21
-5.21037e-21
-6.20035e-22
-6.62268e-22
-1.28065e-21
-2.08286e-22
-1.8378e-21
-1.43754e-21
-1.20849e-21
-2.88183e-21
-2.48338e-21
-9.53834e-21
-1.08795e-20
-1.73688e-20
-1.55347e-20
-1.32002e-20
-1.17477e-20
-1.05434e-20
-1.44333e-20
-1.61654e-20
-1.48582e-20
-1.04401e-20
-1.10657e-20
-9.77885e-21
-9.23007e-21
-1.1311e-20
-9.08891e-21
-6.38713e-21
-5.76139e-21
-1.18154e-20
-7.30381e-21
-8.02129e-21
-5.77258e-21
-3.61278e-21
-4.48433e-21
-3.6999e-22
1.36792e-21
-7.40412e-21
-4.36356e-21
-1.62854e-21
-2.18267e-21
-2.05298e-21
-1.91275e-22
-1.56484e-21
-1.4898e-21
-1.94745e-21
-3.61127e-22
-2.20238e-21
-8.94843e-22
-2.47023e-21
-1.91802e-21
-1.15596e-20
-1.40884e-20
-1.59386e-20
-1.37177e-20
-1.07992e-20
-1.247e-20
-1.22568e-20
-1.17631e-20
-1.39034e-20
-1.45611e-20
-1.50089e-20
-1.27711e-20
-8.78583e-21
-1.15392e-20
-1.16164e-20
-5.55452e-21
-7.81474e-21
-4.71302e-21
-7.26004e-21
-7.91663e-21
-7.11707e-21
-4.33134e-21
-3.83186e-21
-5.69826e-21
-5.2698e-21
-5.30744e-22
-3.28994e-21
-3.25976e-21
-3.1375e-21
-2.16588e-21
-2.4934e-21
-6.15552e-22
-3.49584e-21
1.14731e-21
-2.46339e-21
-1.59408e-21
-3.24165e-21
-9.22646e-22
-2.06569e-22
-2.60123e-21
-1.7406e-20
-1.60168e-20
-1.44528e-20
-1.34613e-20
-1.30417e-20
-1.28346e-20
-1.30509e-20
-9.50758e-21
-1.33753e-20
-1.4434e-20
-1.45454e-20
-1.45716e-20
-1.24412e-20
-1.24675e-20
-9.85595e-21
-7.34614e-21
-6.07655e-21
-4.09274e-21
-8.12765e-21
-9.35547e-21
-6.01161e-21
-1.94866e-21
-4.20364e-21
-4.57516e-21
-3.1025e-21
-2.50489e-21
-5.07455e-21
-5.78043e-21
-4.20677e-21
-2.28776e-21
-2.334e-21
1.28521e-21
4.60118e-22
-6.62672e-22
-3.17842e-21
-6.07838e-21
-2.37678e-21
-2.28121e-21
9.82787e-22
6.69645e-22
-1.74764e-20
-1.90173e-20
-1.36109e-20
-1.33636e-20
-1.39458e-20
-1.56112e-20
-1.24799e-20
-1.01332e-20
-1.5246e-20
-1.18067e-20
-1.43919e-20
-1.39291e-20
-1.16879e-20
-8.86437e-21
-8.62472e-21
-8.66386e-21
-7.00861e-21
-1.99111e-21
-2.07828e-21
-9.65217e-21
-7.78625e-21
-5.28357e-21
-6.86889e-21
-5.84545e-21
-4.48787e-21
-3.10058e-21
-3.84663e-21
-4.38385e-21
-2.95275e-21
-2.42505e-21
-2.59134e-21
2.15615e-22
5.9961e-22
-6.26058e-24
-4.92924e-21
-5.29315e-21
-2.39593e-21
-9.49744e-22
-1.09127e-21
-2.55093e-22
-1.35529e-20
-1.46923e-20
-1.71196e-20
-1.26801e-20
-1.32962e-20
-1.4835e-20
-1.43138e-20
-1.46191e-20
-1.15634e-20
-1.28511e-20
-1.47495e-20
-1.44611e-20
-7.37841e-21
-1.11844e-20
-1.22619e-20
-8.67361e-21
-2.9281e-21
-3.16838e-21
-5.5789e-21
-6.32676e-21
-7.37474e-21
-7.19823e-21
-9.27858e-21
-7.04759e-21
-5.93565e-21
-1.98269e-21
-3.8769e-21
-5.07755e-21
1.04055e-22
-2.38801e-21
-3.55828e-21
4.88699e-23
-1.54556e-23
-2.61192e-21
-5.68891e-21
-4.8283e-21
-3.50955e-21
-2.31675e-21
-2.09021e-21
-1.20965e-21
-9.38339e-21
-1.29288e-20
-1.55593e-20
-1.48236e-20
-1.19476e-20
-1.4962e-20
-1.3842e-20
-1.39008e-20
-1.04972e-20
-1.39725e-20
-1.6686e-20
-1.24487e-20
-6.07154e-21
-8.34643e-21
-9.46843e-21
-6.63824e-21
-5.5923e-21
-8.69106e-21
-5.29476e-21
-4.09848e-21
-7.16892e-21
-7.15663e-21
-5.65087e-21
-5.69477e-21
-7.67124e-21
-7.06319e-21
-2.95155e-21
-2.36838e-21
-2.41126e-21
-2.45462e-21
-1.82021e-21
-2.46322e-21
-2.50516e-21
4.00727e-22
-6.7596e-21
-5.61103e-21
-3.79857e-21
-1.31804e-21
-1.36997e-21
-9.83183e-22
-1.39098e-20
-1.632e-20
-1.41729e-20
-1.20157e-20
-1.08367e-20
-1.36085e-20
-1.41584e-20
-1.66943e-20
-9.01069e-21
-1.13667e-20
-1.81778e-20
-1.39976e-20
-8.03669e-21
-8.40996e-21
-3.23742e-21
-5.96719e-21
-7.3964e-21
-4.35782e-21
-2.11757e-21
-5.73645e-21
-5.94384e-21
-5.32704e-21
-1.12447e-20
-1.06788e-20
-7.16623e-21
-7.4713e-21
-2.19294e-21
-4.17933e-21
-3.69231e-21
-9.93678e-23
-1.32861e-21
-2.30077e-21
-2.76859e-21
-9.59106e-22
-3.01389e-21
-5.13971e-21
-3.89789e-21
-2.28144e-21
-7.65544e-22
-1.81618e-22
-8.5682e-21
-1.25365e-20
-1.46796e-20
-1.81117e-20
-1.25711e-20
-1.52741e-20
-1.36216e-20
-1.08186e-20
-1.03849e-20
-1.25573e-20
-1.66574e-20
-1.33849e-20
-8.16063e-21
-8.64702e-21
-4.63015e-21
-9.62345e-21
-6.62528e-21
-4.69099e-21
-8.04918e-22
-3.01176e-21
-3.75739e-21
-8.55752e-21
-8.28751e-21
-8.25943e-21
-8.9657e-21
-5.81048e-21
-8.29019e-22
5.11867e-23
-4.56978e-21
-1.7964e-21
3.96314e-23
-2.23152e-21
-2.81636e-21
-2.4091e-21
-8.33501e-21
-2.28742e-21
-3.59208e-21
-3.69354e-21
-2.19585e-21
-2.45042e-21
-9.2247e-21
-1.34824e-20
-1.44633e-20
-1.57385e-20
-1.27881e-20
-1.35101e-20
-1.26898e-20
-1.21348e-20
-1.18424e-20
-1.20693e-20
-1.43681e-20
-8.42221e-21
-9.41146e-21
-1.04615e-20
-6.50038e-21
-6.22711e-21
-7.19379e-21
-4.74176e-21
-4.07839e-21
-3.54718e-21
-4.56537e-21
-1.10539e-21
-5.99553e-21
-9.40374e-21
-8.67176e-21
-4.61012e-21
-1.90851e-21
-1.09122e-21
-3.61993e-21
-2.70262e-21
-1.69788e-21
-2.10827e-21
-4.43761e-21
-5.80222e-21
-5.56821e-21
-3.19893e-21
-3.12758e-21
-2.53431e-21
-3.34949e-21
-2.41537e-21
-1.27971e-20
-1.81433e-20
-1.4789e-20
-1.08762e-20
-1.72663e-20
-1.37949e-20
-1.21323e-20
-1.04067e-20
-1.15122e-20
-1.24269e-20
-1.22406e-20
-5.34507e-21
-8.62289e-21
-1.16067e-20
-7.06721e-21
-8.457e-21
-8.62518e-21
-5.38242e-22
-2.86468e-21
-1.99065e-21
-6.07256e-21
-4.9433e-21
-5.07877e-21
-5.91052e-21
-6.95891e-21
-3.50913e-21
-2.10507e-21
-3.64083e-21
-1.54575e-21
-5.42567e-21
-1.89585e-21
-7.5093e-22
-3.73579e-21
-3.01545e-21
-5.72537e-21
-4.55798e-21
-3.7684e-21
-3.47263e-21
-1.28859e-21
-9.8056e-22
-1.13675e-20
-1.54897e-20
-1.7146e-20
-1.21299e-20
-1.18862e-20
-1.69087e-20
-1.2732e-20
-6.41584e-21
-9.9481e-21
-1.57793e-20
-1.04671e-20
-8.96652e-21
-6.95684e-21
-1.18387e-20
-8.69542e-21
-8.37284e-21
-4.79077e-21
-4.30762e-21
-2.96767e-21
9.19461e-22
-3.31691e-21
-6.85714e-21
-7.50612e-21
-6.44563e-21
-9.12891e-21
-5.94952e-21
-3.6571e-22
3.12638e-21
-2.77397e-21
-3.91827e-21
-2.2956e-21
-2.77924e-21
-5.14662e-21
-2.01488e-21
-4.10658e-21
-6.73102e-21
-3.14788e-21
1.36325e-21
-1.18217e-21
-2.60278e-21
-1.25645e-20
-1.30408e-20
-1.33306e-20
-1.34173e-20
-1.30614e-20
-1.35209e-20
-1.28674e-20
-1.10929e-20
-9.37748e-21
-1.13677e-20
-9.33699e-21
-8.48024e-21
-8.39541e-21
-1.00093e-20
-8.29814e-21
-8.80878e-21
-4.61271e-21
-4.65364e-21
-2.82965e-21
-1.77216e-21
-3.07582e-21
-7.13623e-21
-8.67384e-21
-7.25445e-21
-6.49855e-21
-4.27008e-21
-9.46512e-22
-1.96523e-21
-3.37681e-21
-3.22253e-21
-2.58198e-21
-2.41199e-21
-1.32162e-21
-1.37926e-21
-2.61015e-21
-7.02576e-21
-2.94186e-21
-8.12646e-22
-1.37545e-21
-1.60615e-21
-1.56992e-20
-1.49035e-20
-1.20082e-20
-1.20878e-20
-1.41559e-20
-1.43144e-20
-1.12647e-20
-1.05376e-20
-1.08509e-20
-9.19242e-21
-6.93603e-21
-9.90903e-21
-1.18437e-20
-1.15979e-20
-6.47934e-21
-7.89402e-21
-5.56732e-21
-3.5519e-21
-2.06541e-22
-4.02906e-21
-2.12379e-21
-5.5527e-21
-1.32556e-20
-7.58857e-21
-6.8627e-21
-5.65556e-21
-9.41186e-22
8.61877e-22
-2.61893e-21
-4.82283e-21
-3.60902e-21
-4.00456e-21
1.65316e-21
-2.3772e-23
-4.3983e-21
-5.18752e-21
-2.23066e-21
5.85055e-22
-1.44426e-21
-2.4392e-21
-1.08515e-20
-1.08902e-20
-1.2e-20
-9.96449e-21
-1.72327e-20
-1.51282e-20
-1.28059e-20
-1.13872e-20
-9.70261e-21
-9.86921e-21
-9.88665e-21
-7.96151e-21
-1.12954e-20
-8.78654e-21
-5.30813e-21
-8.13665e-21
-7.91554e-21
-3.95394e-21
-2.70308e-22
-2.58658e-21
-3.62772e-21
-5.28378e-21
-1.11979e-20
-8.12374e-21
-8.67164e-21
-6.42949e-21
1.68185e-21
7.75463e-22
-3.2097e-21
-4.85452e-21
-3.17175e-21
-3.44128e-21
9.45873e-23
8.6898e-22
-2.8444e-21
-4.29691e-21
-1.82613e-21
-1.29366e-21
-8.45327e-22
-6.44197e-22
-1.21234e-20
-1.23321e-20
-1.24533e-20
-1.37759e-20
-1.43324e-20
-1.04823e-20
-1.22369e-20
-9.78402e-21
-1.02386e-20
-7.14469e-21
-7.69139e-21
-1.28296e-20
-9.93915e-21
-7.28159e-21
-6.64586e-21
-9.03084e-21
-8.39826e-21
-4.1047e-21
-2.71986e-21
-3.34911e-21
-2.38143e-21
-4.20732e-21
-8.33194e-21
-8.20951e-21
-6.01586e-21
-4.81562e-21
-2.51772e-21
-1.64943e-21
-1.72345e-21
-3.99712e-21
-3.25223e-21
-1.31604e-21
-2.01337e-21
-1.07915e-21
1.0061e-21
-2.66078e-21
-2.43332e-21
1.5333e-21
-2.16435e-21
-2.77494e-21
-1.2807e-20
-1.08496e-20
-9.77497e-21
-9.78323e-21
-1.29919e-20
-1.45104e-20
-1.28652e-20
-1.32542e-20
-1.14029e-20
-8.27877e-21
-4.03669e-21
-1.0967e-20
-5.27828e-21
-6.02347e-21
-6.70505e-21
-9.26727e-21
-1.10212e-20
-2.87035e-21
-1.26289e-21
-2.47861e-21
-4.36783e-21
-7.01493e-21
-5.24028e-21
-5.60434e-21
-5.22902e-21
-3.10508e-21
-5.46493e-21
-6.88295e-21
-1.84612e-21
-2.38538e-21
-3.90129e-21
-3.51964e-21
-4.00938e-21
-2.08587e-21
2.53847e-22
8.74591e-22
-8.23538e-22
1.54693e-21
8.69099e-22
-2.47774e-22
-8.41888e-21
-1.04348e-20
-1.08137e-20
-8.91467e-21
-8.03965e-21
-1.69071e-20
-1.17897e-20
-1.2043e-20
-1.20803e-20
-1.21897e-20
-9.10759e-21
-4.94259e-21
-7.55538e-21
-6.56659e-21
-7.52762e-21
-6.12141e-21
-7.83522e-21
-4.83298e-21
-3.1229e-21
-3.39805e-21
-3.67637e-21
-4.57995e-21
-5.27613e-21
-8.35675e-21
-4.67627e-21
-1.87325e-21
-1.46136e-21
-9.25504e-22
-3.94291e-21
-2.31907e-21
-4.80619e-21
-3.36989e-21
-1.66971e-21
-3.6375e-21
-3.39269e-21
2.5608e-22
9.42872e-22
1.17868e-21
1.02519e-21
-6.51542e-22
-7.10098e-21
-9.59557e-21
-1.11955e-20
-9.4215e-21
-7.23931e-21
-1.39225e-20
-1.30714e-20
-9.92064e-21
-1.01661e-20
-9.38646e-21
-8.45457e-21
-6.47815e-21
-8.39484e-21
-6.83705e-21
-8.49595e-21
-7.23564e-21
-5.01325e-21
-3.62265e-22
-1.56069e-22
-4.79066e-21
-4.43078e-21
-7.61463e-21
-6.90571e-21
-6.59445e-21
-4.79962e-21
-4.19271e-21
-2.04459e-21
-4.70937e-23
-8.25696e-22
-1.71481e-21
-5.87278e-21
-3.40825e-21
-4.56653e-21
-2.83209e-21
-1.64949e-21
3.09994e-22
1.23507e-21
-1.66854e-21
-1.09925e-21
-1.66493e-22
-5.36679e-21
-8.96421e-21
-1.18356e-20
-7.14327e-21
-6.93464e-21
-1.14925e-20
-9.87507e-21
-8.80683e-21
-9.53282e-21
-8.89966e-21
-5.69335e-21
-8.83761e-21
-9.74241e-21
-9.63701e-21
-3.96173e-21
-3.0809e-21
-1.29105e-21
-3.59016e-21
-4.55371e-21
-5.08645e-21
-5.08421e-21
-5.88134e-21
-6.10949e-21
-6.23431e-21
-3.84919e-21
-2.10106e-21
-3.63484e-21
-5.38025e-22
3.41903e-22
-2.53929e-21
-6.56356e-21
-4.47088e-21
-6.05567e-21
-2.10115e-21
-2.28779e-21
-4.6975e-22
1.72862e-21
2.38933e-21
-1.24641e-24
-1.11451e-21
-6.39099e-21
-7.98501e-21
-1.02172e-20
-6.24104e-21
-6.38404e-21
-1.2324e-20
-9.79672e-21
-4.99971e-21
-9.46129e-21
-9.27488e-21
-6.06843e-21
-6.27318e-21
-6.98158e-21
-7.20783e-21
-6.92683e-21
-3.08234e-21
-2.99574e-21
-1.27876e-21
-4.39664e-21
-4.03632e-21
-2.3607e-21
-5.50473e-21
-6.25063e-21
-8.69876e-21
-6.98935e-21
-9.30577e-22
-1.70262e-21
6.95702e-22
-1.81905e-21
-3.13519e-21
-2.32179e-21
-3.61395e-21
-3.54907e-21
-1.16702e-21
-5.45579e-22
-3.57143e-21
-2.24623e-21
-2.57708e-22
2.97668e-21
-1.77018e-21
-6.97967e-21
-5.54739e-21
-6.32808e-21
-2.66436e-21
-2.80253e-21
-3.74907e-21
-8.17916e-21
-4.63616e-21
-6.79798e-21
-6.206e-21
-2.33506e-21
-2.36987e-21
-5.7036e-21
-4.38567e-21
-4.02113e-21
-2.65874e-21
-6.74629e-22
4.53347e-22
-3.57193e-21
-6.38454e-22
-3.80061e-21
-6.64168e-21
-5.75899e-21
-4.14563e-21
-4.01386e-21
-6.81614e-22
-6.36277e-22
-3.43783e-22
-5.31352e-22
9.32113e-22
-6.71402e-22
-1.43725e-21
-2.315e-21
-2.25914e-21
5.52974e-23
-6.52708e-21
-4.09062e-21
-2.56198e-21
2.49989e-21
1.48088e-21
-4.22084e-21
-7.9123e-21
-1.26782e-20
-9.28572e-21
-8.90615e-21
-1.10642e-20
-6.91715e-21
-4.54348e-21
-1.33561e-20
-1.17346e-20
-5.99238e-21
-6.32451e-21
-7.72034e-21
-3.80756e-21
-5.41678e-21
-8.10303e-21
-5.06713e-21
3.55e-22
-1.81498e-21
-4.90503e-21
-3.50141e-21
-1.46333e-21
-4.15711e-21
-4.03931e-21
-2.96072e-21
-3.1319e-21
-3.33487e-21
-3.87452e-21
-6.16469e-21
-5.09844e-21
-5.48415e-21
2.81537e-22
-8.10286e-22
-6.19709e-22
-3.04407e-21
-4.4041e-21
-4.40633e-22
-1.60826e-21
-2.00442e-21
5.25499e-22
-6.00514e-21
-1.09877e-20
-1.75191e-20
-1.50975e-20
-1.26594e-20
-1.51293e-20
-1.31916e-20
-9.13923e-21
-1.06787e-20
-1.72573e-20
-1.2679e-20
-1.10845e-20
-1.07766e-20
-7.45566e-21
-8.01071e-21
-8.22391e-21
-7.30869e-21
-4.17537e-21
-5.03136e-21
-6.01654e-21
-3.599e-21
-2.19842e-21
-4.65411e-21
-8.93226e-21
-4.68147e-21
-3.29358e-21
-2.54679e-21
-3.22009e-21
-8.97124e-21
-3.54518e-21
-8.50427e-22
-7.24114e-23
-3.02688e-21
-1.55841e-21
-5.72527e-21
-3.43475e-21
1.01321e-21
2.39839e-21
2.84606e-22
-2.2375e-22
-1.08312e-20
-1.35423e-20
-1.46375e-20
-1.59971e-20
-1.5306e-20
-1.4111e-20
-1.38802e-20
-1.2152e-20
-1.50688e-20
-1.68437e-20
-1.23372e-20
-1.16926e-20
-8.66137e-21
-5.44364e-21
-9.82741e-21
-8.61779e-21
-9.38475e-21
-7.29004e-21
-1.61759e-21
-6.90345e-21
-4.961e-21
-2.68876e-21
-2.76962e-21
-6.47758e-21
-7.19866e-21
-4.49133e-21
-5.5138e-21
-5.19435e-21
-4.67806e-21
-3.83741e-21
-5.09014e-21
-2.65344e-21
-1.35614e-21
-5.97827e-22
-3.63257e-21
-2.20542e-21
1.86551e-21
4.17467e-22
-1.78101e-22
7.82514e-22
-1.56984e-20
-1.53706e-20
-1.5624e-20
-1.93749e-20
-1.69127e-20
-1.50142e-20
-1.55181e-20
-1.31513e-20
-1.402e-20
-1.37348e-20
-1.30611e-20
-1.4225e-20
-1.09347e-20
-6.8368e-21
-9.43045e-21
-8.318e-21
-8.07942e-21
-6.81577e-21
-3.84107e-21
-2.71513e-21
-6.54601e-21
-6.41886e-21
-6.26811e-21
-6.80102e-21
-6.19912e-21
-5.57207e-21
-4.94829e-21
-4.19984e-21
-4.11647e-21
-4.74432e-21
-3.89033e-21
1.33895e-22
-2.91328e-21
-2.44733e-21
-1.83325e-21
-7.98211e-22
1.3903e-21
-5.72918e-23
-1.17259e-21
-5.35885e-22
-1.70292e-20
-1.65245e-20
-1.59864e-20
-1.75379e-20
-1.91967e-20
-1.94791e-20
-1.42923e-20
-1.15941e-20
-1.02274e-20
-1.51411e-20
-1.37457e-20
-1.44133e-20
-9.54163e-21
-9.86797e-21
-1.26761e-20
-1.21846e-20
-7.88892e-21
-6.09792e-21
-4.42545e-21
-2.04243e-21
-5.1956e-21
-6.84827e-21
-7.55848e-21
-7.65e-21
-7.69269e-21
-4.53899e-21
-4.44854e-21
-4.95507e-21
-2.94973e-21
-2.18979e-21
-2.9777e-21
-2.97403e-21
-1.59312e-21
-4.99225e-22
-1.03369e-21
-4.2187e-22
7.87789e-22
-3.39555e-22
-9.89821e-22
-1.30727e-21
-1.55559e-20
-1.79674e-20
-1.59879e-20
-1.64189e-20
-1.83539e-20
-1.99162e-20
-1.2825e-20
-1.5433e-20
-1.55841e-20
-1.42187e-20
-1.3419e-20
-1.52312e-20
-1.25461e-20
-1.02586e-20
-1.38446e-20
-1.08996e-20
-8.5496e-21
-5.03697e-21
-3.37505e-21
-2.8231e-21
-5.17247e-21
-7.79456e-21
-7.5763e-21
-7.46842e-21
-8.52179e-21
-6.31722e-21
-2.7989e-21
-2.69386e-21
-3.43134e-21
-3.15398e-21
-2.72269e-21
-2.06962e-21
9.19596e-22
-2.15505e-21
-1.86297e-21
2.07507e-22
3.13819e-22
1.34888e-21
9.04974e-23
-1.57739e-21
-1.80324e-20
-2.10719e-20
-1.72353e-20
-1.72644e-20
-1.86892e-20
-1.73793e-20
-1.59837e-20
-1.62057e-20
-1.65968e-20
-1.49143e-20
-1.52043e-20
-1.5906e-20
-1.36503e-20
-1.03619e-20
-1.36437e-20
-9.48998e-21
-5.92645e-21
-3.34012e-21
-4.67995e-21
-4.48586e-21
-4.95066e-21
-6.94113e-21
-8.08068e-21
-1.01406e-20
-7.622e-21
-5.34227e-21
-4.6373e-21
-2.28314e-21
-3.95043e-22
-3.53526e-22
-2.66123e-21
-4.03559e-21
1.48124e-21
8.25659e-22
-3.04211e-21
-2.2107e-21
7.64819e-23
1.46894e-23
-3.1591e-21
-2.89678e-21
-1.72349e-20
-1.9441e-20
-1.71889e-20
-1.80141e-20
-1.94341e-20
-1.56479e-20
-1.74864e-20
-1.8945e-20
-1.84902e-20
-1.69453e-20
-1.57389e-20
-1.46416e-20
-1.2369e-20
-1.06365e-20
-1.30797e-20
-1.01789e-20
-6.48473e-21
-4.58256e-21
-4.36258e-21
-4.31061e-21
-4.84605e-21
-8.89459e-21
-8.76661e-21
-7.76737e-21
-8.64543e-21
-4.62376e-21
-3.32168e-21
-2.78182e-21
-1.94233e-22
-8.22279e-22
-5.05158e-21
-2.82322e-21
-1.5617e-21
-1.39081e-21
-1.70589e-21
-1.37294e-21
5.80006e-23
4.33595e-22
-3.1035e-21
-6.28856e-22
-1.86474e-20
-2.30136e-20
-1.94688e-20
-1.87393e-20
-1.95504e-20
-1.71207e-20
-1.8634e-20
-1.74057e-20
-1.82796e-20
-1.76233e-20
-1.54509e-20
-1.65775e-20
-1.0498e-20
-1.08657e-20
-1.37852e-20
-1.067e-20
-8.64049e-21
-3.73252e-21
-5.38346e-21
-5.45927e-21
-3.49784e-21
-9.01116e-21
-9.8651e-21
-1.11765e-20
-6.96648e-21
-2.8073e-21
-3.81874e-21
-2.912e-21
2.00245e-21
-4.67767e-21
-4.17992e-21
-2.88153e-21
-2.96031e-21
-1.2866e-21
-1.98723e-21
-6.32614e-22
-1.0496e-21
-8.31843e-22
-6.591e-22
-1.1408e-21
-2.0201e-20
-2.02591e-20
-1.74471e-20
-2.11879e-20
-2.15622e-20
-2.03349e-20
-2.10535e-20
-1.7049e-20
-1.37909e-20
-1.59653e-20
-1.66784e-20
-1.532e-20
-1.33168e-20
-1.29194e-20
-1.24932e-20
-1.0443e-20
-7.07237e-21
-5.43727e-21
-2.09192e-21
-3.36111e-21
-7.83378e-21
-1.17573e-20
-1.19e-20
-1.09362e-20
-5.79387e-21
-3.40193e-21
-2.37073e-21
-1.45358e-21
-2.74406e-21
-4.6984e-21
-2.41434e-21
-2.9077e-21
-3.91369e-21
-9.5445e-22
-2.47215e-21
-6.74211e-22
9.37868e-23
-9.10702e-22
-6.90435e-22
3.79436e-22
-2.08727e-20
-2.20564e-20
-2.05114e-20
-2.11395e-20
-2.05535e-20
-1.91712e-20
-1.98995e-20
-1.91099e-20
-1.56448e-20
-1.57667e-20
-1.48916e-20
-1.38355e-20
-1.33417e-20
-1.10465e-20
-1.29443e-20
-1.31195e-20
-7.02665e-21
-5.01602e-21
-1.94059e-21
-4.70511e-21
-9.48061e-21
-1.00054e-20
-1.24017e-20
-1.36242e-20
-4.61024e-21
-2.89093e-21
-2.55166e-21
-2.89076e-21
-2.86094e-21
-3.02262e-21
-2.5658e-21
-2.45654e-21
-2.22606e-21
-1.97488e-21
-3.51573e-21
-1.9142e-21
-2.48725e-21
-2.00048e-21
-1.77562e-21
-8.92107e-22
-2.11239e-20
-2.30772e-20
-1.98786e-20
-1.95545e-20
-1.88755e-20
-2.11965e-20
-1.97902e-20
-1.75996e-20
-1.46628e-20
-1.74434e-20
-1.52006e-20
-1.50817e-20
-1.47814e-20
-1.02476e-20
-1.2767e-20
-1.43009e-20
-9.02495e-21
-3.92131e-21
-2.93859e-21
-5.71314e-21
-8.11025e-21
-1.06265e-20
-1.11955e-20
-1.29726e-20
-4.35768e-21
-5.453e-21
-3.37217e-21
-2.25287e-21
-9.93236e-22
-3.35893e-21
-2.30585e-21
-2.04026e-21
-2.87454e-21
-1.99773e-21
-2.67266e-21
-2.58297e-21
-1.89506e-21
-2.83595e-21
-2.88085e-21
1.1413e-21
-2.27663e-20
-2.22161e-20
-1.96549e-20
-2.21105e-20
-2.04745e-20
-2.1506e-20
-1.87159e-20
-1.70824e-20
-1.75046e-20
-1.55961e-20
-1.29121e-20
-1.49813e-20
-1.53445e-20
-1.237e-20
-1.24802e-20
-1.08581e-20
-7.12828e-21
-5.8649e-21
-6.16385e-21
-6.54231e-21
-7.49922e-21
-6.51149e-21
-1.03484e-20
-1.08992e-20
-6.25801e-21
-3.7828e-21
-2.92952e-21
-2.85881e-21
-2.91618e-21
-1.47097e-21
-3.16603e-21
-3.03707e-21
-2.31132e-21
-2.0899e-21
-7.8568e-21
-1.72594e-21
4.86201e-22
-4.6669e-21
-4.27742e-21
4.60351e-23
-2.45116e-20
-2.44584e-20
-2.07047e-20
-2.2206e-20
-2.06367e-20
-1.88962e-20
-1.96553e-20
-1.42638e-20
-1.72904e-20
-1.82347e-20
-1.45977e-20
-1.24523e-20
-1.67588e-20
-1.25364e-20
-1.36409e-20
-1.1923e-20
-1.08511e-20
-6.75168e-21
-5.15902e-21
-3.01466e-21
-8.97259e-21
-9.13249e-21
-9.74079e-21
-1.13614e-20
-4.97896e-21
-2.88284e-21
-3.12478e-21
-3.58034e-21
-4.54927e-21
-2.88639e-21
-3.88346e-21
-2.669e-21
-1.95379e-21
-3.90307e-21
-6.62555e-21
-2.25995e-21
-7.15019e-22
3.84969e-22
-1.10158e-21
6.99095e-23
-2.64889e-20
-2.41425e-20
-2.0452e-20
-1.9661e-20
-2.07682e-20
-1.80486e-20
-1.8923e-20
-1.5734e-20
-1.68358e-20
-1.64468e-20
-1.44253e-20
-1.64563e-20
-1.7453e-20
-1.35296e-20
-1.31155e-20
-1.16947e-20
-7.04163e-21
-6.06724e-21
-8.46655e-21
-8.29742e-21
-8.7635e-21
-9.79478e-21
-1.15126e-20
-9.19921e-21
-4.21001e-21
-4.21308e-21
-3.47689e-21
-2.44715e-21
-3.48103e-21
-1.8724e-21
-4.34381e-21
-2.7214e-21
-1.35483e-21
-2.64521e-21
-7.05886e-21
-3.50716e-21
1.04903e-21
-1.68958e-21
-2.07162e-21
-1.23278e-21
-2.44525e-20
-2.48354e-20
-2.16557e-20
-2.21064e-20
-2.17209e-20
-1.87888e-20
-1.84794e-20
-1.71281e-20
-1.66713e-20
-1.38374e-20
-1.59035e-20
-1.84119e-20
-1.83031e-20
-1.20881e-20
-1.26772e-20
-1.20918e-20
-6.95507e-21
-7.79956e-21
-8.30259e-21
-6.35034e-21
-9.91393e-21
-1.05251e-20
-1.01283e-20
-6.5025e-21
-4.82366e-21
-4.79929e-21
-3.13301e-21
-2.62763e-21
-3.86846e-21
-2.34584e-21
-2.14637e-21
-1.85424e-21
-7.84092e-22
-3.59861e-21
-6.25827e-21
-3.40781e-21
-6.10917e-22
-2.03727e-21
-1.64306e-21
-2.04261e-21
-2.19469e-20
-2.18285e-20
-2.29965e-20
-2.02339e-20
-2.28575e-20
-2.08903e-20
-2.00076e-20
-1.95913e-20
-1.88542e-20
-1.32468e-20
-1.39711e-20
-1.59219e-20
-1.63632e-20
-1.52495e-20
-1.27845e-20
-7.87832e-21
-4.47403e-21
-7.35589e-21
-1.17505e-20
-9.9245e-21
-1.13599e-20
-7.63637e-21
-6.52955e-21
-5.7699e-21
-3.03088e-21
-5.75854e-21
-4.07095e-21
-3.59948e-21
-3.89566e-21
-1.6934e-21
-1.43174e-21