/*--------------------------------*- C++ -*----------------------------------*\
| =========                 |                                                 |
| \\      /  F ield         | OpenFOAM: The Open Source CFD Toolbox           |
|  \\    /   O peration     | Version:  v2012                                 |
|   \\  /    A nd           | Website:  www.openfoam.com                      |
|    \\/     M anipulation  |                                                 |
\*---------------------------------------------------------------------------*/
FoamFile
{
    version     2.0;
    format      ascii;
    class       surfaceScalarField;
    location    "32";
    object      phi;
}
// * * * * * * * * * * * * * * * * * * * * * * * * * * * * * * * * * * * * * //

dimensions      [0 3 -1 0 0 0 0];
oriented        oriented;


internalField   nonuniform List<scalar> 
187200
(
1.875e-06
2.47659e-22
2.19517e-22
1.875e-06
3.56748e-22
2.63253e-22
1.875e-06
4.15735e-22
4.61526e-22
1.875e-06
3.24251e-22
3.52203e-22
1.875e-06
3.37465e-22
2.53086e-22
1.875e-06
4.50365e-22
3.8461e-22
1.875e-06
3.77364e-22
2.89431e-22
1.875e-06
2.86958e-22
2.71855e-22
1.875e-06
2.15395e-22
4.61693e-22
1.875e-06
3.5811e-22
4.3632e-22
1.875e-06
3.87324e-22
2.31436e-22
1.875e-06
3.2189e-22
2.2577e-22
1.875e-06
2.24163e-22
2.46145e-22
1.875e-06
1.52138e-22
1.1514e-22
1.875e-06
1.70127e-22
2.13883e-22
1.875e-06
1.28994e-22
2.46224e-22
1.875e-06
1.76235e-22
2.34456e-22
1.875e-06
6.0285e-23
9.9176e-23
1.875e-06
5.53131e-23
9.07265e-23
1.875e-06
1.33911e-22
1.8403e-22
1.875e-06
3.91317e-23
1.28055e-22
1.875e-06
1.26516e-22
6.30079e-23
1.875e-06
1.93497e-22
1.43025e-22
1.875e-06
3.17502e-22
1.71842e-22
1.875e-06
1.36989e-22
4.28166e-23
1.875e-06
1.13151e-22
1.10639e-22
1.875e-06
1.78692e-22
1.75063e-22
1.875e-06
1.06387e-22
6.66744e-23
1.875e-06
1.06433e-22
1.78003e-22
1.875e-06
2.54131e-23
1.61956e-22
1.875e-06
-1.17771e-22
1.31705e-22
1.875e-06
8.08566e-24
7.01629e-23
1.875e-06
1.41305e-22
5.32601e-23
1.875e-06
5.18405e-23
1.74479e-23
1.875e-06
-1.75199e-23
7.89846e-23
1.875e-06
-7.65946e-23
2.06324e-23
1.875e-06
-3.60789e-23
1.70389e-23
1.875e-06
-8.54272e-23
8.14296e-23
1.875e-06
-7.17158e-23
1.39099e-22
-1.76941e-23
4.7325e-23
1.875e-06
1.34019e-22
2.12937e-22
1.875e-06
1.24606e-22
3.99005e-22
1.875e-06
2.69047e-22
6.94886e-22
1.875e-06
2.95474e-22
7.34154e-22
1.875e-06
2.53415e-22
5.94923e-22
1.875e-06
3.26299e-22
6.10038e-22
1.875e-06
3.42484e-22
6.56041e-22
1.875e-06
3.54013e-22
6.69055e-22
1.875e-06
4.20024e-22
7.41092e-22
1.875e-06
2.9541e-22
7.82138e-22
1.875e-06
1.76794e-22
5.84395e-22
1.875e-06
1.88698e-22
5.14737e-22
1.875e-06
2.52003e-22
5.79479e-22
1.875e-06
1.44619e-22
4.73061e-22
1.875e-06
7.32053e-23
4.69296e-22
1.875e-06
3.377e-23
4.6908e-22
1.875e-06
2.87199e-22
4.57451e-22
1.875e-06
3.22658e-22
4.92717e-22
1.875e-06
1.07989e-22
3.96283e-22
1.875e-06
-3.68522e-23
2.90936e-22
1.875e-06
1.59044e-22
3.76861e-22
1.875e-06
2.21881e-22
2.07384e-22
1.875e-06
1.58131e-22
1.96082e-22
1.875e-06
9.12735e-23
2.40798e-22
1.875e-06
9.06332e-23
1.60158e-22
1.875e-06
1.43205e-22
1.9357e-22
1.875e-06
1.22594e-22
1.58358e-22
1.875e-06
6.14577e-23
1.09154e-22
1.875e-06
-2.23508e-23
3.21486e-22
1.875e-06
2.59389e-23
2.12433e-22
1.875e-06
9.53808e-23
1.82602e-22
1.875e-06
4.34518e-23
1.24698e-22
1.875e-06
2.73787e-25
-2.43193e-23
1.875e-06
-7.92223e-23
4.54619e-24
1.875e-06
-2.65781e-24
1.81598e-22
1.875e-06
3.24435e-23
1.12318e-22
1.875e-06
-1.44451e-22
-1.10385e-23
1.875e-06
-9.57255e-23
2.67311e-23
1.875e-06
-9.14865e-23
7.88847e-23
-1.39136e-22
4.41514e-23
1.875e-06
1.14651e-22
3.38531e-22
1.875e-06
1.59312e-22
6.13797e-22
1.875e-06
1.33595e-22
6.81539e-22
1.875e-06
3.2313e-22
8.5029e-22
1.875e-06
3.22867e-22
8.11278e-22
1.875e-06
2.75597e-22
6.90754e-22
1.875e-06
3.01103e-22
7.5301e-22
1.875e-06
2.66893e-22
8.46248e-22
1.875e-06
2.61802e-22
8.59462e-22
1.875e-06
2.51325e-22
8.8094e-22
1.875e-06
2.26479e-22
7.87707e-22
1.875e-06
2.29207e-22
7.07945e-22
1.875e-06
1.94657e-22
5.76018e-22
1.875e-06
1.76027e-22
4.94184e-22
1.875e-06
2.10227e-22
6.58845e-22
1.875e-06
2.49996e-22
6.70799e-22
1.875e-06
1.12578e-22
4.88355e-22
1.875e-06
1.87855e-22
5.37977e-22
1.875e-06
1.15518e-22
4.18411e-22
1.875e-06
4.44806e-23
4.64348e-22
1.875e-06
9.83543e-23
3.72276e-22
1.875e-06
1.49629e-22
1.62104e-22
1.875e-06
2.44458e-22
1.21451e-22
1.875e-06
1.57464e-22
2.25742e-22
1.875e-06
2.30059e-22
3.39077e-22
1.875e-06
3.20166e-23
2.81594e-22
1.875e-06
1.04953e-23
2.84172e-22
1.875e-06
-1.55358e-23
2.26512e-22
1.875e-06
2.07058e-23
2.99023e-22
1.875e-06
2.99453e-23
2.39359e-22
1.875e-06
-1.99804e-23
2.83694e-22
1.875e-06
2.9359e-23
1.42562e-22
1.875e-06
-7.63122e-23
-3.90281e-23
1.875e-06
-2.43572e-23
4.65673e-23
1.875e-06
-8.67109e-24
1.01883e-22
1.875e-06
-6.20549e-23
-7.03756e-23
1.875e-06
-4.0267e-23
3.63158e-23
1.875e-06
2.80714e-23
1.82829e-22
1.875e-06
4.49838e-23
1.04194e-22
1.43335e-23
4.40824e-23
1.875e-06
2.60066e-22
4.47622e-22
1.875e-06
1.79006e-22
7.37176e-22
1.875e-06
1.52721e-22
8.17274e-22
1.875e-06
1.12801e-22
8.88771e-22
1.875e-06
1.54661e-22
8.62663e-22
1.875e-06
2.20024e-22
7.92523e-22
1.875e-06
1.71607e-22
8.34153e-22
1.875e-06
1.60301e-22
8.91207e-22
1.875e-06
2.04543e-22
8.81544e-22
1.875e-06
2.69179e-22
8.65276e-22
1.875e-06
2.42224e-22
8.81795e-22
1.875e-06
1.61766e-22
7.87829e-22
1.875e-06
1.49535e-22
6.35438e-22
1.875e-06
1.33045e-22
6.12934e-22
1.875e-06
3.16989e-22
6.76869e-22
1.875e-06
4.51873e-22
6.40942e-22
1.875e-06
1.76371e-22
5.53889e-22
1.875e-06
8.24949e-23
5.31563e-22
1.875e-06
1.151e-22
5.15889e-22
1.875e-06
1.81041e-22
4.21369e-22
1.875e-06
9.61167e-23
3.86946e-22
1.875e-06
1.58032e-22
2.30774e-22
1.875e-06
1.3071e-22
1.34697e-22
1.875e-06
1.44062e-22
2.30108e-22
1.875e-06
7.26838e-23
2.65713e-22
1.875e-06
1.61493e-22
3.86954e-22
1.875e-06
3.65142e-23
3.38949e-22
1.875e-06
-2.47434e-24
2.76077e-22
1.875e-06
3.75242e-23
2.51221e-22
1.875e-06
-6.42668e-23
2.27214e-22
1.875e-06
-9.77021e-24
2.60601e-22
1.875e-06
-2.54113e-23
7.5004e-23
1.875e-06
-4.72585e-23
1.49401e-22
1.875e-06
-6.69278e-23
8.85827e-23
1.875e-06
-4.60101e-23
5.703e-24
1.875e-06
-4.73556e-23
-4.42593e-23
1.875e-06
8.55947e-23
6.65171e-23
1.875e-06
8.98709e-23
9.17478e-23
1.875e-06
2.82984e-24
5.13402e-23
3.66617e-23
6.1519e-23
1.875e-06
-2.59812e-23
3.28878e-22
1.875e-06
7.91585e-23
7.71863e-22
1.875e-06
1.02777e-22
8.49953e-22
1.875e-06
1.05157e-22
9.20436e-22
1.875e-06
1.08101e-22
9.74396e-22
1.875e-06
7.01125e-23
9.54345e-22
1.875e-06
9.04438e-23
9.35257e-22
1.875e-06
3.5715e-22
9.75984e-22
1.875e-06
3.40615e-22
8.3754e-22
1.875e-06
2.15015e-22
8.74784e-22
1.875e-06
2.0945e-22
8.73385e-22
1.875e-06
1.6449e-22
8.69868e-22
1.875e-06
2.18341e-22
7.3298e-22
1.875e-06
2.06023e-22
7.63041e-22
1.875e-06
1.85867e-22
6.55866e-22
1.875e-06
1.5761e-22
5.92413e-22
1.875e-06
9.46237e-23
5.23679e-22
1.875e-06
-7.01356e-25
4.6169e-22
1.875e-06
1.29243e-22
4.86013e-22
1.875e-06
1.66837e-22
3.61754e-22
1.875e-06
4.79365e-23
3.4903e-22
1.875e-06
-2.04835e-23
1.9483e-22
1.875e-06
1.36642e-22
1.78374e-22
1.875e-06
2.04123e-22
2.47808e-22
1.875e-06
2.08174e-22
3.91785e-22
1.875e-06
5.41699e-23
3.27371e-22
1.875e-06
5.78929e-23
2.9721e-22
1.875e-06
-5.97934e-23
2.83431e-22
1.875e-06
-1.12291e-22
1.84259e-22
1.875e-06
1.93442e-23
2.13028e-22
1.875e-06
7.38849e-23
2.55444e-22
1.875e-06
1.25328e-22
2.17539e-22
1.875e-06
6.54915e-25
1.77562e-22
1.875e-06
1.78459e-23
1.02578e-22
1.875e-06
-4.85598e-23
-2.79725e-23
1.875e-06
-1.20099e-22
-5.31297e-23
1.875e-06
7.43558e-23
-7.97201e-24
1.875e-06
3.18567e-23
2.64781e-23
1.875e-06
3.99206e-23
3.30266e-23
-2.23699e-23
3.73766e-23
1.875e-06
4.0745e-23
3.8342e-22
1.875e-06
2.09189e-22
8.43747e-22
1.875e-06
4.67262e-23
8.94273e-22
1.875e-06
2.82e-23
9.10713e-22
1.875e-06
1.29674e-22
1.02607e-21
1.875e-06
1.36851e-22
1.06886e-21
1.875e-06
1.65697e-22
1.02501e-21
1.875e-06
2.31794e-22
1.01792e-21
1.875e-06
2.98654e-22
9.34555e-22
1.875e-06
2.35869e-22
8.47875e-22
1.875e-06
2.0265e-22
8.93831e-22
1.875e-06
2.16648e-22
9.77896e-22
1.875e-06
1.19246e-22
8.40712e-22
1.875e-06
2.57471e-22
8.28931e-22
1.875e-06
1.70174e-22
7.72926e-22
1.875e-06
8.00184e-23
6.01566e-22
1.875e-06
7.94073e-23
5.4711e-22
1.875e-06
-1.73824e-23
4.70897e-22
1.875e-06
4.57679e-24
3.68841e-22
1.875e-06
5.88928e-23
2.59753e-22
1.875e-06
1.29521e-22
3.69893e-22
1.875e-06
2.04935e-22
3.44638e-22
1.875e-06
2.03008e-22
1.94426e-22
1.875e-06
1.64866e-22
2.27448e-22
1.875e-06
3.81832e-23
3.29081e-22
1.875e-06
1.15915e-22
4.02637e-22
1.875e-06
6.10911e-23
2.13018e-22
1.875e-06
-4.37454e-23
2.70777e-22
1.875e-06
-8.39713e-23
2.06923e-22
1.875e-06
-9.4857e-23
2.0444e-22
1.875e-06
8.70481e-23
1.64405e-22
1.875e-06
1.1411e-22
1.48483e-22
1.875e-06
-3.2219e-23
7.73788e-23
1.875e-06
-1.67163e-23
1.33271e-22
1.875e-06
4.36618e-23
7.86203e-23
1.875e-06
1.17528e-22
1.89844e-23
1.875e-06
-1.48252e-23
-7.88814e-23
1.875e-06
2.22686e-23
-7.16333e-23
1.875e-06
1.38483e-22
2.41778e-23
9.13352e-23
1.07728e-22
1.875e-06
7.81285e-23
4.2092e-22
1.875e-06
9.22712e-23
8.01259e-22
1.875e-06
1.48167e-22
9.72838e-22
1.875e-06
1.08169e-22
1.02887e-21
1.875e-06
9.54093e-23
1.06781e-21
1.875e-06
9.04918e-23
1.06404e-21
1.875e-06
1.85598e-22
1.11497e-21
1.875e-06
3.56761e-22
1.07697e-21
1.875e-06
2.7475e-22
1.00091e-21
1.875e-06
2.14745e-22
9.56388e-22
1.875e-06
1.60129e-22
9.66848e-22
1.875e-06
9.28997e-23
9.54698e-22
1.875e-06
1.44928e-22
8.95054e-22
1.875e-06
2.05031e-22
8.59987e-22
1.875e-06
1.48365e-22
7.84285e-22
1.875e-06
1.343e-22
5.98572e-22
1.875e-06
6.52698e-23
4.43389e-22
1.875e-06
1.20101e-22
4.06091e-22
1.875e-06
1.78856e-22
4.17075e-22
1.875e-06
7.00763e-23
3.23376e-22
1.875e-06
9.6201e-23
3.40117e-22
1.875e-06
9.5762e-23
2.67976e-22
1.875e-06
1.01105e-23
1.75888e-22
1.875e-06
1.85426e-23
3.15254e-22
1.875e-06
1.77256e-24
3.68594e-22
1.875e-06
4.25407e-23
3.28139e-22
1.875e-06
5.92508e-23
2.50477e-22
1.875e-06
6.11884e-23
2.69317e-22
1.875e-06
-2.7674e-24
1.51732e-22
1.875e-06
2.47762e-23
1.13556e-22
1.875e-06
1.63503e-23
1.06444e-22
1.875e-06
-3.44797e-23
6.13773e-23
1.875e-06
4.73775e-23
5.32806e-23
1.875e-06
1.00125e-22
7.57972e-23
1.875e-06
1.35202e-22
9.1628e-23
1.875e-06
1.44956e-22
1.98739e-23
1.875e-06
3.59442e-23
-6.676e-23
1.875e-06
-2.32967e-23
-6.38998e-23
1.875e-06
-1.22183e-22
2.61889e-23
-2.72638e-23
5.41058e-23
1.875e-06
1.4563e-22
3.35689e-22
1.875e-06
7.86498e-23
7.30587e-22
1.875e-06
8.49975e-23
9.20507e-22
1.875e-06
1.25623e-22
1.09904e-21
1.875e-06
1.62928e-22
1.17518e-21
1.875e-06
2.75612e-22
1.12552e-21
1.875e-06
2.80847e-22
1.17509e-21
1.875e-06
6.97584e-23
1.06701e-21
1.875e-06
9.61652e-23
1.05051e-21
1.875e-06
2.08802e-22
1.02898e-21
1.875e-06
1.36947e-22
9.99294e-22
1.875e-06
9.49061e-23
9.4382e-22
1.875e-06
4.32978e-23
8.83086e-22
1.875e-06
1.18731e-22
7.77736e-22
1.875e-06
2.43603e-22
7.85461e-22
1.875e-06
1.06468e-22
6.0051e-22
1.875e-06
9.73909e-23
5.29477e-22
1.875e-06
2.2875e-23
4.29479e-22
1.875e-06
9.34596e-23
3.07934e-22
1.875e-06
1.41809e-22
2.72505e-22
1.875e-06
7.61772e-23
2.80861e-22
1.875e-06
8.64609e-23
3.41454e-22
1.875e-06
2.78941e-23
2.96801e-22
1.875e-06
4.78389e-23
3.55534e-22
1.875e-06
2.32899e-23
4.24694e-22
1.875e-06
3.44243e-23
3.10726e-22
1.875e-06
7.35659e-23
2.69656e-22
1.875e-06
8.02717e-23
2.70152e-22
1.875e-06
1.3759e-23
8.38379e-23
1.875e-06
7.40138e-23
3.05612e-23
1.875e-06
-3.41403e-23
1.42273e-22
1.875e-06
-9.71907e-23
1.40417e-22
1.875e-06
-2.91663e-23
1.77576e-22
1.875e-06
4.87848e-23
5.93722e-23
1.875e-06
8.45481e-23
-5.18083e-23
1.875e-06
-3.32196e-23
-1.99413e-22
1.875e-06
4.65365e-23
-1.74046e-22
1.875e-06
1.86908e-23
-8.09613e-24
1.875e-06
-7.61123e-23
1.0556e-22
-1.38687e-23
8.08921e-24
1.875e-06
-1.53144e-22
2.49756e-22
1.875e-06
-3.90427e-23
8.49882e-22
1.875e-06
1.13588e-22
1.02849e-21
1.875e-06
1.12351e-22
1.14314e-21
1.875e-06
1.90479e-22
1.17738e-21
1.875e-06
2.06989e-22
1.11193e-21
1.875e-06
1.87036e-22
1.18272e-21
1.875e-06
1.09838e-22
1.13797e-21
1.875e-06
8.15493e-23
1.11045e-21
1.875e-06
7.33979e-23
1.01933e-21
1.875e-06
1.45553e-22
9.84272e-22
1.875e-06
8.10467e-23
9.93933e-22
1.875e-06
1.57327e-22
9.54025e-22
1.875e-06
1.42061e-22
7.59928e-22
1.875e-06
1.07829e-22
7.29673e-22
1.875e-06
1.33141e-22
6.45842e-22
1.875e-06
1.39267e-22
5.91277e-22
1.875e-06
1.93996e-22
5.33139e-22
1.875e-06
-1.09783e-22
3.00493e-22
1.875e-06
-6.41673e-23
2.19285e-22
1.875e-06
1.41009e-22
2.90145e-22
1.875e-06
2.62795e-23
3.11117e-22
1.875e-06
1.56275e-22
4.02943e-22
1.875e-06
1.22854e-22
5.0217e-22
1.875e-06
1.55632e-22
4.42538e-22
1.875e-06
4.33255e-24
2.8365e-22
1.875e-06
-9.10463e-23
1.91328e-22
1.875e-06
-8.61619e-23
1.6178e-22
1.875e-06
8.74947e-23
6.77961e-23
1.875e-06
-1.43106e-24
1.40105e-22
1.875e-06
-7.58734e-23
1.42554e-22
1.875e-06
-3.96079e-23
1.52816e-22
1.875e-06
6.24317e-23
2.45687e-22
1.875e-06
2.2614e-23
7.1366e-23
1.875e-06
1.04305e-23
-1.97982e-22
1.875e-06
1.12463e-23
-3.10721e-22
1.875e-06
3.75051e-23
-2.39001e-22
1.875e-06
3.65607e-23
1.07475e-23
1.875e-06
8.07384e-23
9.91345e-23
-1.44819e-23
3.50213e-23
1.875e-06
-6.89828e-23
4.82073e-22
1.875e-06
3.96183e-23
8.33361e-22
1.875e-06
1.14127e-22
9.90561e-22
1.875e-06
2.68557e-22
1.27874e-21
1.875e-06
9.32969e-23
1.26986e-21
1.875e-06
1.03607e-22
1.23505e-21
1.875e-06
2.3613e-22
1.27484e-21
1.875e-06
7.73305e-23
1.17251e-21
1.875e-06
7.7566e-23
9.69333e-22
1.875e-06
7.28925e-23
9.39632e-22
1.875e-06
1.08795e-22
9.71025e-22
1.875e-06
1.5809e-22
9.84748e-22
1.875e-06
8.41726e-23
9.23379e-22
1.875e-06
1.27553e-22
8.44645e-22
1.875e-06
9.90922e-23
7.31657e-22
1.875e-06
1.80186e-22
6.46368e-22
1.875e-06
1.29105e-22
5.56787e-22
1.875e-06
5.30119e-23
4.86871e-22
1.875e-06
-2.80021e-23
4.35222e-22
1.875e-06
-3.2598e-23
2.75627e-22
1.875e-06
1.3388e-22
4.09869e-22
1.875e-06
2.29689e-22
5.00685e-22
1.875e-06
4.66561e-23
4.12191e-22
1.875e-06
1.96731e-23
4.52825e-22
1.875e-06
5.62228e-23
3.11429e-22
1.875e-06
6.66733e-23
2.97816e-22
1.875e-06
-1.4939e-22
2.38318e-22
1.875e-06
-4.41127e-23
1.81216e-22
1.875e-06
1.06328e-24
1.47856e-22
1.875e-06
6.55958e-23
1.81257e-22
1.875e-06
-5.34664e-23
1.67815e-22
1.875e-06
-7.20949e-23
2.13652e-22
1.875e-06
6.08912e-23
1.86955e-22
1.875e-06
-1.30363e-23
1.51606e-23
1.875e-06
-1.30516e-22
-2.02378e-22
1.875e-06
1.09971e-23
-3.54954e-22
1.875e-06
9.26192e-24
-3.39517e-22
1.875e-06
1.43357e-22
-1.10221e-22
1.875e-06
5.62239e-23
2.95563e-24
7.43893e-23
-4.45433e-23
1.875e-06
5.9607e-23
5.84557e-22
1.875e-06
1.18725e-22
8.89235e-22
1.875e-06
1.33055e-22
1.13361e-21
1.875e-06
8.20929e-23
1.2114e-21
1.875e-06
1.46939e-22
1.31137e-21
1.875e-06
1.89839e-22
1.21334e-21
1.875e-06
9.93737e-24
1.14562e-21
1.875e-06
1.3702e-22
1.27229e-21
1.875e-06
2.47444e-23
1.05242e-21
1.875e-06
8.90111e-23
9.05201e-22
1.875e-06
2.06282e-22
9.15878e-22
1.875e-06
9.03453e-23
9.09652e-22
1.875e-06
8.36554e-23
9.42044e-22
1.875e-06
1.0763e-22
7.47145e-22
1.875e-06
1.37887e-22
7.95558e-22
1.875e-06
1.21957e-22
6.78418e-22
1.875e-06
1.13658e-22
5.83711e-22
1.875e-06
2.33292e-23
5.33384e-22
1.875e-06
1.53903e-22
4.82239e-22
1.875e-06
8.49549e-23
4.46829e-22
1.875e-06
4.44868e-23
3.99548e-22
1.875e-06
7.95949e-23
3.55482e-22
1.875e-06
4.27735e-23
4.88067e-22
1.875e-06
2.66037e-23
5.3828e-22
1.875e-06
1.79886e-23
2.66535e-22
1.875e-06
-1.11604e-22
2.04021e-22
1.875e-06
6.19273e-24
2.94727e-22
1.875e-06
2.26962e-23
2.72973e-22
1.875e-06
2.13826e-23
1.66167e-22
1.875e-06
-1.25523e-22
1.03386e-22
1.875e-06
-1.01777e-22
1.90695e-22
1.875e-06
3.82829e-23
2.53269e-22
1.875e-06
-4.40727e-24
7.02649e-23
1.875e-06
-5.88926e-23
2.24527e-23
1.875e-06
1.77692e-23
-4.08838e-23
1.875e-06
-1.0317e-22
-2.81408e-22
1.875e-06
-5.76752e-23
-3.05117e-22
1.875e-06
-5.98158e-24
-1.77678e-22
1.875e-06
2.03498e-22
-9.21736e-26
1.65061e-22
-5.43901e-23
1.875e-06
1.43871e-22
6.09799e-22
1.875e-06
1.12561e-22
9.64387e-22
1.875e-06
8.51013e-23
1.10767e-21
1.875e-06
1.24232e-22
1.21074e-21
1.875e-06
1.44681e-22
1.24076e-21
1.875e-06
2.70968e-23
1.1935e-21
1.875e-06
1.34327e-22
1.22208e-21
1.875e-06
1.56737e-22
1.18211e-21
1.875e-06
2.60119e-22
1.0654e-21
1.875e-06
8.16803e-23
9.68609e-22
1.875e-06
-4.15202e-23
8.21286e-22
1.875e-06
5.15508e-23
9.71437e-22
1.875e-06
1.58634e-22
9.85468e-22
1.875e-06
1.15279e-22
7.76334e-22
1.875e-06
8.87027e-23
7.53536e-22
1.875e-06
3.25694e-24
7.30948e-22
1.875e-06
6.0744e-23
5.36307e-22
1.875e-06
1.57017e-22
5.50973e-22
1.875e-06
1.44361e-22
4.90278e-22
1.875e-06
1.8547e-22
5.73345e-22
1.875e-06
9.0454e-23
4.66781e-22
1.875e-06
-4.06619e-23
3.841e-22
1.875e-06
-2.95883e-23
3.96028e-22
1.875e-06
-1.99322e-23
4.53043e-22
1.875e-06
-1.12642e-22
2.08306e-22
1.875e-06
-7.61421e-23
3.26558e-22
1.875e-06
-3.82875e-23
2.40886e-22
1.875e-06
2.61339e-23
1.85964e-22
1.875e-06
-1.91496e-23
1.03914e-22
1.875e-06
-5.12956e-23
2.2579e-22
1.875e-06
1.32708e-22
3.13636e-22
1.875e-06
1.15691e-23
2.24696e-22
1.875e-06
-1.20351e-22
1.0078e-22
1.875e-06
1.13816e-22
3.73768e-23
1.875e-06
5.8561e-23
-1.07477e-22
1.875e-06
-7.00773e-23
-1.93751e-22
1.875e-06
-1.70449e-22
-2.90214e-22
1.875e-06
1.09276e-24
-1.48034e-22
1.875e-06
7.0585e-23
-8.49303e-23
7.235e-23
-2.64888e-22
1.875e-06
1.5353e-22
5.54828e-22
1.875e-06
2.12827e-22
9.5465e-22
1.875e-06
1.46541e-22
1.1198e-21
1.875e-06
1.34935e-22
1.28623e-21
1.875e-06
-2.15059e-23
1.22227e-21
1.875e-06
-7.16228e-24
1.25331e-21
1.875e-06
7.50328e-23
1.18333e-21
1.875e-06
1.69526e-23
1.09292e-21
1.875e-06
2.62099e-23
9.69967e-22
1.875e-06
1.15464e-22
9.04127e-22
1.875e-06
4.87205e-23
8.21892e-22
1.875e-06
1.58496e-22
9.69207e-22
1.875e-06
1.91382e-22
1.03676e-21
1.875e-06
1.62849e-22
8.71165e-22
1.875e-06
8.05315e-23
7.71008e-22
1.875e-06
5.25917e-23
6.6324e-22
1.875e-06
3.89545e-23
5.26832e-22
1.875e-06
4.66614e-23
5.57054e-22
1.875e-06
1.16351e-22
5.86004e-22
1.875e-06
1.21865e-22
5.2273e-22
1.875e-06
1.55272e-22
4.756e-22
1.875e-06
1.17758e-22
3.46943e-22
1.875e-06
6.97503e-23
4.07924e-22
1.875e-06
8.79381e-24
4.37435e-22
1.875e-06
-9.65578e-23
3.08494e-22
1.875e-06
-1.13721e-22
2.50696e-22
1.875e-06
-1.04632e-22
2.13383e-22
1.875e-06
-6.39495e-24
1.48674e-22
1.875e-06
5.56598e-23
1.73337e-22
1.875e-06
-7.72322e-23
1.77754e-22
1.875e-06
-1.10721e-22
1.73796e-22
1.875e-06
-1.16321e-23
2.22119e-22
1.875e-06
3.89042e-23
1.87904e-22
1.875e-06
-2.50586e-23
-4.23543e-23
1.875e-06
-4.53547e-24
-7.73182e-23
1.875e-06
-1.33254e-23
-2.41123e-22
1.875e-06
-2.39643e-23
-2.65164e-22
1.875e-06
-6.72836e-23
-1.27578e-22
1.875e-06
-1.14577e-22
-6.16399e-23
-8.26643e-23
-1.9443e-22
1.875e-06
-1.35992e-22
5.02072e-22
1.875e-06
2.33979e-23
8.9999e-22
1.875e-06
1.45424e-22
1.09294e-21
1.875e-06
9.14845e-24
1.2245e-21
1.875e-06
-2.9704e-23
1.30329e-21
1.875e-06
-2.31135e-25
1.22754e-21
1.875e-06
1.39117e-22
1.20094e-21
1.875e-06
2.85091e-22
1.07968e-21
1.875e-06
1.17145e-22
1.05429e-21
1.875e-06
-6.20097e-23
9.2908e-22
1.875e-06
-5.86848e-24
8.84347e-22
1.875e-06
1.36902e-22
8.62629e-22
1.875e-06
1.87975e-22
1.0013e-21
1.875e-06
9.56854e-23
8.2405e-22
1.875e-06
5.32276e-24
7.93398e-22
1.875e-06
2.97898e-23
7.73378e-22
1.875e-06
9.64703e-23
6.56865e-22
1.875e-06
1.92068e-22
6.38782e-22
1.875e-06
1.84035e-22
5.51057e-22
1.875e-06
1.60926e-22
4.2303e-22
1.875e-06
1.57108e-22
4.64514e-22
1.875e-06
2.50286e-23
4.13283e-22
1.875e-06
-3.7268e-23
4.22012e-22
1.875e-06
-3.59856e-23
3.65676e-22
1.875e-06
-1.20068e-22
2.78878e-22
1.875e-06
2.06693e-23
2.5691e-22
1.875e-06
9.59283e-23
2.78306e-22
1.875e-06
-3.81972e-23
1.81231e-22
1.875e-06
-1.13202e-22
1.21962e-22
1.875e-06
-3.29235e-23
2.23315e-22
1.875e-06
-9.86114e-23
2.46352e-22
1.875e-06
-9.53704e-23
1.69262e-22
1.875e-06
-3.7268e-24
1.18843e-22
1.875e-06
-2.42525e-23
5.31837e-23
1.875e-06
-4.86132e-23
-1.09357e-22
1.875e-06
2.57102e-23
-2.91998e-22
1.875e-06
-4.14932e-23
-3.10506e-22
1.875e-06
-6.83168e-23
-3.06193e-22
1.875e-06
-1.18311e-22
-1.77182e-22
-1.59822e-22
-2.44012e-22
1.875e-06
-3.53655e-23
7.29261e-22
1.875e-06
-1.75876e-22
9.00173e-22
1.875e-06
-4.85576e-23
1.01978e-21
1.875e-06
-1.32562e-23
1.20278e-21
1.875e-06
8.37392e-23
1.32235e-21
1.875e-06
-1.04697e-23
1.19361e-21
1.875e-06
1.01143e-23
1.06716e-21
1.875e-06
9.19734e-23
9.49149e-22
1.875e-06
3.20072e-23
1.02454e-21
1.875e-06
2.95105e-23
1.01913e-21
1.875e-06
1.82757e-22
9.80248e-22
1.875e-06
1.0218e-22
9.67827e-22
1.875e-06
1.62843e-23
9.77865e-22
1.875e-06
-2.30116e-24
8.88394e-22
1.875e-06
1.31955e-22
8.40174e-22
1.875e-06
9.29472e-23
6.85512e-22
1.875e-06
5.02779e-23
5.64597e-22
1.875e-06
1.5013e-22
5.04576e-22
1.875e-06
1.34814e-22
5.56519e-22
1.875e-06
1.36733e-22
5.24538e-22
1.875e-06
1.1655e-22
4.85141e-22
1.875e-06
7.18214e-23
5.16313e-22
1.875e-06
-5.09339e-23
5.46525e-22
1.875e-06
-2.53805e-22
3.12867e-22
1.875e-06
-1.57067e-22
2.66012e-22
1.875e-06
2.8006e-23
2.45819e-22
1.875e-06
1.23294e-22
1.97183e-22
1.875e-06
2.98995e-23
1.34905e-22
1.875e-06
-6.41997e-23
1.42607e-22
1.875e-06
-5.74461e-23
1.45389e-22
1.875e-06
8.39824e-24
2.50524e-22
1.875e-06
-5.74622e-23
1.9164e-22
1.875e-06
-3.25125e-23
7.15204e-23
1.875e-06
-1.74421e-23
3.27485e-23
1.875e-06
1.06452e-23
-7.32419e-23
1.875e-06
1.92031e-23
-2.24844e-22
1.875e-06
-1.02586e-22
-3.36534e-22
1.875e-06
-1.59745e-22
-2.58935e-22
1.875e-06
-7.76135e-23
-1.5369e-22
-5.80102e-23
-1.26731e-22
1.875e-06
-5.23055e-23
6.75272e-22
1.875e-06
-1.06589e-22
1.03519e-21
1.875e-06
-8.46667e-23
1.0849e-21
1.875e-06
-1.30006e-22
1.31188e-21
1.875e-06
-1.06404e-22
1.32136e-21
1.875e-06
2.75625e-23
1.17513e-21
1.875e-06
2.61389e-23
1.06931e-21
1.875e-06
3.39761e-23
9.69084e-22
1.875e-06
8.78725e-23
1.06118e-21
1.875e-06
1.44006e-22
1.01966e-21
1.875e-06
8.15795e-23
9.4689e-22
1.875e-06
4.69001e-23
9.98248e-22
1.875e-06
-9.78661e-23
1.04031e-21
1.875e-06
3.27353e-23
8.90497e-22
1.875e-06
6.4029e-23
7.61729e-22
1.875e-06
2.47782e-23
6.72623e-22
1.875e-06
7.48967e-23
5.03901e-22
1.875e-06
4.7638e-23
4.91437e-22
1.875e-06
1.03735e-22
5.39583e-22
1.875e-06
3.26048e-23
4.86227e-22
1.875e-06
7.29625e-23
4.97856e-22
1.875e-06
-3.07786e-24
5.47042e-22
1.875e-06
-8.3247e-23
4.71602e-22
1.875e-06
-1.13479e-22
3.70977e-22
1.875e-06
-7.82437e-23
3.17029e-22
1.875e-06
-5.24088e-23
2.00366e-22
1.875e-06
2.18253e-23
1.04603e-22
1.875e-06
9.51795e-23
7.42673e-23
1.875e-06
-1.045e-23
1.83841e-22
1.875e-06
1.42847e-23
1.73306e-22
1.875e-06
-6.60926e-23
1.3999e-22
1.875e-06
6.65676e-23
1.40321e-22
1.875e-06
-5.21424e-23
5.02287e-23
1.875e-06
-1.30615e-22
2.2945e-23
1.875e-06
-1.57151e-22
-1.58037e-22
1.875e-06
-1.04967e-22
-3.14711e-22
1.875e-06
1.64554e-23
-1.91108e-22
1.875e-06
-1.13643e-23
-7.08913e-23
1.875e-06
-9.16667e-23
-1.10141e-22
-3.84429e-23
-1.50083e-22
1.875e-06
-1.29962e-22
5.42604e-22
1.875e-06
-5.16141e-23
9.87593e-22
1.875e-06
2.43812e-23
1.17762e-21
1.875e-06
-6.26651e-23
1.33882e-21
1.875e-06
-1.28314e-22
1.40575e-21
1.875e-06
-5.04942e-23
1.26594e-21
1.875e-06
-6.53319e-23
1.11606e-21
1.875e-06
-8.45895e-23
1.05004e-21
1.875e-06
2.89276e-23
1.075e-21
1.875e-06
1.0033e-22
9.82414e-22
1.875e-06
1.2996e-22
9.06387e-22
1.875e-06
9.25502e-23
9.5623e-22
1.875e-06
3.33437e-23
1.13316e-21
1.875e-06
-3.57256e-23
1.01511e-21
1.875e-06
8.01367e-23
7.60689e-22
1.875e-06
4.47593e-23
5.51328e-22
1.875e-06
5.61298e-23
4.14785e-22
1.875e-06
-5.98914e-23
5.01229e-22
1.875e-06
5.75493e-23
6.08314e-22
1.875e-06
1.71726e-22
6.23325e-22
1.875e-06
1.32341e-22
5.05153e-22
1.875e-06
-3.00604e-23
4.58406e-22
1.875e-06
-1.51259e-22
4.11266e-22
1.875e-06
-1.14767e-22
2.94047e-22
1.875e-06
-9.41962e-23
2.81609e-22
1.875e-06
-2.02349e-23
2.47238e-22
1.875e-06
-4.32982e-23
1.08549e-22
1.875e-06
-9.41826e-23
4.61079e-23
1.875e-06
1.99584e-23
1.91811e-22
1.875e-06
3.44269e-23
1.46176e-22
1.875e-06
8.99908e-23
1.42469e-22
1.875e-06
-7.97792e-23
3.22147e-23
1.875e-06
-1.38467e-22
4.7491e-23
1.875e-06
-1.36069e-22
1.0139e-22
1.875e-06
-2.22931e-22
-8.90724e-23
1.875e-06
-1.5039e-22
-2.77236e-22
1.875e-06
-4.17658e-24
-2.43842e-22
1.875e-06
6.39175e-23
-1.27736e-22
1.875e-06
-4.45459e-23
-1.29081e-22
-5.20988e-23
-1.97601e-22
1.875e-06
-6.19217e-23
6.3397e-22
1.875e-06
-1.58179e-22
1.04546e-21
1.875e-06
-1.92757e-22
1.14625e-21
1.875e-06
1.77122e-23
1.32286e-21
1.875e-06
7.44288e-23
1.36038e-21
1.875e-06
-5.48791e-23
1.30937e-21
1.875e-06
-1.52592e-22
1.15548e-21
1.875e-06
-1.39936e-22
1.10995e-21
1.875e-06
1.92889e-23
1.14225e-21
1.875e-06
1.09097e-22
1.10903e-21
1.875e-06
-1.80427e-23
9.86322e-22
1.875e-06
4.49207e-23
9.30518e-22
1.875e-06
8.49355e-23
1.07583e-21
1.875e-06
6.09943e-24
1.05618e-21
1.875e-06
-2.68353e-23
7.53599e-22
1.875e-06
9.22783e-24
6.31453e-22
1.875e-06
5.18203e-23
5.86359e-22
1.875e-06
2.52418e-22
5.57506e-22
1.875e-06
2.54138e-22
4.78437e-22
1.875e-06
1.05587e-22
5.1974e-22
1.875e-06
-1.03837e-22
4.10867e-22
1.875e-06
-2.02344e-22
4.64052e-22
1.875e-06
-3.1733e-23
4.75787e-22
1.875e-06
5.33276e-25
3.88798e-22
1.875e-06
-1.09715e-23
4.20943e-22
1.875e-06
-1.29573e-22
2.01791e-22
1.875e-06
-4.79402e-23
1.16658e-22
1.875e-06
-3.71432e-23
1.50257e-22
1.875e-06
-3.28925e-23
6.07306e-23
1.875e-06
3.82113e-23
1.13463e-22
1.875e-06
7.38957e-23
1.40035e-22
1.875e-06
-4.43645e-23
3.85473e-23
1.875e-06
-7.54484e-23
5.05416e-23
1.875e-06
-4.23553e-23
4.72296e-23
1.875e-06
-9.96755e-23
-1.0854e-23
1.875e-06
-1.37904e-22
-8.61562e-23
1.875e-06
-1.51967e-22
-1.72794e-22
1.875e-06
-1.48685e-22
-2.66142e-22
1.875e-06
6.66211e-23
-2.05019e-22
2.07968e-22
-1.94885e-22
1.875e-06
1.5577e-23
7.32426e-22
1.875e-06
-6.35541e-24
1.09013e-21
1.875e-06
2.25955e-23
1.20359e-21
1.875e-06
4.46671e-24
1.28138e-21
1.875e-06
-1.60922e-23
1.26961e-21
1.875e-06
-1.19834e-22
1.34427e-21
1.875e-06
-2.15643e-22
1.25233e-21
1.875e-06
-1.4392e-22
1.256e-21
1.875e-06
3.21839e-23
1.19153e-21
1.875e-06
3.04151e-23
1.04891e-21
1.875e-06
1.37048e-23
1.05204e-21
1.875e-06
8.42398e-23
1.01858e-21
1.875e-06
7.74064e-23
1.06737e-21
1.875e-06
1.33779e-22
1.05425e-21
1.875e-06
2.43944e-23
8.13017e-22
1.875e-06
-1.24424e-23
6.49173e-22
1.875e-06
-4.77071e-23
6.4861e-22
1.875e-06
-5.93061e-23
4.23517e-22
1.875e-06
1.46086e-23
3.38486e-22
1.875e-06
8.73126e-24
4.05509e-22
1.875e-06
-6.79441e-23
4.021e-22
1.875e-06
4.42809e-23
5.57497e-22
1.875e-06
-1.2678e-23
5.19859e-22
1.875e-06
2.28437e-23
4.72253e-22
1.875e-06
-1.13123e-23
3.81751e-22
1.875e-06
-8.2406e-23
2.22756e-22
1.875e-06
7.84498e-23
2.38238e-22
1.875e-06
8.54916e-23
2.33631e-22
1.875e-06
1.23618e-23
1.49825e-22
1.875e-06
5.11674e-23
1.03727e-22
1.875e-06
-1.237e-22
-7.4908e-23
1.875e-06
-5.18384e-23
-2.03907e-23
1.875e-06
9.09219e-24
-4.81261e-23
1.875e-06
6.8531e-24
1.02035e-22
1.875e-06
2.93669e-23
9.02464e-23
1.875e-06
-6.85331e-23
3.86606e-24
1.875e-06
6.54488e-24
9.54619e-24
1.875e-06
-5.52408e-23
-1.29453e-22
1.875e-06
-1.92658e-23
-2.14847e-22
-2.37728e-23
-2.71515e-22
1.875e-06
1.06502e-22
7.85307e-22
1.875e-06
1.48793e-22
1.16208e-21
1.875e-06
4.57322e-24
1.09035e-21
1.875e-06
-7.89125e-23
1.13296e-21
1.875e-06
-7.68188e-23
1.32853e-21
1.875e-06
-1.57231e-23
1.37386e-21
1.875e-06
-7.05272e-24
1.32438e-21
1.875e-06
-1.64627e-22
1.18822e-21
1.875e-06
-1.94355e-22
1.11489e-21
1.875e-06
-1.51559e-23
1.23766e-21
1.875e-06
-1.96064e-22
1.049e-21
1.875e-06
4.07425e-22
1.01152e-21
1.875e-06
9.25683e-23
1.05563e-21
1.875e-06
1.02468e-22
1.02341e-21
1.875e-06
3.82696e-23
9.40035e-22
1.875e-06
-8.39084e-23
7.54012e-22
1.875e-06
-1.05187e-23
5.58376e-22
1.875e-06
-1.23663e-22
3.35305e-22
1.875e-06
-1.76066e-22
4.03359e-22
1.875e-06
-3.47728e-23
4.30637e-22
1.875e-06
-6.73581e-23
4.25591e-22
1.875e-06
-9.82343e-23
5.04396e-22
1.875e-06
6.94037e-25
6.10908e-22
1.875e-06
3.1102e-23
3.566e-22
1.875e-06
1.71605e-22
3.53172e-22
1.875e-06
1.01038e-22
3.43619e-22
1.875e-06
-8.60365e-23
1.78774e-22
1.875e-06
-4.98561e-24
1.67242e-22
1.875e-06
-1.04217e-22
1.82127e-22
1.875e-06
1.69642e-22
1.53763e-24
1.875e-06
5.71933e-23
5.48115e-23
1.875e-06
-1.45569e-23
-1.71969e-23
1.875e-06
1.04828e-22
-2.51447e-23
1.875e-06
-1.54432e-22
-6.08051e-24
1.875e-06
5.57131e-23
8.65774e-23
1.875e-06
7.59683e-23
1.08403e-22
1.875e-06
1.32419e-23
-3.70622e-23
1.875e-06
2.30602e-23
-1.86079e-22
1.875e-06
-1.21947e-22
-3.32286e-22
-1.01808e-22
-1.59386e-22
1.875e-06
2.30091e-22
6.76938e-22
1.875e-06
1.5729e-22
9.82949e-22
1.875e-06
-6.6053e-24
1.06911e-21
1.875e-06
-4.09557e-23
1.17178e-21
1.875e-06
9.49166e-24
1.31524e-21
1.875e-06
1.87496e-23
1.23358e-21
1.875e-06
1.04128e-23
1.28347e-21
1.875e-06
-5.10549e-23
1.28803e-21
1.875e-06
-9.62139e-23
1.23024e-21
1.875e-06
-5.63742e-23
1.30517e-21
1.875e-06
8.82244e-24
1.09491e-21
1.875e-06
6.92378e-23
1.07652e-21
1.875e-06
1.84184e-22
1.1449e-21
1.875e-06
2.77289e-23
9.59788e-22
1.875e-06
-1.06104e-22
8.20874e-22
1.875e-06
8.77407e-24
7.82978e-22
1.875e-06
-1.08361e-22
5.65003e-22
1.875e-06
-9.97959e-23
4.40013e-22
1.875e-06
-9.40793e-23
5.47291e-22
1.875e-06
-6.36824e-23
4.49705e-22
1.875e-06
-8.40416e-23
4.46555e-22
1.875e-06
-5.34769e-23
5.42392e-22
1.875e-06
-3.42585e-23
5.16199e-22
1.875e-06
-1.50305e-23
3.46249e-22
1.875e-06
3.58257e-23
3.47183e-22
1.875e-06
1.1286e-22
3.74935e-22
1.875e-06
4.60019e-23
1.5249e-22
1.875e-06
1.08077e-22
1.36141e-22
1.875e-06
6.0338e-23
1.69025e-22
1.875e-06
2.63762e-23
7.30139e-23
1.875e-06
4.66364e-23
2.97523e-23
1.875e-06
-5.91041e-23
-2.28399e-23
1.875e-06
-8.28864e-23
-9.64276e-23
1.875e-06
3.79804e-23
9.0906e-23
1.875e-06
4.43531e-23
8.80844e-23
1.875e-06
1.87643e-22
6.21086e-23
1.875e-06
5.47709e-23
-8.41822e-23
1.875e-06
7.96941e-23
-2.58855e-22
1.875e-06
-7.27404e-23
-2.37562e-22
-1.84383e-22
-1.24724e-22
1.875e-06
7.4037e-24
4.61018e-22
1.875e-06
8.33241e-23
8.72286e-22
1.875e-06
-1.12445e-23
1.123e-21
1.875e-06
1.9056e-23
1.0699e-21
1.875e-06
3.72543e-23
1.18983e-21
1.875e-06
1.00001e-22
1.2638e-21
1.875e-06
1.99355e-23
1.28537e-21
1.875e-06
1.39772e-23
1.31723e-21
1.875e-06
-1.86216e-23
1.25572e-21
1.875e-06
-1.58331e-22
1.39705e-21
1.875e-06
-6.81521e-23
1.21361e-21
1.875e-06
-9.99059e-24
1.01928e-21
1.875e-06
-1.06528e-22
9.86402e-22
1.875e-06
-1.39279e-22
9.26845e-22
1.875e-06
-1.09799e-22
8.9468e-22
1.875e-06
-3.28401e-23
7.66769e-22
1.875e-06