/*--------------------------------*- C++ -*----------------------------------*\
| =========                 |                                                 |
| \\      /  F ield         | OpenFOAM: The Open Source CFD Toolbox           |
|  \\    /   O peration     | Version:  v2012                                 |
|   \\  /    A nd           | Website:  www.openfoam.com                      |
|    \\/     M anipulation  |                                                 |
\*---------------------------------------------------------------------------*/
FoamFile
{
    version     2.0;
    format      ascii;
    class       volVectorField;
    location    "32";
    object      U;
}
// * * * * * * * * * * * * * * * * * * * * * * * * * * * * * * * * * * * * * //

dimensions      [0 1 -1 0 0 0 0];


internalField   nonuniform List<vector> 
64000
(
(0.003 2.57342e-19 2.05806e-19)
(0.003 4.32034e-19 3.35711e-19)
(0.003 4.67634e-19 4.78269e-19)
(0.003 4.70722e-19 5.53413e-19)
(0.003 5.85574e-19 5.53952e-19)
(0.003 5.74548e-19 4.80267e-19)
(0.003 5.17663e-19 4.33768e-19)
(0.003 3.47868e-19 4.1682e-19)
(0.003 3.4573e-19 5.45342e-19)
(0.003 5.31737e-19 4.93229e-19)
(0.003 5.54644e-19 3.94562e-19)
(0.003 4.90443e-19 4.56492e-19)
(0.003 4.14934e-19 4.0047e-19)
(0.003 3.82618e-19 3.07118e-19)
(0.003 3.07653e-19 3.67273e-19)
(0.003 2.59871e-19 3.92841e-19)
(0.003 2.1055e-19 2.81249e-19)
(0.003 7.26799e-20 1.31822e-19)
(0.003 8.88379e-20 1.05208e-19)
(0.003 1.61765e-19 2.21783e-19)
(0.003 6.0968e-20 1.87325e-19)
(0.003 1.53225e-19 1.88861e-19)
(0.003 2.63574e-19 2.20814e-19)
(0.003 3.40708e-19 1.53816e-19)
(0.003 3.57168e-19 1.89626e-19)
(0.003 2.24233e-19 1.77598e-19)
(0.003 1.46301e-19 1.88913e-19)
(0.003 2.43258e-19 2.3545e-19)
(0.003 2.34803e-19 2.38587e-19)
(0.003 5.95567e-20 2.46681e-19)
(0.003 -8.01787e-20 2.22191e-19)
(0.003 -5.05086e-20 8.43745e-20)
(0.003 1.331e-19 5.84827e-20)
(0.003 8.29288e-20 7.37361e-20)
(0.003 7.25923e-20 1.24043e-19)
(0.003 1.02441e-19 1.73826e-19)
(0.003 -2.34256e-20 4.93217e-20)
(0.003 -1.08977e-19 1.31201e-19)
(0.003 -1.29728e-19 2.42168e-19)
(0.003 -6.37878e-20 1.6785e-19)
(0.003 2.97546e-19 3.13376e-19)
(0.003 4.25823e-19 7.10493e-19)
(0.003 6.24467e-19 1.00642e-18)
(0.003 5.84274e-19 1.04524e-18)
(0.003 5.09978e-19 1.02558e-18)
(0.003 6.66538e-19 1.05805e-18)
(0.003 6.32078e-19 9.95581e-19)
(0.003 5.93596e-19 8.0848e-19)
(0.003 5.73468e-19 8.30767e-19)
(0.003 5.34367e-19 1.08604e-18)
(0.003 4.65522e-19 1.04628e-18)
(0.003 4.39931e-19 9.09983e-19)
(0.003 3.79586e-19 8.11881e-19)
(0.003 2.4478e-19 6.97777e-19)
(0.003 1.87708e-19 6.83973e-19)
(0.003 1.50309e-19 6.79814e-19)
(0.003 3.81965e-19 6.44921e-19)
(0.003 3.11056e-19 4.59632e-19)
(0.003 1.42777e-19 3.49142e-19)
(0.003 8.69562e-20 4.00005e-19)
(0.003 1.91667e-19 3.10634e-19)
(0.003 3.03672e-19 3.25108e-19)
(0.003 2.82501e-19 3.66351e-19)
(0.003 3.46163e-19 5.06919e-19)
(0.003 1.93756e-19 4.59202e-19)
(0.003 2.22405e-19 3.41937e-19)
(0.003 2.92822e-19 2.662e-19)
(0.003 1.71999e-19 3.07929e-19)
(0.003 4.94689e-20 4.11023e-19)
(0.003 3.78624e-20 2.55065e-19)
(0.003 2.91184e-20 8.62312e-20)
(0.003 5.34128e-20 7.51975e-20)
(0.003 1.0295e-19 1.81715e-19)
(0.003 -5.25228e-21 1.68451e-19)
(0.003 -3.30049e-20 2.24878e-19)
(0.003 -4.74173e-20 2.09831e-19)
(0.003 -1.05573e-19 -1.86986e-20)
(0.003 -1.58813e-19 9.87265e-21)
(0.003 -1.54284e-19 1.93691e-19)
(0.003 -1.48683e-19 1.68998e-19)
(0.003 1.83818e-19 4.71426e-19)
(0.003 2.34263e-19 8.61535e-19)
(0.003 3.47979e-19 1.15192e-18)
(0.003 5.03154e-19 1.25084e-18)
(0.003 4.5851e-19 1.21219e-18)
(0.003 4.89454e-19 1.17974e-18)
(0.003 5.32933e-19 1.20817e-18)
(0.003 5.40844e-19 1.09287e-18)
(0.003 5.61518e-19 1.13886e-18)
(0.003 4.4684e-19 1.234e-18)
(0.003 3.31213e-19 1.07822e-18)
(0.003 3.1741e-19 1.01105e-18)
(0.003 3.57739e-19 9.01482e-19)
(0.003 2.19697e-19 7.99555e-19)
(0.003 1.84844e-19 7.82712e-19)
(0.003 1.67056e-19 7.36617e-19)
(0.003 3.1195e-19 8.16031e-19)
(0.003 4.66604e-19 6.52476e-19)
(0.003 1.64129e-19 3.88556e-19)
(0.003 8.76708e-20 4.24969e-19)
(0.003 2.4112e-19 4.43883e-19)
(0.003 2.90192e-19 4.52378e-19)
(0.003 3.06454e-19 4.14241e-19)
(0.003 2.16797e-19 4.90512e-19)
(0.003 2.07817e-19 4.73466e-19)
(0.003 1.82687e-19 4.54866e-19)
(0.003 1.32569e-19 4.07365e-19)
(0.003 1.12022e-20 4.05766e-19)
(0.003 -1.9962e-20 3.65187e-19)
(0.003 3.94033e-20 2.75504e-19)
(0.003 8.19465e-20 2.57163e-19)
(0.003 1.01284e-19 1.99971e-19)
(0.003 -6.32609e-20 1.37656e-19)
(0.003 -1.16108e-19 8.49343e-20)
(0.003 -4.57488e-20 1.93093e-19)
(0.003 -3.58322e-20 8.8274e-20)
(0.003 -1.27531e-19 -8.54885e-20)
(0.003 -9.02853e-20 8.74194e-20)
(0.003 -3.73146e-20 1.74653e-19)
(0.003 -6.9524e-20 1.19514e-19)
(0.003 3.5758e-19 6.17062e-19)
(0.003 3.12843e-19 1.03231e-18)
(0.003 2.1763e-19 1.25526e-18)
(0.003 3.30919e-19 1.42053e-18)
(0.003 4.06629e-19 1.37231e-18)
(0.003 4.16445e-19 1.36475e-18)
(0.003 3.72707e-19 1.32811e-18)
(0.003 3.21194e-19 1.1727e-18)
(0.003 3.41349e-19 1.18102e-18)
(0.003 4.16084e-19 1.24251e-18)
(0.003 3.93819e-19 1.21869e-18)
(0.003 3.22652e-19 1.20002e-18)
(0.003 2.69421e-19 1.04419e-18)
(0.003 2.41938e-19 8.40186e-19)
(0.003 4.77266e-19 8.41353e-19)
(0.003 6.26389e-19 7.87143e-19)
(0.003 2.51242e-19 7.68348e-19)
(0.003 1.62458e-19 7.26116e-19)
(0.003 2.16587e-19 5.20743e-19)
(0.003 1.93687e-19 3.81915e-19)
(0.003 1.35718e-19 4.41786e-19)
(0.003 2.60508e-19 5.05099e-19)
(0.003 3.2879e-19 5.21583e-19)
(0.003 2.31204e-19 5.81401e-19)
(0.003 2.4243e-19 5.99885e-19)
(0.003 1.40939e-19 4.63067e-19)
(0.003 4.65765e-21 3.52978e-19)
(0.003 -2.82708e-20 3.3978e-19)
(0.003 3.46744e-20 3.80384e-19)
(0.003 -4.05279e-20 2.93152e-19)
(0.003 -6.00754e-20 2.09763e-19)
(0.003 -2.37021e-20 1.81742e-19)
(0.003 -1.33425e-19 1.77109e-19)
(0.003 -1.02579e-19 1.19192e-19)
(0.003 -4.99169e-20 1.23459e-19)
(0.003 -1.10591e-19 1.24019e-19)
(0.003 4.90568e-20 3.11064e-20)
(0.003 1.17372e-19 4.79513e-20)
(0.003 4.25749e-20 1.14763e-19)
(0.003 4.55157e-20 1.01456e-19)
(0.003 1.77439e-19 6.48985e-19)
(0.003 2.75999e-19 1.14736e-18)
(0.003 1.84191e-19 1.33885e-18)
(0.003 1.62379e-19 1.45053e-18)
(0.003 2.11446e-19 1.48191e-18)
(0.003 1.89384e-19 1.52907e-18)
(0.003 1.87267e-19 1.42969e-18)
(0.003 3.94483e-19 1.18375e-18)
(0.003 4.46781e-19 1.12637e-18)
(0.003 3.90945e-19 1.31755e-18)
(0.003 3.37235e-19 1.32204e-18)
(0.003 2.85577e-19 1.227e-18)
(0.003 2.97958e-19 1.07305e-18)
(0.003 2.90418e-19 9.64289e-19)
(0.003 4.08403e-19 1.04078e-18)
(0.003 5.27953e-19 1.03338e-18)
(0.003 2.66239e-19 7.90435e-19)
(0.003 1.10909e-19 6.24309e-19)
(0.003 2.14304e-19 5.30992e-19)
(0.003 2.41147e-19 3.70969e-19)
(0.003 7.34478e-20 3.64569e-19)
(0.003 8.37293e-20 5.27505e-19)
(0.003 2.48766e-19 6.2878e-19)
(0.003 2.71991e-19 6.22976e-19)
(0.003 1.93093e-19 6.52081e-19)
(0.003 1.33405e-19 4.95669e-19)
(0.003 7.67218e-20 3.59279e-19)
(0.003 -2.87061e-20 3.64962e-19)
(0.003 -2.07216e-20 3.27381e-19)
(0.003 -2.33912e-21 1.8251e-19)
(0.003 4.03542e-20 1.54902e-19)
(0.003 1.56897e-21 1.90704e-19)
(0.003 -8.72547e-20 1.30701e-19)
(0.003 -5.7475e-20 5.97896e-20)
(0.003 -6.30232e-20 8.6768e-20)
(0.003 -9.6973e-20 1.27209e-19)
(0.003 8.54312e-20 1.12742e-19)
(0.003 9.35869e-20 2.87e-20)
(0.003 -1.70334e-20 6.51856e-20)
(0.003 -3.39784e-20 1.13365e-19)
(0.003 3.04039e-21 7.04771e-19)
(0.003 1.78392e-19 1.22489e-18)
(0.003 1.06465e-19 1.32382e-18)
(0.003 8.84247e-20 1.46438e-18)
(0.003 1.57228e-19 1.536e-18)
(0.003 1.54298e-19 1.49223e-18)
(0.003 1.87257e-19 1.41839e-18)
(0.003 4.60376e-19 1.47058e-18)
(0.003 5.25824e-19 1.36448e-18)
(0.003 3.64015e-19 1.25734e-18)
(0.003 3.39166e-19 1.28466e-18)
(0.003 3.34504e-19 1.32818e-18)
(0.003 2.81677e-19 1.18976e-18)
(0.003 3.64976e-19 9.94081e-19)
(0.003 2.82737e-19 1.10467e-18)
(0.003 1.73431e-19 1.09062e-18)
(0.003 1.27165e-19 8.44047e-19)
(0.003 -2.46932e-20 6.16481e-19)
(0.003 6.85174e-20 5.09695e-19)
(0.003 1.71797e-19 3.93346e-19)
(0.003 1.65093e-19 3.77396e-19)
(0.003 1.72177e-19 5.1988e-19)
(0.003 2.68196e-19 6.31981e-19)
(0.003 2.89592e-19 6.36922e-19)
(0.003 1.72184e-19 6.53629e-19)
(0.003 1.40822e-19 5.05765e-19)
(0.003 1.22355e-19 3.8965e-19)
(0.003 -5.28536e-20 2.86994e-19)
(0.003 -2.0483e-19 2.276e-19)
(0.003 -7.975e-20 2.89774e-19)
(0.003 1.39991e-19 2.44126e-19)
(0.003 2.09677e-19 1.60037e-19)
(0.003 3.80137e-20 4.58686e-20)
(0.003 -1.52868e-20 1.1923e-19)
(0.003 -5.4763e-20 1.15999e-19)
(0.003 8.31474e-21 -6.51563e-21)
(0.003 1.77644e-20 8.15617e-20)
(0.003 2.46003e-20 1.72562e-20)
(0.003 1.35477e-19 3.47947e-20)
(0.003 8.22006e-20 1.22445e-19)
(0.003 7.06002e-20 8.63183e-19)
(0.003 1.74204e-19 1.40257e-18)
(0.003 1.57716e-19 1.3761e-18)
(0.003 6.36963e-20 1.43283e-18)
(0.003 1.34575e-19 1.58197e-18)
(0.003 1.59684e-19 1.58779e-18)
(0.003 2.74032e-19 1.48197e-18)
(0.003 5.12349e-19 1.46181e-18)
(0.003 4.88705e-19 1.44489e-18)
(0.003 3.66156e-19 1.38694e-18)
(0.003 2.8347e-19 1.3953e-18)
(0.003 2.17074e-19 1.35371e-18)
(0.003 2.43734e-19 1.21517e-18)
(0.003 3.77656e-19 1.12024e-18)
(0.003 2.29543e-19 1.11797e-18)
(0.003 1.30601e-19 1.01311e-18)
(0.003 1.13156e-19 7.48434e-19)
(0.003 9.00041e-20 5.37555e-19)
(0.003 1.12172e-19 4.67303e-19)
(0.003 9.51845e-20 4.49268e-19)
(0.003 2.24304e-19 4.72586e-19)
(0.003 2.18714e-19 5.94137e-19)
(0.003 1.38269e-19 6.80516e-19)
(0.003 1.58e-19 7.26407e-19)
(0.003 8.10782e-20 6.41284e-19)
(0.003 1.02564e-19 5.13074e-19)
(0.003 3.78722e-20 3.99697e-19)
(0.003 -1.75587e-20 2.29507e-19)
(0.003 -5.30927e-20 1.44821e-19)
(0.003 -1.89855e-20 1.36381e-19)
(0.003 1.16438e-19 2.11597e-19)
(0.003 6.92964e-20 1.43279e-19)
(0.003 2.82038e-20 -6.0176e-20)
(0.003 1.36559e-19 9.89636e-20)
(0.003 1.54713e-19 1.65872e-19)
(0.003 2.22203e-19 1.04897e-19)
(0.003 3.78715e-20 -1.07727e-20)
(0.003 -6.13556e-20 -3.10829e-20)
(0.003 2.73376e-20 1.62615e-19)
(0.003 5.04286e-20 1.52191e-19)
(0.003 2.14907e-19 7.69022e-19)
(0.003 1.77038e-19 1.30312e-18)
(0.003 1.73091e-19 1.43232e-18)
(0.003 2.04548e-19 1.53354e-18)
(0.003 2.24754e-19 1.63802e-18)
(0.003 2.74352e-19 1.56548e-18)
(0.003 3.77292e-19 1.56023e-18)
(0.003 3.27975e-19 1.64036e-18)
(0.003 3.09957e-19 1.58405e-18)
(0.003 3.40168e-19 1.51548e-18)
(0.003 2.2364e-19 1.43329e-18)
(0.003 1.48924e-19 1.30673e-18)
(0.003 1.71916e-19 1.19758e-18)
(0.003 3.08954e-19 1.11108e-18)
(0.003 3.04664e-19 1.0924e-18)
(0.003 1.84351e-19 1.02714e-18)
(0.003 8.32034e-20 7.67984e-19)
(0.003 1.08674e-19 5.45751e-19)
(0.003 2.66623e-19 4.73655e-19)
(0.003 2.25097e-19 3.93154e-19)
(0.003 1.44227e-19 4.51951e-19)
(0.003 7.55113e-20 6.51895e-19)
(0.003 -8.8717e-21 6.77716e-19)
(0.003 5.10102e-20 6.94491e-19)
(0.003 4.1368e-20 6.82262e-19)
(0.003 5.35346e-20 5.00818e-19)
(0.003 1.04849e-19 3.45599e-19)
(0.003 8.67703e-20 2.25876e-19)
(0.003 2.17667e-20 1.4421e-19)
(0.003 9.26312e-20 1.87851e-19)
(0.003 -3.77042e-20 3.14349e-19)
(0.003 -8.19225e-20 2.33617e-19)
(0.003 2.52417e-20 1.13216e-19)
(0.003 9.32491e-20 1.15249e-19)
(0.003 2.42797e-19 6.82599e-20)
(0.003 1.23616e-19 -1.27558e-19)
(0.003 5.8264e-20 -2.05947e-19)
(0.003 -3.33369e-20 6.82074e-20)
(0.003 -1.41313e-19 2.07299e-19)
(0.003 -4.04411e-20 1.35985e-19)
(0.003 -3.19322e-20 7.90376e-19)
(0.003 3.73342e-20 1.48192e-18)
(0.003 1.65061e-19 1.51793e-18)
(0.003 1.91306e-19 1.58479e-18)
(0.003 2.77896e-19 1.67786e-18)
(0.003 4.50368e-19 1.66757e-18)
(0.003 4.05608e-19 1.67132e-18)
(0.003 1.1215e-19 1.61913e-18)
(0.003 1.11015e-19 1.57216e-18)
(0.003 2.41191e-19 1.60101e-18)
(0.003 1.97863e-19 1.45589e-18)
(0.003 1.55701e-19 1.34262e-18)
(0.003 1.96269e-19 1.18658e-18)
(0.003 2.47601e-19 1.11397e-18)
(0.003 2.7384e-19 1.14002e-18)
(0.003 1.59918e-19 1.04839e-18)
(0.003 2.08211e-19 8.04244e-19)
(0.003 1.67746e-19 5.1013e-19)
(0.003 -2.666e-20 5.16768e-19)
(0.003 1.12248e-20 4.80322e-19)
(0.003 1.38051e-19 4.39733e-19)
(0.003 1.00323e-19 6.71481e-19)
(0.003 1.52713e-19 7.86121e-19)
(0.003 1.60721e-19 7.81217e-19)
(0.003 1.22381e-19 6.13758e-19)
(0.003 1.6557e-20 4.40447e-19)
(0.003 -2.32872e-20 3.74072e-19)
(0.003 2.95752e-20 2.51675e-19)
(0.003 7.92123e-20 1.1309e-19)
(0.003 1.88065e-20 2.40122e-19)
(0.003 -1.00436e-19 2.71114e-19)
(0.003 -1.33964e-19 2.67672e-19)
(0.003 1.77367e-20 2.12562e-19)
(0.003 6.13707e-20 7.28816e-20)
(0.003 2.85609e-20 -1.43423e-19)
(0.003 -4.28101e-20 -3.58892e-19)
(0.003 8.11924e-20 -2.03141e-19)
(0.003 6.63328e-20 9.6151e-20)
(0.003 -2.60253e-20 2.10683e-19)
(0.003 -8.11846e-21 9.34546e-20)
(0.003 -2.01366e-19 9.19903e-19)
(0.003 -8.70011e-22 1.39841e-18)
(0.003 2.02805e-19 1.52768e-18)
(0.003 3.4259e-19 1.69829e-18)
(0.003 2.41297e-19 1.82514e-18)
(0.003 2.27735e-19 1.80651e-18)
(0.003 3.40778e-19 1.74911e-18)
(0.003 1.93655e-19 1.63658e-18)
(0.003 1.44606e-19 1.45309e-18)
(0.003 1.46938e-19 1.48445e-18)
(0.003 2.27442e-19 1.47934e-18)
(0.003 1.39204e-19 1.32777e-18)
(0.003 1.11257e-19 1.22464e-18)
(0.003 2.03653e-19 1.20252e-18)
(0.003 2.1839e-19 1.1441e-18)
(0.003 2.39804e-19 1.05129e-18)
(0.003 2.10287e-19 7.89424e-19)
(0.003 1.72598e-19 5.75336e-19)
(0.003 -1.30416e-19 4.08677e-19)
(0.003 -1.23177e-19 3.70777e-19)
(0.003 1.68389e-19 5.76432e-19)
(0.003 2.62909e-19 7.59469e-19)
(0.003 2.05633e-19 8.90759e-19)
(0.003 1.14844e-19 8.51998e-19)
(0.003 1.96924e-19 6.46204e-19)
(0.003 4.67958e-20 4.31967e-19)
(0.003 -2.08071e-19 3.03973e-19)
(0.003 -1.44969e-19 2.01992e-19)
(0.003 3.88848e-20 2.39214e-19)
(0.003 2.78817e-20 2.73609e-19)
(0.003 -1.44437e-20 2.34596e-19)
(0.003 -7.79736e-20 2.79494e-19)
(0.003 2.58268e-20 2.3831e-19)
(0.003 -1.18508e-20 5.96221e-20)
(0.003 -9.15307e-20 -8.82461e-20)
(0.003 -5.18087e-21 -3.65489e-19)
(0.003 6.10229e-21 -3.88942e-19)
(0.003 1.45779e-19 -1.88558e-19)
(0.003 1.84434e-19 8.95667e-21)
(0.003 6.51005e-20 -6.26297e-20)
(0.003 5.93055e-20 9.4563e-19)
(0.003 1.63525e-19 1.51421e-18)
(0.003 2.35606e-19 1.70365e-18)
(0.003 2.68296e-19 1.79518e-18)
(0.003 1.91489e-19 1.80939e-18)
(0.003 2.02671e-19 1.78723e-18)
(0.003 1.89253e-19 1.78491e-18)
(0.003 2.00124e-19 1.67084e-18)
(0.003 1.20698e-19 1.54756e-18)
(0.003 1.18426e-19 1.42711e-18)
(0.003 2.61471e-19 1.37304e-18)
(0.003 2.17979e-19 1.33562e-18)
(0.003 1.44265e-19 1.20031e-18)
(0.003 1.16152e-19 1.08014e-18)
(0.003 1.53774e-19 1.16065e-18)
(0.003 3.14495e-19 1.14858e-18)
(0.003 2.39008e-19 8.46663e-19)
(0.003 1.04323e-19 5.38342e-19)
(0.003 8.12993e-20 4.08241e-19)
(0.003 8.751e-20 4.66265e-19)
(0.003 1.88329e-19 6.33265e-19)
(0.003 2.72526e-19 8.17401e-19)
(0.003 1.02294e-19 9.26128e-19)
(0.003 3.45538e-20 9.12245e-19)
(0.003 5.72362e-20 6.13224e-19)
(0.003 -4.97302e-20 4.02079e-19)
(0.003 -1.03573e-19 2.85035e-19)
(0.003 -7.64249e-21 2.32192e-19)
(0.003 3.57333e-20 2.26303e-19)
(0.003 -4.51777e-20 3.21896e-19)
(0.003 -9.47711e-20 3.44627e-19)
(0.003 -3.88171e-20 2.27273e-19)
(0.003 -1.82452e-21 1.07887e-19)
(0.003 -4.46682e-20 2.92891e-20)
(0.003 -1.45461e-19 1.16494e-19)
(0.003 -9.09769e-20 -1.54435e-19)
(0.003 -2.129e-20 -4.75493e-19)
(0.003 1.29525e-19 -2.21044e-19)
(0.003 2.28782e-19 -1.58479e-19)
(0.003 2.0421e-19 -1.92557e-19)
(0.003 2.22241e-19 9.99426e-19)
(0.003 2.10194e-19 1.59594e-18)
(0.003 1.68295e-19 1.7119e-18)
(0.003 1.69722e-19 1.72686e-18)
(0.003 2.43284e-19 1.80543e-18)
(0.003 1.92085e-19 1.8556e-18)
(0.003 1.37092e-19 1.73942e-18)
(0.003 2.53823e-19 1.67499e-18)
(0.003 1.96922e-19 1.47294e-18)
(0.003 9.1959e-20 1.47975e-18)
(0.003 1.33499e-19 1.44153e-18)
(0.003 1.62629e-19 1.36693e-18)
(0.003 2.05873e-19 1.26566e-18)
(0.003 1.90199e-19 1.093e-18)
(0.003 1.57968e-19 1.10995e-18)
(0.003 9.59963e-20 1.12303e-18)
(0.003 1.09474e-19 8.63842e-19)
(0.003 1.53365e-19 6.15605e-19)
(0.003 3.13177e-19 5.19351e-19)
(0.003 2.9401e-19 5.39283e-19)
(0.003 1.48098e-19 6.25604e-19)
(0.003 -8.70351e-21 7.54058e-19)
(0.003 -6.464e-20 8.08115e-19)
(0.003 -3.16174e-20 8.86079e-19)
(0.003 -8.363e-20 7.22353e-19)
(0.003 -9.5787e-20 4.52403e-19)
(0.003 -1.00912e-20 3.20391e-19)
(0.003 5.42662e-20 2.84376e-19)
(0.003 2.69047e-20 2.13576e-19)
(0.003 -9.3795e-20 2.71683e-19)
(0.003 2.30215e-21 2.95142e-19)
(0.003 3.51048e-20 2.41833e-19)
(0.003 -9.06738e-20 8.63291e-20)
(0.003 2.75204e-20 -3.69332e-21)
(0.003 4.26742e-20 1.5646e-19)
(0.003 -1.11537e-19 -7.91483e-20)
(0.003 -1.72221e-19 -4.56178e-19)
(0.003 4.72728e-20 -2.26554e-19)
(0.003 1.94212e-19 -1.75605e-19)
(0.003 1.9065e-19 -3.18967e-19)
(0.003 2.49118e-19 1.00762e-18)
(0.003 2.94306e-19 1.59446e-18)
(0.003 2.24882e-19 1.70897e-18)
(0.003 2.38222e-19 1.83391e-18)
(0.003 1.09475e-19 1.85736e-18)
(0.003 9.76879e-21 1.84002e-18)
(0.003 1.54045e-19 1.78525e-18)
(0.003 1.49493e-19 1.70589e-18)
(0.003 1.73266e-19 1.59347e-18)
(0.003 1.75489e-19 1.46266e-18)
(0.003 4.93452e-20 1.34866e-18)
(0.003 1.1602e-19 1.31669e-18)
(0.003 2.42936e-19 1.29588e-18)
(0.003 2.7251e-19 1.21321e-18)
(0.003 1.67151e-19 1.14969e-18)
(0.003 1.78214e-20 1.04342e-18)
(0.003 5.94745e-20 7.88548e-19)
(0.003 1.28084e-19 6.17918e-19)
(0.003 1.9958e-19 6.16969e-19)
(0.003 2.24354e-19 6.50485e-19)
(0.003 1.77892e-19 6.5726e-19)
(0.003 6.87488e-20 6.93219e-19)
(0.003 7.9734e-20 7.34564e-19)
(0.003 1.34996e-20 7.98939e-19)
(0.003 -1.94522e-19 6.69536e-19)
(0.003 -1.61516e-19 4.39762e-19)
(0.003 -8.44301e-20 3.31387e-19)
(0.003 2.11831e-20 3.36685e-19)
(0.003 -6.88754e-21 2.73562e-19)
(0.003 -1.27786e-19 2.22576e-19)
(0.003 -2.20336e-21 3.0627e-19)
(0.003 5.69986e-20 2.63594e-19)
(0.003 1.42979e-20 1.44985e-19)
(0.003 8.16277e-20 1.21616e-19)
(0.003 1.01196e-19 7.5116e-20)
(0.003 -8.90153e-20 -2.94719e-19)
(0.003 -1.61406e-19 -4.39054e-19)
(0.003 -8.75913e-20 -1.93152e-19)
(0.003 -7.85246e-20 -1.10754e-19)
(0.003 -1.69537e-20 -2.17546e-19)
(0.003 -1.09556e-20 1.07157e-18)
(0.003 1.84286e-19 1.68725e-18)
(0.003 2.52263e-19 1.74642e-18)
(0.003 1.01788e-19 1.85219e-18)
(0.003 -4.0028e-20 1.8568e-18)
(0.003 -6.9359e-21 1.81304e-18)
(0.003 1.87954e-19 1.76768e-18)
(0.003 2.581e-19 1.60947e-18)
(0.003 1.69128e-19 1.56178e-18)
(0.003 4.491e-20 1.52577e-18)
(0.003 -4.24791e-22 1.39809e-18)
(0.003 2.13344e-19 1.31361e-18)
(0.003 2.8015e-19 1.35242e-18)
(0.003 2.12202e-19 1.25913e-18)
(0.003 1.11332e-19 1.2007e-18)
(0.003 9.0824e-20 1.06155e-18)
(0.003 1.11788e-19 8.64062e-19)
(0.003 2.02549e-19 6.91933e-19)
(0.003 2.43874e-19 6.0892e-19)
(0.003 1.56242e-19 6.11512e-19)
(0.003 2.22757e-19 6.8476e-19)
(0.003 1.20412e-19 7.53141e-19)
(0.003 4.63932e-20 7.73167e-19)
(0.003 8.48082e-22 7.8914e-19)
(0.003 -1.55566e-19 6.3095e-19)
(0.003 -7.62408e-20 3.80715e-19)
(0.003 1.26659e-20 2.46017e-19)
(0.003 -2.04895e-20 3.77551e-19)
(0.003 -6.44459e-20 3.4407e-19)
(0.003 -8.18426e-20 2.56293e-19)
(0.003 -2.05918e-19 3.55531e-19)
(0.003 -1.02798e-19 2.73041e-19)
(0.003 5.06309e-20 1.83944e-19)
(0.003 -2.31197e-20 1.34041e-19)
(0.003 -3.15676e-20 2.92404e-20)
(0.003 4.1592e-21 -3.70831e-19)
(0.003 -6.8195e-20 -5.32333e-19)
(0.003 -1.50894e-19 -3.43622e-19)
(0.003 -1.67118e-19 -3.39688e-19)
(0.003 -1.72632e-19 -3.6084e-19)
(0.003 -2.01648e-19 1.09578e-18)
(0.003 -1.72168e-19 1.64559e-18)
(0.003 7.1e-20 1.79069e-18)
(0.003 3.17202e-20 1.78918e-18)
(0.003 5.37134e-20 1.82198e-18)
(0.003 4.55431e-20 1.83269e-18)
(0.003 1.36673e-19 1.82129e-18)
(0.003 2.6782e-19 1.67543e-18)
(0.003 1.26113e-19 1.58352e-18)
(0.003 -1.85126e-20 1.50985e-18)
(0.003 1.54914e-19 1.4036e-18)
(0.003 2.21794e-19 1.40423e-18)
(0.003 1.49812e-19 1.42981e-18)
(0.003 6.86668e-20 1.27504e-18)
(0.003 9.59114e-20 1.14055e-18)
(0.003 8.66883e-20 1.06789e-18)
(0.003 1.44907e-19 8.30285e-19)
(0.003 3.038e-19 6.67301e-19)
(0.003 2.46935e-19 7.36864e-19)
(0.003 1.60628e-19 6.67879e-19)
(0.003 2.35211e-19 7.54747e-19)
(0.003 9.64531e-20 7.65032e-19)
(0.003 -1.34505e-19 8.25639e-19)
(0.003 -2.26778e-19 7.71342e-19)
(0.003 -1.74545e-19 5.27904e-19)
(0.003 6.66316e-20 4.03484e-19)
(0.003 2.19869e-19 2.96916e-19)
(0.003 5.2073e-21 3.29636e-19)
(0.003 -1.45414e-19 2.75979e-19)
(0.003 -4.76586e-20 1.76141e-19)
(0.003 -8.91127e-20 2.61248e-19)
(0.003 -1.32315e-19 2.9142e-19)
(0.003 -5.99589e-20 2.07986e-19)
(0.003 -3.32561e-20 1.05682e-19)
(0.003 -1.25645e-20 6.29982e-20)
(0.003 2.42262e-20 -2.65993e-19)
(0.003 -6.4038e-20 -5.12357e-19)
(0.003 -1.1924e-19 -3.48849e-19)
(0.003 -1.52182e-19 -3.30784e-19)
(0.003 -2.11135e-19 -3.85734e-19)
(0.003 -5.74316e-20 1.06138e-18)
(0.003 -2.42665e-19 1.67122e-18)
(0.003 -1.7551e-19 1.87456e-18)
(0.003 -1.42313e-19 1.87342e-18)
(0.003 1.83054e-20 1.90545e-18)
(0.003 6.37067e-20 1.84622e-18)
(0.003 2.95719e-20 1.783e-18)
(0.003 8.97458e-20 1.70891e-18)
(0.003 8.53028e-20 1.61425e-18)
(0.003 1.48951e-19 1.41506e-18)
(0.003 2.14771e-19 1.44776e-18)
(0.003 1.22768e-19 1.50316e-18)
(0.003 -2.58747e-20 1.4535e-18)
(0.003 -8.17273e-22 1.30936e-18)
(0.003 1.08254e-19 1.22936e-18)
(0.003 1.11156e-19 1.08292e-18)
(0.003 1.4476e-19 7.99026e-19)
(0.003 1.57288e-19 6.86126e-19)
(0.003 1.54187e-19 6.87964e-19)
(0.003 1.70251e-19 6.67553e-19)
(0.003 1.15133e-19 7.66836e-19)
(0.003 5.31139e-20 8.42364e-19)
(0.003 -6.91026e-20 7.93572e-19)
(0.003 -3.10103e-19 6.05696e-19)
(0.003 -2.30493e-19 4.03496e-19)
(0.003 -9.20499e-21 4.34417e-19)
(0.003 8.36938e-20 3.44476e-19)
(0.003 5.20692e-20 2.07249e-19)
(0.003 5.60041e-21 2.87865e-19)
(0.003 9.64555e-21 2.21745e-19)
(0.003 -2.59075e-20 2.42256e-19)
(0.003 1.37481e-20 1.97124e-19)
(0.003 -4.35311e-20 1.42585e-19)
(0.003 -1.13671e-19 1.4219e-19)
(0.003 -1.24856e-19 2.539e-20)
(0.003 -1.06227e-19 -2.94975e-19)
(0.003 -8.93908e-20 -4.06656e-19)
(0.003 -1.74708e-19 -2.35372e-19)
(0.003 -1.63832e-19 -2.79747e-19)
(0.003 -7.38128e-20 -3.5943e-19)
(0.003 -1.40613e-19 9.99406e-19)
(0.003 -1.19994e-19 1.60101e-18)
(0.003 -3.65922e-20 1.84939e-18)
(0.003 -1.74215e-19 1.87248e-18)
(0.003 -2.00026e-19 1.92365e-18)
(0.003 -4.38391e-20 1.89072e-18)
(0.003 -4.01342e-21 1.91213e-18)
(0.003 2.59571e-20 1.84841e-18)
(0.003 9.81137e-20 1.717e-18)
(0.003 1.94177e-19 1.50823e-18)
(0.003 1.63642e-19 1.43896e-18)
(0.003 1.12385e-19 1.44145e-18)
(0.003 -6.93245e-20 1.42546e-18)
(0.003 -5.57012e-20 1.39477e-18)
(0.003 6.67619e-20 1.16449e-18)
(0.003 1.15043e-19 9.24285e-19)
(0.003 1.13189e-19 7.20864e-19)
(0.003 -4.43427e-20 7.18961e-19)
(0.003 1.07267e-19 8.11895e-19)
(0.003 2.41844e-19 7.38388e-19)
(0.003 1.75626e-19 8.19387e-19)
(0.003 -1.36983e-20 7.35431e-19)
(0.003 -2.14151e-19 6.58755e-19)
(0.003 -2.58335e-19 4.78816e-19)
(0.003 -1.30074e-19 3.88945e-19)
(0.003 -5.84012e-20 4.81105e-19)
(0.003 -5.0907e-20 3.69461e-19)
(0.003 7.03948e-21 3.35595e-19)
(0.003 1.70312e-20 2.58738e-19)
(0.003 2.1706e-20 1.96103e-19)
(0.003 3.98622e-20 1.59281e-19)
(0.003 1.45022e-20 1.69155e-19)
(0.003 -1.0225e-19 1.45677e-19)
(0.003 -2.11508e-19 1.92627e-19)
(0.003 -3.35629e-19 5.12265e-20)
(0.003 -2.82251e-19 -2.50977e-19)
(0.003 -1.62519e-20 -3.4426e-19)
(0.003 3.67604e-20 -2.49298e-19)
(0.003 -9.22663e-20 -3.28165e-19)
(0.003 -8.2458e-20 -4.66981e-19)
(0.003 -1.74052e-19 9.38805e-19)
(0.003 -2.00151e-19 1.64753e-18)
(0.003 -1.59318e-19 1.94872e-18)
(0.003 -3.36206e-20 1.87648e-18)
(0.003 -3.40871e-20 1.83972e-18)
(0.003 -8.15437e-20 1.892e-18)
(0.003 -1.82541e-19 1.87907e-18)
(0.003 -2.10715e-19 1.81131e-18)
(0.003 4.69132e-20 1.77786e-18)
(0.003 1.99363e-19 1.61232e-18)
(0.003 9.87389e-20 1.5291e-18)
(0.003 7.96394e-20 1.46917e-18)
(0.003 1.09549e-19 1.36925e-18)
(0.003 -4.66408e-21 1.3467e-18)
(0.003 3.88636e-20 1.27268e-18)
(0.003 4.22504e-20 1.08032e-18)
(0.003 7.48771e-20 8.3831e-19)
(0.003 1.38566e-19 5.58346e-19)
(0.003 2.67509e-19 6.50549e-19)
(0.003 2.37732e-19 7.50861e-19)
(0.003 2.85196e-20 8.73888e-19)
(0.003 -1.92014e-19 8.36248e-19)
(0.003 -1.4545e-19 6.54178e-19)
(0.003 -5.76069e-20 4.99703e-19)
(0.003 -1.19647e-19 4.05333e-19)
(0.003 -1.86051e-19 4.30831e-19)
(0.003 -9.58248e-20 4.0736e-19)
(0.003 -9.80191e-20 3.40442e-19)
(0.003 -3.23888e-20 2.55129e-19)
(0.003 1.81347e-20 1.87238e-19)
(0.003 1.28802e-19 1.73609e-19)
(0.003 -9.70578e-20 1.42234e-19)
(0.003 -1.9982e-19 1.02348e-19)
(0.003 -1.47099e-19 1.41395e-19)
(0.003 -2.30532e-19 1.00469e-19)
(0.003 -2.02622e-19 -4.50205e-20)
(0.003 -1.15219e-19 -2.28875e-19)
(0.003 -3.7656e-20 -2.7066e-19)
(0.003 8.46497e-20 -3.64552e-19)
(0.003 1.33033e-19 -4.31969e-19)
(0.003 -6.04841e-20 9.88688e-19)
(0.003 -1.74034e-19 1.56347e-18)
(0.003 -1.84143e-19 1.77046e-18)
(0.003 4.47224e-20 1.88355e-18)
(0.003 4.42727e-20 1.87162e-18)
(0.003 -1.56692e-19 1.86671e-18)
(0.003 -2.94677e-19 1.88412e-18)
(0.003 -1.95692e-19 1.86273e-18)
(0.003 4.95406e-20 1.81191e-18)
(0.003 8.75463e-20 1.68943e-18)
(0.003 -1.29277e-20 1.52186e-18)
(0.003 1.07631e-19 1.47697e-18)
(0.003 1.6207e-19 1.42538e-18)
(0.003 1.3918e-19 1.33058e-18)
(0.003 1.03087e-19 1.24205e-18)
(0.003 -6.37444e-21 1.06858e-18)
(0.003 -3.06157e-20 9.21992e-19)
(0.003 1.43329e-19 7.36828e-19)
(0.003 2.363e-19 7.46136e-19)
(0.003 5.77479e-20 7.1116e-19)
(0.003 -1.65907e-19 7.61966e-19)
(0.003 -1.6864e-19 6.97315e-19)
(0.003 -4.76e-20 6.96223e-19)
(0.003 -4.88171e-21 5.71876e-19)
(0.003 -2.73629e-20 3.94066e-19)
(0.003 -1.57868e-19 3.524e-19)
(0.003 -3.079e-21 3.77205e-19)
(0.003 1.68428e-20 3.38148e-19)
(0.003 -5.34342e-20 2.42715e-19)
(0.003 1.06879e-20 1.537e-19)
(0.003 -2.62085e-20 1.24331e-19)
(0.003 -8.71391e-20 4.61607e-20)
(0.003 -1.40199e-20 8.7322e-20)
(0.003 1.15382e-20 1.96503e-19)
(0.003 -3.20958e-20 9.53757e-20)
(0.003 -1.64738e-19 4.29828e-21)
(0.003 -1.41265e-19 -2.59499e-20)
(0.003 -1.61808e-19 -1.0337e-19)
(0.003 3.31808e-20 -2.25731e-19)
(0.003 1.52145e-19 -2.87467e-19)
(0.003 9.25053e-20 1.03481e-18)
(0.003 1.40217e-19 1.61261e-18)
(0.003 6.65746e-20 1.74636e-18)
(0.003 -7.96674e-20 1.81032e-18)
(0.003 -1.53862e-19 1.88543e-18)
(0.003 -1.64231e-19 1.84176e-18)
(0.003 -2.08002e-19 1.78698e-18)
(0.003 -2.04101e-19 1.78811e-18)
(0.003 -1.1284e-19 1.8716e-18)
(0.003 2.80465e-20 1.78229e-18)
(0.003 1.50992e-19 1.51374e-18)
(0.003 1.43135e-19 1.50858e-18)
(0.003 2.07976e-19 1.3764e-18)
(0.003 2.16119e-19 1.36586e-18)
(0.003 3.75574e-20 1.34007e-18)
(0.003 -1.05166e-19 1.12055e-18)
(0.003 -1.34059e-19 8.12251e-19)
(0.003 -1.98705e-19 6.067e-19)
(0.003 -1.3741e-19 8.16948e-19)
(0.003 1.49761e-21 7.31966e-19)
(0.003 -7.40856e-20 7.06727e-19)
(0.003 -1.69799e-20 7.70265e-19)
(0.003 -1.0798e-20 7.8214e-19)
(0.003 4.07203e-20 5.39977e-19)
(0.003 1.08219e-19 3.52212e-19)
(0.003 -1.69891e-20 3.24747e-19)
(0.003 4.79808e-21 4.40243e-19)
(0.003 5.6829e-20 3.55773e-19)
(0.003 3.68654e-20 1.91386e-19)
(0.003 4.14411e-21 9.48417e-20)
(0.003 -8.05947e-20 1.4963e-19)
(0.003 -4.41724e-20 8.18857e-20)
(0.003 1.51666e-20 6.14227e-20)
(0.003 -3.48467e-20 1.2018e-19)
(0.003 5.2202e-20 1.33389e-19)
(0.003 4.29171e-20 1.05821e-19)
(0.003 1.49864e-20 2.17555e-20)
(0.003 -8.34012e-20 -1.61622e-19)
(0.003 -1.3413e-19 -3.22163e-19)
(0.003 -9.93372e-20 -3.20206e-19)
(0.003 2.53287e-19 9.74346e-19)
(0.003 2.32689e-19 1.54293e-18)
(0.003 1.63331e-20 1.72171e-18)
(0.003 -1.21475e-19 1.77359e-18)
(0.003 -9.26935e-20 1.77809e-18)
(0.003 -6.15499e-22 1.79096e-18)
(0.003 -2.21064e-20 1.78984e-18)
(0.003 -2.23966e-19 1.7696e-18)
(0.003 -2.34071e-19 1.80823e-18)
(0.003 -5.18844e-20 1.85984e-18)
(0.003 2.074e-19 1.71912e-18)
(0.003 1.46327e-19 1.60944e-18)
(0.003 1.75746e-19 1.4836e-18)
(0.003 1.70215e-19 1.42134e-18)
(0.003 -3.83637e-20 1.29174e-18)
(0.003 -1.15076e-19 1.03414e-18)
(0.003 -1.10464e-19 8.13246e-19)
(0.003 -1.6158e-19 6.26982e-19)
(0.003 -2.17647e-19 7.79827e-19)
(0.003 -1.04553e-19 7.79181e-19)
(0.003 -1.41883e-19 7.32598e-19)
(0.003 -1.43118e-19 7.03203e-19)
(0.003 -5.01799e-20 7.13692e-19)
(0.003 -1.13592e-20 5.87931e-19)
(0.003 1.5231e-19 4.74918e-19)
(0.003 1.9746e-19 3.75012e-19)
(0.003 -2.95111e-20 3.17285e-19)
(0.003 5.91639e-20 3.0063e-19)
(0.003 1.54983e-19 1.91566e-19)
(0.003 7.77886e-20 1.09742e-19)
(0.003 -2.92575e-20 9.50272e-20)
(0.003 -9.80584e-20 2.73345e-20)
(0.003 -6.95349e-20 4.28304e-20)
(0.003 -6.27272e-20 1.16403e-19)
(0.003 7.04298e-20 1.96434e-19)
(0.003 2.35196e-19 1.23576e-19)
(0.003 1.08485e-19 -4.96522e-20)
(0.003 8.05074e-21 -3.00031e-19)
(0.003 -2.28339e-19 -3.47998e-19)
(0.003 -3.02512e-19 -2.04666e-19)
(0.003 2.43066e-19 9.38376e-19)
(0.003 2.61286e-19 1.53345e-18)
(0.003 -1.11232e-20 1.73298e-18)
(0.003 7.03134e-21 1.70439e-18)
(0.003 1.17236e-19 1.75554e-18)
(0.003 1.30711e-19 1.76333e-18)
(0.003 2.83083e-20 1.79395e-18)
(0.003 -1.21105e-19 1.73194e-18)
(0.003 -1.65078e-19 1.74714e-18)
(0.003 -1.77621e-19 1.89648e-18)
(0.003 -4.32441e-20 1.8317e-18)
(0.003 2.7479e-20 1.63526e-18)
(0.003 -2.10256e-20 1.50026e-18)
(0.003 -1.93155e-19 1.4565e-18)
(0.003 -1.87677e-19 1.28225e-18)
(0.003 1.50561e-20 1.08076e-18)
(0.003 -1.12606e-19 8.58899e-19)
(0.003 -1.93504e-19 6.35962e-19)
(0.003 -2.33511e-19 7.66942e-19)
(0.003 -1.0012e-19 8.21952e-19)
(0.003 -7.07651e-20 6.91331e-19)
(0.003 -4.75959e-20 6.66027e-19)
(0.003 4.4817e-20 7.16251e-19)
(0.003 6.34131e-20 5.76286e-19)
(0.003 7.10885e-20 3.71257e-19)
(0.003 1.31851e-19 4.05345e-19)
(0.003 6.35492e-20 3.4e-19)
(0.003 7.97959e-20 3.36353e-19)
(0.003 7.2181e-20 2.62746e-19)
(0.003 2.43466e-20 3.81572e-20)
(0.003 1.02779e-19 -8.19086e-20)
(0.003 8.7736e-20 -1.2427e-20)
(0.003 -7.17229e-20 3.0278e-20)
(0.003 -2.82648e-21 6.80884e-20)
(0.003 1.45953e-19 1.97744e-19)
(0.003 2.05061e-19 1.06235e-19)
(0.003 1.11699e-19 -2.25913e-19)
(0.003 8.94465e-20 -3.33629e-19)
(0.003 5.42717e-20 -2.15294e-19)
(0.003 -7.10046e-20 -1.3138e-19)
(0.003 -7.63318e-20 1.03396e-18)
(0.003 -3.32297e-20 1.64541e-18)
(0.003 7.88959e-20 1.70188e-18)
(0.003 3.78892e-20 1.67462e-18)
(0.003 2.82699e-20 1.72065e-18)
(0.003 8.25401e-20 1.84904e-18)
(0.003 6.84494e-20 1.80676e-18)
(0.003 1.08163e-19 1.69161e-18)
(0.003 -7.60627e-20 1.71351e-18)
(0.003 -1.91396e-19 1.77719e-18)
(0.003 -1.91209e-19 1.81525e-18)
(0.003 -1.75807e-19 1.68703e-18)
(0.003 -2.7088e-19 1.55506e-18)
(0.003 -2.43973e-19 1.29191e-18)
(0.003 -1.56502e-19 1.11113e-18)
(0.003 -1.40035e-19 1.03555e-18)
(0.003 -1.47944e-19 9.4593e-19)
(0.003 -1.03051e-19 7.49283e-19)
(0.003 -1.88477e-19 7.09558e-19)
(0.003 -2.03606e-19 8.59326e-19)
(0.003 -6.32752e-20 6.86471e-19)
(0.003 5.71568e-20 6.50512e-19)
(0.003 1.19178e-19 7.38493e-19)
(0.003 1.32923e-19 6.05938e-19)
(0.003 1.63731e-19 4.98213e-19)