/*--------------------------------*- C++ -*----------------------------------*\
| =========                 |                                                 |
| \\      /  F ield         | OpenFOAM: The Open Source CFD Toolbox           |
|  \\    /   O peration     | Version:  v2012                                 |
|   \\  /    A nd           | Website:  www.openfoam.com                      |
|    \\/     M anipulation  |                                                 |
\*---------------------------------------------------------------------------*/
FoamFile
{
    version     2.0;
    format      ascii;
    class       volScalarField;
    location    "350/bottomWater";
    object      p;
}
// * * * * * * * * * * * * * * * * * * * * * * * * * * * * * * * * * * * * * //

dimensions      [1 -1 -2 0 0 0 0];


internalField   nonuniform List<scalar> 
1460
(
353.54867
353.5497
353.54834
353.54417
353.54453
353.56279
353.56101
353.5677
353.5673
353.54844
353.55194
353.55811
353.55411
353.56485
353.55678
353.53934
353.54148
353.53701
353.53836
353.54028
353.53811
353.53447
353.54537
353.54027
353.54769
353.54739
353.54271
353.54051
353.5395
353.53911
274.36265
274.35629
274.36056
274.36543
274.37634
274.41012
274.4251
274.42334
274.40634
274.37937
274.36421
274.35283
274.34566
274.38471
274.4322
274.42476
274.4233
274.41285
274.39546
274.3675
274.37194
274.38829
274.44121
274.43761
274.455
274.4654
274.45287
274.44302
274.4203
274.41208
196.38878
196.37103
196.3714
196.34045
196.34863
196.31065
196.32017
196.31533
196.2936
196.32181
196.30629
196.36834
196.31663
196.29401
196.2733
196.30798
196.31106
196.31469
196.3133
196.32773
196.3211
196.29806
196.28225
196.31766
196.30494
196.30617
196.31071
196.31382
196.31805
196.32725
117.66416
117.67002
117.66492
117.66116
117.65161
117.65449
117.65739
117.67043
117.67073
117.65002
117.67327
117.67454
117.66184
117.631
117.62942
117.65099
117.66226
117.64503
117.61905
117.67397
117.67726
117.64189
117.66184
117.67565
117.71504
117.70433
117.68328
117.67107
117.64953
117.63155
39.276047
39.277666
39.268478
39.264846
39.244881
39.246973
39.240021
39.236147
39.235088
39.255872
39.24907
39.279275
39.263803
39.279802
39.264344
39.237042
39.238565
39.24968
39.269668
39.264026
39.261006
39.265138
39.252786
39.231798
39.246109
39.248603
39.234243
39.245005
39.238688
39.266329
353.53941
353.53544
353.53595
353.54113
353.5467
353.55288
353.58107
353.56294
353.56347
353.55219
353.54923
353.5528
353.54738
353.55638
353.53001
353.5371
353.53399
353.53297
353.53169
353.54134
353.53625
353.53223
353.53886
353.53012
353.52964
353.53184
353.53972
353.54706
353.53719
353.54219
274.36365
274.36925
274.37066
274.37017
274.36737
274.36765
274.39858
274.35832
274.3432
274.34734
274.38718
274.34212
274.37667
274.40095
274.38348
274.38174
274.3765
274.369
274.36437
274.36191
274.36232
274.37355
274.40322
274.404
274.38927
274.41537
274.434
274.42614
274.38525
274.37435
196.36398
196.34354
196.34828
196.37011
196.3292
196.32631
196.27588
196.32213
196.30882
196.34131
196.31056
196.33135
196.33328
196.2837
196.32447
196.34162
196.34255
196.3364
196.33115
196.35143
196.33261
196.31169
196.29432
196.33173
196.33578
196.3123
196.28492
196.28598
196.28923
196.31417
117.63544
117.60629
117.62096
117.63511
117.64038
117.61461
117.61122
117.58675
117.66002
117.68222
117.62558
117.67108
117.59657
117.63867
117.61489
117.66718
117.66836
117.66421
117.65559
117.67735
117.67141
117.61805
117.6338
117.64578
117.67433
117.64474
117.63063
117.62998
117.60298
117.65112
39.266904
39.283353
39.269892
39.250083
39.259291
39.283864
39.271856
39.259484
39.2512
39.266254
39.26117
39.268278
39.272039
39.26735
39.252015
39.236383
39.248602
39.255903
39.265132
39.272679
39.267741
39.274126
39.267131
39.248821
39.240651
39.240652
39.24908
39.265623
39.258745
39.25605
353.55848
353.57173
353.56939
353.55843
353.58
353.56444
353.58357
353.57022
353.57533
353.56711
353.57456
353.5387
353.5445
353.54559
353.54663
353.53448
353.54109
353.52593
353.55292
353.54207
353.54861
353.54913
353.54531
353.54117
353.55843
353.55285
353.5409
353.53804
353.53883
353.54404
274.38993
274.4251
274.42513
274.40977
274.4143
274.34966
274.32673
274.34566
274.34674
274.39696
274.42335
274.36341
274.37148
274.35643
274.36315
274.37388
274.38656
274.39018
274.41123
274.37313
274.36487
274.36407
274.35328
274.38276
274.43939
274.43508
274.37951
274.35686
274.35596
274.37142
196.32767
196.28784
196.31604
196.31147
196.2866
196.31937
196.34765
196.34794
196.31467
196.28821
196.27467
196.31038
196.32579
196.34771
196.34845
196.34392
196.32363
196.31363
196.26789
196.30969
196.31998
196.35787
196.30275
196.31062
196.29824
196.29174
196.2988
196.3143
196.34063
196.36633
117.64378
117.62881
117.66968
117.64132
117.62486
117.61181
117.67843
117.68417
117.64942
117.6429
117.66428
117.65588
117.66683
117.69144
117.68777
117.67672
117.65833
117.64175
117.65972
117.63607
117.68998
117.68578
117.66919
117.63411
117.66891
117.63601
117.63516
117.65493
117.66769
117.68496
39.253467
39.266852
39.24835
39.246449
39.272367
39.288259
39.283652
39.290127
39.264183
39.269839
39.255882
39.252287
39.248234
39.237284
39.23979
39.241193
39.241943
39.262123
39.270776
39.277489
39.277532
39.290638
39.27282
39.269299
39.253516
39.27962
39.272431
39.27495
39.277384
39.287749
353.55488
353.56782
353.56502
353.57445
353.57729
353.57226
353.58121
353.56631
353.57642
353.55771
353.55849
353.54802
353.53977
353.54454
353.54348
353.54261
353.54271
353.53846
353.54605
353.54142
353.52531
353.53442
353.54302
353.52857
353.54677
353.52209
353.53354
353.53544
353.53624
353.53499
274.38095
274.40496
274.42016
274.40806
274.36371
274.33873
274.34482
274.34925
274.39987
274.42464
274.44092
274.40204
274.37138
274.36946
274.38815
274.41486
274.43552
274.43356
274.47966
274.43099
274.37799
274.37627
274.364
274.36996
274.4032
274.38191
274.35656
274.36339
274.36409
274.37416
196.35989
196.31602
196.31793
196.28856
196.30178
196.33327
196.36057
196.30591
196.28147
196.30251
196.31024
196.27311
196.32942
196.31567
196.32013
196.30186
196.29991
196.28983
196.25989
196.26872
196.27891
196.32478
196.34203
196.32159
196.28028
196.32288
196.31586
196.38717
196.36838
196.36518
117.6722
117.66127
117.64644
117.61935
117.60805
117.66111
117.67446
117.62557
117.63656
117.66634
117.67472
117.63276
117.65162
117.67468
117.61667
117.66325
117.67734
117.66737
117.6476
117.65197
117.63468
117.6756
117.67319
117.65096
117.65413
117.61992
117.68121
117.68105
117.67727
117.65826
39.239231
39.23902
39.226529
39.251902
39.269473
39.275717
39.28772
39.268282
39.259935
39.249851
39.24886
39.257705
39.268332
39.266395
39.264778
39.244003
39.241132
39.229938
39.252287
39.263967
39.269902
39.274554
39.284516
39.275726
39.264343
39.286117
39.27735
39.293271
39.278406
39.301995
353.56107
353.5611
353.55885
353.56243
353.56865
353.5711
353.57048
353.57522
353.5701
353.57033
353.56787
353.55403
353.56172
353.54983
353.54751
353.55773
353.54066
353.54473
353.55603
353.54022
353.56415
353.54483
353.54647
353.54892
353.53488
353.54522
274.34953
274.34978
274.352
274.35442
274.34665
274.33607
274.33701
274.39111
274.40484
274.4128
274.4091
274.37469
274.35677
274.46504
274.45559
274.46108
274.37846
274.3738
274.36491
274.3838
274.41335
274.39812
274.36081
274.36487
274.37141
274.41448
196.37092
196.36276
196.35904
196.35896
196.35763
196.3605
196.32709
196.28972
196.3271
196.30591
196.32428
196.30329
196.34372
196.30274
196.30568
196.27459
196.27862
196.32441
196.335
196.30794
196.29345
196.31274
196.31436
196.32545
196.29631
196.27743
117.66105
117.63254
117.61048
117.60089
117.64744
117.6599
117.63366
117.633
117.65714
117.66468
117.65414
117.58895
117.67354
117.71057
117.67836
117.66793
117.66089
117.68349
117.6769
117.63364
117.67833
117.63096
117.6909
117.68799
117.63281
117.65425
39.250269
39.238531
39.249818
39.291935
39.263178
39.284299
39.276151
39.274299
39.249306
39.247162
39.255335
39.273796
39.279934
39.250267
39.231837
39.256789
39.256345
39.263878
39.26481
39.271447
39.245229
39.263449
39.263626
39.269868
39.26515
39.284094
353.5628
353.55978
353.56582
353.56808
353.56598
353.57254
353.57422
353.57097
353.56571
353.54484
353.54489
353.54871
353.55192
353.54418
353.54193
353.53354
353.5372
353.54099
353.53527
353.54174
353.55062
353.5243
353.53446
353.52821
353.52319
353.54896
274.34934
274.35292
274.40638
274.39566
274.34797
274.33593
274.33448
274.39039
274.39783
274.36899
274.38127
274.35565
274.35392
274.43214
274.41436
274.38422
274.36552
274.37013
274.37791
274.4187
274.43864
274.39438
274.38702
274.39452
274.37212
274.46282
196.37093
196.33146
196.30429
196.31662
196.3296
196.36443
196.35698
196.29651
196.32569
196.36302
196.35432
196.35595
196.39717
196.29411
196.26865
196.28352
196.30617
196.32401
196.29191
196.28523
196.28922
196.35752
196.34822
196.34366
196.32727
196.29906
117.66502
117.6307
117.65006
117.65426
117.64089
117.65549
117.66432
117.6144
117.66681
117.65228
117.62619
117.63357
117.66404
117.6836
117.66028
117.63972
117.67729
117.68578
117.63595
117.65502
117.6619
117.6623
117.6627
117.65291
117.63387
117.64033
39.269609
39.261005
39.262391
39.254636
39.257755
39.27752
39.276021
39.268022
39.254609
39.246311
39.272905
39.282295
39.288509
39.233419
39.243902
39.262224
39.260069
39.268277
39.265569
39.260683
39.239196
39.234104
39.235382
39.240516
39.234925
39.260661
353.56685
353.57028
353.57071
353.58063
353.5838
353.58441
353.58443
353.58169
353.57797
353.56061
353.5766
353.54793
353.54984
353.55337
353.53899
353.54338
353.5294
353.53702
353.53285
353.53493
353.54117
353.54088
353.54034
353.53626
353.542
353.54767
353.54669
353.55658
353.54141
353.55833
274.36912
274.39232
274.41697
274.41608
274.37465
274.33798
274.33218
274.3853
274.41559
274.41577
274.43417
274.36178
274.3492
274.35523
274.35908
274.38141
274.3844
274.38112
274.37427
274.36331
274.35618
274.35774
274.3548
274.34831
274.38182
274.40726
274.42307
274.43433
274.38059
274.44683
196.31916
196.2833
196.30887
196.31289
196.27109
196.34296
196.34495
196.27322
196.31386
196.31372
196.27292
196.30429
196.32759
196.36995
196.34396
196.33881
196.35065
196.34174
196.34396
196.34281
196.36379
196.37078
196.36771
196.33166
196.30549
196.29107
196.28956
196.29357
196.34676
196.28893
117.62081
117.61013
117.64349
117.67019
117.62916
117.64998
117.67014
117.59895
117.67321
117.65183
117.62626
117.6231
117.66298
117.66244
117.64724
117.62026
117.61663
117.63667
117.65414
117.65512
117.67494
117.67304
117.67417
117.66213
117.62574
117.65343
117.67041
117.67975
117.64698
117.64236
39.273367
39.260228
39.229464
39.234273
39.252175
39.261865
39.272267
39.262736
39.251942
39.241583
39.26528
39.277668
39.274391
39.293043
39.269834
39.295164
39.274999
39.25335
39.262062
39.2637
39.273904
39.273434
39.273462
39.264807
39.262335
39.238954
39.227126
39.230839
39.232696
39.257218
353.57039
353.56908
353.56486
353.58215
353.58519
353.58662
353.58383
353.58239
353.57883
353.56735
353.55821
353.55329
353.56013
353.5581
353.55307
353.55078
353.52228
353.53711
353.53368
353.52761
353.53815
353.52552
353.53581
353.53641
353.53321
353.5309
353.51812
353.54573
353.54066
353.54136
274.33675
274.35508
274.36809
274.40886
274.40997
274.36036
274.33072
274.36602
274.40773
274.43208
274.39606
274.38373
274.3569
274.3581
274.41752
274.42127
274.37391
274.37422
274.37552
274.38831
274.40371
274.37643
274.36564
274.37409
274.38321
274.39046
274.38275
274.4119
274.37336
274.36595
196.38019
196.34165
196.33641
196.32586
196.27808
196.34077
196.33399
196.31109
196.30846
196.31567
196.32175
196.33906
196.35846
196.34113
196.30173
196.29697
196.32179
196.34539
196.32286
196.3321
196.30084
196.3359
196.3436
196.36723
196.33821
196.36425
196.35642
196.31343
196.35059
196.34623
117.67375
117.60624
117.64167
117.64472
117.64235
117.62168
117.68496
117.58488
117.65601
117.66273
117.64706
117.61334
117.66949
117.62899
117.63457
117.62419
117.63071
117.68927
117.68106
117.64301
117.65473
117.64051
117.66854
117.6636
117.62468
117.67685
117.63222
117.64093
117.60891
117.65309
39.288532
39.290465
39.277459
39.240097
39.274887
39.273904
39.300237
39.272198
39.252175
39.247902
39.246419
39.271432
39.274241
39.266133
39.276509
39.250191
39.242478
39.249877
39.256569
39.267178
39.288101
39.300813
39.271831
39.266864
39.260155
39.243783
39.231072
39.227048
39.259908
39.261259
353.57365
353.56735
353.56536
353.56363
353.58115
353.57653
353.57601
353.57958
353.57346
353.56716
353.54671
353.55712
353.54775
353.55636
353.54217
353.54481
353.54065
353.53335
353.53715
353.52618
353.56481
353.53953
353.54538
353.53898
353.53774
353.53414
353.5578
353.56022
353.55425
353.55471
274.34158
274.32293
274.38028
274.34506
274.4008
274.35271
274.32924
274.33358
274.37176
274.38702
274.36888
274.35683
274.37606
274.42702
274.43961
274.43958
274.41921
274.38271
274.38877
274.40112
274.43835
274.37489
274.36136
274.37623
274.37868
274.38266
274.43207
274.41148
274.35218
274.35618
196.38989
196.33614
196.31847
196.3535
196.28453
196.30939
196.33209
196.33546
196.29135
196.29879
196.33701
196.31902
196.28677
196.27256
196.28276
196.30813
196.30561
196.36127
196.32637
196.30885
196.28574
196.31521
196.3268
196.33975
196.33833
196.32762
196.27409
196.30249
196.3324
196.36936
117.66796
117.6447
117.61939
117.63943
117.62743
117.59679
117.67727
117.66402
117.64047
117.66578
117.65721
117.66738
117.62915
117.63645
117.63671
117.64828
117.68592
117.68671
117.64271
117.62628
117.64626
117.63043
117.67193
117.65264
117.65804
117.64357
117.61375
117.62351
117.6143
117.66062
39.287811
39.271989
39.280696
39.240271
39.264568
39.27633
39.282297
39.26659
39.253952
39.238205
39.242142
39.236277
39.250267
39.267266
39.248942
39.227936
39.237005
39.240653
39.222057
39.256199
39.27769
39.286684
39.263811
39.265119
39.24146
39.239035
39.254179
39.268387
39.278756
39.284295
353.57357
353.56791
353.5792
353.58152
353.57433
353.58488
353.55704
353.56624
353.55915
353.55183
353.54807
353.54444
353.53715
353.53402
353.52673
353.52763
353.52363
353.51682
353.5408
353.54807
353.55544
353.54641
353.54549
353.55132
353.54939
353.54852
353.56921
353.55018
353.55365
353.55529
274.35321
274.36983
274.42072
274.43567
274.43445
274.41629
274.3442
274.34723
274.36607
274.3855
274.36159
274.35901
274.37155
274.38457
274.38455
274.40908
274.40005
274.39067
274.42594
274.45467
274.38252
274.36729
274.39271
274.41905
274.43377
274.45199
274.46084
274.37358
274.35835
274.36691
196.34204
196.29728
196.30424
196.30358
196.31493
196.27536
196.30305
196.33469
196.35163
196.32229
196.3607
196.37007
196.35486
196.3376
196.36013
196.33615
196.35338
196.34986
196.27505
196.28173
196.34531
196.33336
196.32801
196.31843
196.30932
196.29668
196.27948
196.32154
196.34798
196.40037
117.6674
117.62862
117.66017
117.68513
117.67658
117.63795
117.65014
117.66162
117.64838
117.61048
117.66662
117.6568
117.63939
117.63317
117.66022
117.65544
117.68758
117.65984
117.64685
117.64083
117.64613
117.679
117.61144
117.66949
117.66683
117.64004
117.63162
117.62024
117.64752
117.67927
39.267687
39.269057
39.249245
39.240598
39.241498
39.251348
39.259527
39.248445
39.26315
39.281046
39.269325
39.271232
39.268154
39.259332
39.240529
39.251882
39.244006
39.237975
39.2451
39.268808
39.267943
39.285093
39.281641
39.263833
39.245128
39.250173
39.266995
39.277495
39.283396
39.297808
)
;

boundaryField
{
    minX
    {
        type            calculated;
        value           nonuniform List<scalar> 
50
(
353.54867
274.36265
196.38878
117.66416
39.276047
353.53941
274.36365
196.36398
117.63544
39.266904
353.55848
274.38993
196.32767
117.64378
39.253467
353.55488
274.38095
196.35989
117.6722
39.239231
353.56107
274.34953
196.37092
117.66105
39.250269
353.5628
274.34934
196.37093
117.66502
39.269609
353.56685
274.36912
196.31916
117.62081
39.273367
353.57039
274.33675
196.38019
117.67375
39.288532
353.57365
274.34158
196.38989
117.66796
39.287811
353.57357
274.35321
196.34204
117.6674
39.267687
)
;
    }
    maxX
    {
        type            calculated;
        value           nonuniform List<scalar> 
50
(
353.53911
274.41208
196.32725
117.63155
39.266329
353.54219
274.37435
196.31417
117.65112
39.25605
353.54404
274.37142
196.36633
117.68496
39.287749
353.53499
274.37416
196.36518
117.65826
39.301995
353.54522
274.41448
196.27743
117.65425
39.284094
353.54896
274.46282
196.29906
117.64033
39.260661
353.55833
274.44683
196.28893
117.64236
39.257218
353.54136
274.36595
196.34623
117.65309
39.261259
353.55471
274.35618
196.36936
117.66062
39.284295
353.55529
274.36691
196.40037
117.67927
39.297808
)
;
    }
    minY
    {
        type            calculated;
        value           nonuniform List<scalar> 
292
(
392.4
392.4
392.4
392.4
392.4
392.4
392.4
392.4
392.4
392.4
392.4
392.4
392.4
392.4
392.4
392.4
392.4
392.4
392.4
392.4
392.4
392.4
392.4
392.4
392.4
392.4
392.4
392.4
392.4
392.4
392.4
392.4
392.4
392.4
392.4
392.4
392.4
392.4
392.4
392.4
392.4
392.4
392.4
392.4
392.4
392.4
392.4
392.4
392.4
392.4
392.4
392.4
392.4
392.4
392.4
392.4
392.4
392.4
392.4
392.4
392.4
392.4
392.4
392.4
392.4
392.4
392.4
392.4
392.4
392.4
392.4
392.4
392.4
392.4
392.4
392.4
392.4
392.4
392.4
392.4
392.4
392.4
392.4
392.4
392.4
392.4
392.4
392.4
392.4
392.4
392.4
392.4
392.4
392.4
392.4
392.4
392.4
392.4
392.4
392.4
392.4
392.4
392.4
392.4
392.4
392.4
392.4
392.4
392.4
392.4
392.4
392.4
392.4
392.4
392.4
392.4
392.4
392.4
392.4
392.4
392.4
392.4
392.4
392.4
392.4
392.4
392.4
392.4
392.4
392.4
392.4
392.4
392.4
392.4
392.4
392.4
392.4
392.4
392.4
392.4
392.4
392.4
392.4
392.4
392.4
392.4
392.4
392.4
392.4
392.4
392.4
392.4
392.4
392.4
392.4
392.4
392.4
392.4
392.4
392.4
392.4
392.4
392.4
392.4
392.4
392.4
392.4
392.4
392.4
392.4
392.4
392.4
392.4
392.4
392.4
392.4
392.4
392.4
392.4
392.4
392.4
392.4
392.4
392.4
392.4
392.4
392.4
392.4
392.4
392.4
392.4
392.4
392.4
392.4
392.4
392.4
392.4
392.4
392.4
392.4
392.4
392.4
392.4
392.4
392.4
392.4
392.4
392.4
392.4
392.4
392.4
392.4
392.4
392.4
392.4
392.4
392.4
392.4
392.4
392.4
392.4
392.4
392.4
392.4
392.4
392.4
392.4
392.4
392.4
392.4
392.4
392.4
392.4
392.4
392.4
392.4
392.4
392.4
392.4
392.4
392.4
392.4
392.4
392.4
392.4
392.4
392.4
392.4
392.4
392.4
392.4
392.4
392.4
392.4
392.4
392.4
392.4
392.4
392.4
392.4
392.4
392.4
392.4
392.4
392.4
392.4
392.4
392.4
392.4
392.4
392.4
392.4
392.4
392.4
392.4
392.4
392.4
392.4
392.4
392.4
392.4
392.4
392.4
392.4
392.4
392.4
392.4
392.4
392.4
392.4
392.4
392.4
)
;
    }
    minZ
    {
        type            calculated;
        value           nonuniform List<scalar> 
150
(
353.54867
274.36265
196.38878
117.66416
39.276047
353.5497
274.35629
196.37103
117.67002
39.277666
353.54834
274.36056
196.3714
117.66492
39.268478
353.54417
274.36543
196.34045
117.66116
39.264846
353.54453
274.37634
196.34863
117.65161
39.244881
353.56279
274.41012
196.31065
117.65449
39.246973
353.56101
274.4251
196.32017
117.65739
39.240021
353.5677
274.42334
196.31533
117.67043
39.236147
353.5673
274.40634
196.2936
117.67073
39.235088
353.54844
274.37937
196.32181
117.65002
39.255872
353.55194
274.36421
196.30629
117.67327
39.24907
353.55811
274.35283
196.36834
117.67454
39.279275
353.55411
274.34566
196.31663
117.66184
39.263803
353.56485
274.38471
196.29401
117.631
39.279802
353.55678
274.4322
196.2733
117.62942
39.264344
353.53934
274.42476
196.30798
117.65099
39.237042
353.54148
274.4233
196.31106
117.66226
39.238565
353.53701
274.41285
196.31469
117.64503
39.24968
353.53836
274.39546
196.3133
117.61905
39.269668
353.54028
274.3675
196.32773
117.67397
39.264026
353.53811
274.37194
196.3211
117.67726
39.261006
353.53447
274.38829
196.29806
117.64189
39.265138
353.54537
274.44121
196.28225
117.66184
39.252786
353.54027
274.43761
196.31766
117.67565
39.231798
353.54769
274.455
196.30494
117.71504
39.246109
353.54739
274.4654
196.30617
117.70433
39.248603
353.54271
274.45287
196.31071
117.68328
39.234243
353.54051
274.44302
196.31382
117.67107
39.245005
353.5395
274.4203
196.31805
117.64953
39.238688
353.53911
274.41208
196.32725
117.63155
39.266329
)
;
    }
    maxZ
    {
        type            calculated;
        value           nonuniform List<scalar> 
150
(
353.57357
274.35321
196.34204
117.6674
39.267687
353.56791
274.36983
196.29728
117.62862
39.269057
353.5792
274.42072
196.30424
117.66017
39.249245
353.58152
274.43567
196.30358
117.68513
39.240598
353.57433
274.43445
196.31493
117.67658
39.241498
353.58488
274.41629
196.27536
117.63795
39.251348
353.55704
274.3442
196.30305
117.65014
39.259527
353.56624
274.34723
196.33469
117.66162
39.248445
353.55915
274.36607
196.35163
117.64838
39.26315
353.55183
274.3855
196.32229
117.61048
39.281046
353.54807
274.36159
196.3607
117.66662
39.269325
353.54444
274.35901
196.37007
117.6568
39.271232
353.53715
274.37155
196.35486
117.63939
39.268154
353.53402
274.38457
196.3376
117.63317
39.259332
353.52673
274.38455
196.36013
117.66022
39.240529
353.52763
274.40908
196.33615
117.65544
39.251882
353.52363
274.40005
196.35338
117.68758
39.244006
353.51682
274.39067
196.34986
117.65984
39.237975
353.5408
274.42594
196.27505
117.64685
39.2451
353.54807
274.45467
196.28173
117.64083
39.268808
353.55544
274.38252
196.34531
117.64613
39.267943
353.54641
274.36729
196.33336
117.679
39.285093
353.54549
274.39271
196.32801
117.61144
39.281641
353.55132
274.41905
196.31843
117.66949
39.263833
353.54939
274.43377
196.30932
117.66683
39.245128
353.54852
274.45199
196.29668
117.64004
39.250173
353.56921
274.46084
196.27948
117.63162
39.266995
353.55018
274.37358
196.32154
117.62024
39.277495
353.55365
274.35835
196.34798
117.64752
39.283396
353.55529
274.36691
196.40037
117.67927
39.297808
)
;
    }
    bottomWater_to_rightSolid
    {
        type            calculated;
        value           nonuniform List<scalar> 
130
(
0.0096796355
0.029668428
0.02402624
0.02100592
0.025137783
0.012786384
-0.0082021448
0.0061086244
0.0086027338
-0.0057566001
0.0050053169
-0.0013122964
0.026329161
0.015903198
0.025132214
0.032678552
0.027741474
0.03412615
0.027131341
0.0088209946
0.00065108625
0.00065151457
0.0090803561
0.025622814
0.018744524
0.016049606
0.022123043
0.030776135
0.037488833
0.037532111
0.050637687
0.032820059
0.029299115
0.013516204
0.03961957
0.032431439
0.034949778
0.03738406
0.047748878
-0.010061582
0.012286965
0.023966654
0.029901553
0.034554371
0.044515989
0.035725533
0.02434281
0.046116881
0.037349794
0.053271395
0.038405597
0.061995206
0.010266971
-0.0081631848
0.016789241
0.016344797
0.023877751
0.02480954
0.031447311
0.0052292738
0.023449481
0.023626238
0.029867801
0.02515042
0.044093956
-0.0065807584
0.0039023378
0.022224212
0.020068935
0.028276726
0.025569492
0.020683205
-0.00080387899
-0.00589613
-0.004618225
0.00051588135
-0.0050753576
0.020661052
0.013350079
0.02206169
0.023699666
0.03390404
0.033433804
0.033461985
0.024807481
0.02233507
-0.0010464887
-0.012874012
-0.009160929
-0.0073042892
0.017217533
0.0098768743
0.016569141
0.027177889
0.048100947
0.060813097
0.031831054
0.026863732
0.020154853
0.0037827984
-0.008927679
-0.012951679
0.019907678
0.021258844
0.00065277865
-0.017942888
0.016198839
0.037689737
0.046683526
0.023810727
0.025118998
0.001460417
-0.0009646887
0.01417867
0.028387011
0.038756428
0.044294995
-0.0020251553
0.0051001003
0.028807778
0.027942981
0.045092524
0.04164143
0.023832898
0.0051280804
0.010173002
0.026995425
0.037495058
0.043396455
0.0578084
)
;
    }
    bottomWater_to_leftSolid
    {
        type            calculated;
        value           nonuniform List<scalar> 
130
(
0.036046545
0.037665905
0.028477814
0.024846222
0.0048808749
0.0069729632
2.1333512e-05
-0.0038527727
-0.0049124041
0.015871981
0.0090701066
0.039275304
0.023802628
0.02690403
0.043352961
0.029892131
0.010082848
0.019290895
0.043864038
0.031855934
0.019484415
0.011200363
0.026253548
0.021170254
0.028277631
0.032039289
0.013466961
0.02685199
0.0083503393
0.0064487625
0.032366698
0.048259486
0.043652447
0.050127149
0.024183241
0.029839303
0.01588235
0.012286802
0.0082338816
-0.00076937516
-0.00097977384
-0.013470972
0.011902155
0.029472587
0.035717422
0.047720069
0.028281811
0.019934803
0.0098506997
0.0088598164
0.017705207
0.028331526
0.010268668
-0.0014691926
0.0098183487
0.051935106
0.023178161
0.044299361
0.036151466
0.034298988
0.0093062973
0.0071619824
0.015334939
0.033795683
0.039933691
0.029608621
0.021005482
0.02239086
0.014636022
0.01775477
0.037519597
0.036021343
0.028021649
0.014608811
0.0063106376
0.032905024
0.042295418
0.048508513
0.033366568
0.020228477
-0.010536359
-0.0057269155
0.012175373
0.021864652
0.032266506
0.022735962
0.011942265
0.0015827162
0.025280028
0.037667745
0.03439076
0.048531689
0.050464976
0.037458793
9.6866694e-05
0.034887254
0.033903527
0.060236504
0.032198278
0.012174966
0.0079020027
0.0064191838
0.031431633
0.034240912
0.047810747
0.031989124
0.040696178
0.00027069137
0.024567763
0.036330259
0.042296679
0.026589694
0.01395219
-0.0017945327
0.0021422136
-0.0037233033
0.010266839
0.027686996
0.029057042
0.0092447642
0.00059804919
0.0014983221
0.011347556
0.019526805
0.0084445943
0.023149663
0.04104606
0.029324928
0.031231628
0.028153643
)
;
    }
    bottomWater_to_heater
    {
        type            calculated;
        value           nonuniform List<scalar> 
92
(
0.039801824
0.024344466
-0.0029577581
-0.001435185
0.027350203
0.012014854
-0.0036166926
0.008601867
-0.0027159566
-0.00021023048
0.0011930881
0.0019425153
353.54454
353.54348
353.54261
353.54271
274.36946
274.38815
274.41486
274.43552
196.31567
196.32013
196.30186
196.29991
117.67468
117.61667
117.66325
117.67734
0.026394792
39.266395
0.024777905
39.264778
0.0040034381
39.244003
0.0011319998
39.241132
353.56172
353.54983
274.35677
274.46504
196.34372
196.30274
117.67354
117.71057
39.279934
39.250267
353.55192
353.55337
353.53899
353.54338
353.54418
353.5294
274.35392
274.35523
274.35908
274.38141
274.43214
274.3844
196.39717
196.36995
196.34396
196.33881
196.29411
196.35065
117.66404
117.66244
117.64724
117.62026
117.6836
117.61663
39.288509
39.293043
39.269834
39.295164
39.233419
39.274999
0.053043003
0.029833601
0.055164086
0.034999177
0.026132708
0.036508755
0.010190623
0.0024776952
0.0272659
0.0089418724
-0.012064379
-0.0029946437
0.019331872
0.00052893263
0.011882337
0.0040057245
)
;
    }
}


// ************************************************************************* //
