/*--------------------------------*- C++ -*----------------------------------*\
| =========                 |                                                 |
| \\      /  F ield         | OpenFOAM: The Open Source CFD Toolbox           |
|  \\    /   O peration     | Version:  v2012                                 |
|   \\  /    A nd           | Website:  www.openfoam.com                      |
|    \\/     M anipulation  |                                                 |
\*---------------------------------------------------------------------------*/
FoamFile
{
    version     2.0;
    format      ascii;
    class       volScalarField;
    location    "350/bottomWater";
    object      p_rgh;
}
// * * * * * * * * * * * * * * * * * * * * * * * * * * * * * * * * * * * * * //

dimensions      [1 -1 -2 0 0 0 0];


internalField   nonuniform List<scalar> 
1460
(
0.38867438
0.38969984
0.38833788
0.38416678
0.38452945
0.40279051
0.40101261
0.40769972
0.40729629
0.38843741
0.3919392
0.39810543
0.39411063
0.40485387
0.39677651
0.3793373
0.38148046
0.3770109
0.37836023
0.38027642
0.37811412
0.37447098
0.38537455
0.38027454
0.38768523
0.38738539
0.38270871
0.38051167
0.3794955
0.37910895
-0.31734834
-0.32371153
-0.31943918
-0.31456631
-0.3036558
-0.2698759
-0.25490129
-0.25666253
-0.27366304
-0.30062581
-0.31578883
-0.3271664
-0.3343407
-0.29528974
-0.24780174
-0.25524231
-0.2567005
-0.26715498
-0.28454308
-0.3124966
-0.30805958
-0.29171456
-0.23878851
-0.24239464
-0.22499743
-0.2145951
-0.22713388
-0.23698165
-0.25969596
-0.26792303
0.18877793
0.17102591
0.17139589
0.14044791
0.14862679
0.1106512
0.12017122
0.11532586
0.093602782
0.12180691
0.10628895
0.16834005
0.11663288
0.094014701
0.0733015
0.10798128
0.11106456
0.11468708
0.11329876
0.12772641
0.12109713
0.098059917
0.082247505
0.11766166
0.10493653
0.10617438
0.11071443
0.11381871
0.11804922
0.1272527
-0.055839338
-0.04998127
-0.055082946
-0.058836709
-0.068391191
-0.065514895
-0.062612104
-0.049566289
-0.049267068
-0.0699804
-0.04672545
-0.045464578
-0.058164934
-0.089000239
-0.09057761
-0.069006994
-0.05773589
-0.074970986
-0.10094785
-0.046026382
-0.042736965
-0.078112151
-0.058159677
-0.044353676
-0.0049576199
-0.015665209
-0.036720226
-0.048929302
-0.070470329
-0.088445517
0.036046545
0.037665905
0.028477814
0.024846222
0.0048808749
0.0069729632
2.1333512e-05
-0.0038527727
-0.0049124041
0.015871981
0.0090701066
0.039275304
0.023802628
0.039801824
0.024344466
-0.0029577581
-0.001435185
0.0096796355
0.029668428
0.02402624
0.02100592
0.025137783
0.012786384
-0.0082021448
0.0061086244
0.0086027338
-0.0057566001
0.0050053169
-0.0013122964
0.026329161
0.37941176
0.37544134
0.37595479
0.38112597
0.38670015
0.39288348
0.42107048
0.40294022
0.4034652
0.3921901
0.3892293
0.39280056
0.38738031
0.39637821
0.37001015
0.37710452
0.37399305
0.3729691
0.37169044
0.38134214
0.37625083
0.37222975
0.37886414
0.37011574
0.36963603
0.37184318
0.37971906
0.38706313
0.37719307
0.38219365
-0.31635301
-0.31075063
-0.30933577
-0.30982723
-0.31263269
-0.31235329
-0.2814185
-0.32167917
-0.33680393
-0.33265813
-0.29282228
-0.33788234
-0.30333433
-0.27905489
-0.2965164
-0.29826143
-0.30349962
-0.31100079
-0.31562621
-0.31809077
-0.31768355
-0.3064468
-0.27677713
-0.27600176
-0.29072898
-0.26463251
-0.24599568
-0.25386363
-0.29475458
-0.30565346
0.16397598
0.1435351
0.14827568
0.17010866
0.12919643
0.12631022
0.07587998
0.1221275
0.10882399
0.14130849
0.11055775
0.13135299
0.13327536
0.083703793
0.12447104
0.14161977
0.14255152
0.13640187
0.131151
0.15143425
0.13261149
0.11169372
0.094316787
0.13173149
0.13577976
0.11230456
0.084919993
0.085978951
0.089225727
0.11417437
-0.084556889
-0.11371146
-0.099039784
-0.084888427
-0.07961586
-0.10538647
-0.10877603
-0.13324939
-0.059982584
-0.03777534
-0.094419497
-0.048916226
-0.12343371
-0.081334293
-0.10510584
-0.052822123
-0.051642077
-0.055786865
-0.064413892
-0.042648986
-0.048589108
-0.10194696
-0.086204426
-0.074223522
-0.045669106
-0.075262728
-0.089372415
-0.09002113
-0.11702421
-0.068882894
0.02690403
0.043352961
0.029892131
0.010082848
0.019290895
0.043864038
0.031855934
0.019484415
0.011200363
0.026253548
0.021170254
0.028277631
0.032039289
0.027350203
0.012014854
-0.0036166926
0.008601867
0.015903198
0.025132214
0.032678552
0.027741474
0.03412615
0.027131341
0.0088209946
0.00065108625
0.00065151457
0.0090803561
0.025622814
0.018744524
0.016049606
0.39847597
0.41173425
0.40938786
0.39842699
0.41999626
0.40443692
0.42356888
0.41021588
0.41533383
0.40710935
0.41456126
0.37870474
0.38450143
0.38558905
0.38663166
0.37447801
0.38109485
0.3659253
0.39291904
0.38207414
0.38861487
0.38913206
0.38531194
0.38116921
0.39842934
0.39285082
0.38090225
0.37804149
0.37883333
0.38403656
-0.29006827
-0.25490271
-0.25487085
-0.2702286
-0.26570011
-0.3303408
-0.35327193
-0.3343399
-0.33326287
-0.28304291
-0.25664998
-0.31659271
-0.30852157
-0.32356965
-0.31685211
-0.30612313
-0.29344048
-0.28981554
-0.26877436
-0.30686921
-0.31512548
-0.3159292
-0.32672258
-0.2972439
-0.2406139
-0.24491519
-0.30048623
-0.32314455
-0.32403821
-0.30858085
0.12766536
0.087840706
0.11603726
0.11147483
0.086599903
0.11936682
0.14765487
0.14794209
0.11466726
0.088211914
0.074668562
0.11038372
0.12578563
0.14770556
0.14844505
0.14392256
0.12362885
0.11362508
0.067893571
0.10969041
0.11998225
0.15786566
0.10274809
0.11062475
0.098239082
0.091739974
0.098796021
0.11429659
0.1406275
0.16633368
-0.076223314
-0.091190509
-0.050318113
-0.078679391
-0.095138567
-0.10818665
-0.041568794
-0.035828851
-0.070580358
-0.077096182
-0.055717565
-0.064117865
-0.053166438
-0.028558303
-0.03223167
-0.043279411
-0.061670942
-0.078246101
-0.060280159
-0.083928513
-0.030020914
-0.034224164
-0.050809692
-0.085893591
-0.051089382
-0.083992189
-0.084841635
-0.065067799
-0.052312657
-0.035040147
0.013466961
0.02685199
0.0083503393
0.0064487625
0.032366698
0.048259486
0.043652447
0.050127149
0.024183241
0.029839303
0.01588235
0.012286802
0.0082338816
-0.0027159566
-0.00021023048
0.0011930881
0.0019425153
0.022123043
0.030776135
0.037488833
0.037532111
0.050637687
0.032820059
0.029299115
0.013516204
0.03961957
0.032431439
0.034949778
0.03738406
0.047748878
0.39487512
0.40781755
0.40502288
0.4144535
0.41729032
0.41226315
0.42121068
0.40631138
0.41642452
0.39771415
0.3984879
0.38802292
0.37977085
0.38453605
0.3834824
0.38261084
0.38270647
0.37846198
0.38604711
0.38141613
0.36531351
0.37442099
0.3830155
0.36856626
0.38676641
0.36209142
0.37353768
0.37543827
0.37624159
0.37498917
-0.29904755
-0.2750434
-0.25984199
-0.27194401
-0.31629149
-0.34127386
-0.33517627
-0.33074787
-0.28012578
-0.25535791
-0.23908027
-0.27796356
-0.30861789
-0.31053726
-0.29184607
-0.26514342
-0.24448229
-0.24643625
-0.20033744
-0.24901071
-0.30200881
-0.30373299
-0.31599804
-0.31003917
-0.27679537
-0.2980918
-0.32343546
-0.31661172
-0.31591223
-0.30583652
0.15989011
0.11602143
0.11793315
0.088556606
0.10178111
0.13326675
0.16057081
0.10591176
0.081466937
0.102506
0.11023917
0.073114776
0.1294167
0.11567046
0.12013177
0.10186416
0.099909884
0.08982629
0.059887971
0.068722505
0.078907875
0.12477757
0.14202858
0.12159315
0.08027523
0.12287636
0.11585838
0.18716825
0.1683839
0.16517827
-0.047801745
-0.058726842
-0.073557609
-0.10064626
-0.11194839
-0.058889245
-0.045540217
-0.094434155
-0.083443715
-0.053664847
-0.045280668
-0.087240909
-0.068379239
-0.045323815
-0.10333401
-0.056753059
-0.042662459
-0.052628975
-0.072398911
-0.068027471
-0.085319639
-0.044403115
-0.046812524
-0.069036361
-0.065874355
-0.100077
-0.038790224
-0.038947121
-0.042728819
-0.061735523
-0.00076937516
-0.00097977384
-0.013470972
0.011902155
0.029472587
0.035717422
0.047720069
0.028281811
0.019934803
0.0098506997
0.0088598164
0.017705207
0.028331526
0.026394792
0.024777905
0.0040034381
0.0011319998
-0.010061582
0.012286965
0.023966654
0.029901553
0.034554371
0.044515989
0.035725533
0.02434281
0.046116881
0.037349794
0.053271395
0.038405597
0.061995206
0.40106538
0.40110103
0.3988457
0.40243117
0.4086503
0.41109533
0.41047825
0.41521769
0.41010209
0.41032821
0.40787041
0.39403325
0.40171725
0.38983397
0.38751047
0.39773258
0.3806602
0.38473342
0.39603115
0.38022274
0.40415134
0.38482553
0.38646924
0.38892396
0.37487618
0.3852161
-0.33047143
-0.33021582
-0.32800146
-0.32558268
-0.33335341
-0.34393183
-0.34298578
-0.28889268
-0.27516249
-0.26720434
-0.27090454
-0.30530611
-0.32322928
-0.21495935
-0.22441067
-0.21892431
-0.30153831
-0.30619961
-0.31508853
-0.29620425
-0.26665376
-0.28188182
-0.31919423
-0.31513094
-0.30858978
-0.26551964
0.17091798
0.16276305
0.15903949
0.15895812
0.15762689
0.16050352
0.12708694
0.089718717
0.12710237
0.10590649
0.12427914
0.10329009
0.14372327
0.1027429
0.10567965
0.074589448
0.078615165
0.12441327
0.13500315
0.10793969
0.09345025
0.11273683
0.11435708
0.12545399
0.096311073
0.077427675
-0.058950873
-0.087455446
-0.10952324
-0.11910853
-0.072555605
-0.0601018
-0.0863382
-0.086996937
-0.062856827
-0.055320891
-0.06586246
-0.13105274
-0.046460796
-0.0094291864
-0.041642692
-0.052071863
-0.05910883
-0.036508095
-0.043096639
-0.086362427
-0.041668087
-0.089037833
-0.029095028
-0.032013491
-0.087189898
-0.065753345
0.010268668
-0.0014691926
0.0098183487
0.051935106
0.023178161
0.044299361
0.036151466
0.034298988
0.0093062973
0.0071619824
0.015334939
0.033795683
0.039933691
0.010266971
-0.0081631848
0.016789241
0.016344797
0.023877751
0.02480954
0.031447311
0.0052292738
0.023449481
0.023626238
0.029867801
0.02515042
0.044093956
0.40279785
0.39977766
0.40582042
0.40808015
0.4059811
0.41254067
0.41421815
0.4109668
0.40570565
0.38484041
0.38488757
0.38870977
0.39191948
0.38418405
0.38193262
0.37354497
0.37719868
0.38099475
0.37526883
0.38174361
0.3906178
0.36430232
0.37445577
0.36820944
0.36319406
0.3889645
-0.33066432
-0.32708497
-0.27362161
-0.28433685
-0.33202602
-0.34406829
-0.34551703
-0.28961406
-0.2821663
-0.3110059
-0.29872893
-0.32435071
-0.32607577
-0.24786295
-0.2656358
-0.29577889
-0.31447783
-0.30986692
-0.3020901
-0.26129841
-0.24135631
-0.28562438
-0.29298022
-0.28548485
-0.30788439
-0.21717578
0.17092599
0.13145996
0.10429494
0.11661872
0.12960222
0.16442841
0.156981
0.096512868
0.12568874
0.16302313
0.15431831
0.15595265
0.19717372
0.09410582
0.06864911
0.083518691
0.10617208
0.1240144
0.091908613
0.08523256
0.089221876
0.15751511
0.14821662
0.14366221
0.12726711
0.099064189
-0.05497515
-0.0892967
-0.069936056
-0.065740252
-0.079106927
-0.064508712
-0.055680218
-0.10559551
-0.053186793
-0.067721179
-0.093808431
-0.086429939
-0.055959177
-0.036400989
-0.059720428
-0.080276439
-0.042711334
-0.034217708
-0.084054606
-0.064976282
-0.05809514
-0.057701009
-0.05729776
-0.067089675
-0.086128381
-0.079669061
0.029608621
0.021005482
0.02239086
0.014636022
0.01775477
0.037519597
0.036021343
0.028021649
0.014608811
0.0063106376
0.032905024
0.042295418
0.048508513
-0.0065807584
0.0039023378
0.022224212
0.020068935
0.028276726
0.025569492
0.020683205
-0.00080387899
-0.00589613
-0.004618225
0.00051588135
-0.0050753576
0.020661052
0.40685057
0.41027559
0.41070572
0.42063464
0.42379897
0.42441394
0.42442987
0.4216868
0.41797151
0.40061216
0.41659867
0.38792712
0.38983794
0.39336698
0.37899243
0.38338029
0.36940092
0.37702455
0.37285432
0.37493082
0.38117224
0.38087803
0.38034436
0.37626224
0.3820007
0.38766645
0.38668752
0.39658438
0.38141494
0.39833413
-0.31087531
-0.28768469
-0.26303238
-0.2639204
-0.30534929
-0.34202249
-0.34782061
-0.29470459
-0.26440614
-0.26423326
-0.24582974
-0.31822437
-0.33080097
-0.32477015
-0.32092229
-0.29858804
-0.29560263
-0.29887894
-0.30573435
-0.31668846
-0.32382061
-0.32225893
-0.3252037
-0.3316914
-0.29817831
-0.27273627
-0.25692602
-0.24566636
-0.29940729
-0.23317134
0.11915994
0.0832993
0.10887277
0.11289087
0.071087209
0.14296043
0.14495096
0.073222421
0.11385983
0.11372277
0.072923603
0.10429171
0.12758918
0.16995333
0.14396472
0.1388129
0.15064931
0.14174055
0.14396348
0.14280929
0.16379498
0.170782
0.16771473
0.13166405
0.10549487
0.091072854
0.089561372
0.093572699
0.14676463
0.088933071
-0.099192711
-0.10986731
-0.076506773
-0.049806253
-0.090838795
-0.070021697
-0.0498587
-0.12104944
-0.046789733
-0.068165975
-0.093737575
-0.096898488
-0.057017555
-0.057564076
-0.072757408
-0.099742505
-0.1033693
-0.083325494
-0.065860429
-0.064883384
-0.045056038
-0.046955747
-0.045825424
-0.057871064
-0.094263894
-0.066571299
-0.049587198
-0.040245242
-0.073016984
-0.077637721
0.033366568
0.020228477
-0.010536359
-0.0057269155
0.012175373
0.021864652
0.032266506
0.022735962
0.011942265
0.0015827162
0.025280028
0.037667745
0.03439076
0.053043003
0.029833601
0.055164086
0.034999177
0.013350079
0.02206169
0.023699666
0.03390404
0.033433804
0.033461985
0.024807481
0.02233507
-0.0010464887
-0.012874012
-0.009160929
-0.0073042892
0.017217533
0.410389
0.40908177
0.40485943
0.42215146
0.42519374
0.42661751
0.42383165
0.42238799
0.41883255
0.40734629
0.39820725
0.39328582
0.40013259
0.39810058
0.393074
0.3907762
0.3622841
0.37710602
0.3736798
0.36760591
0.37814809
0.36552104
0.37581238
0.37641098
0.37321357
0.37089551
0.35812114
0.38572729
0.38065624
0.3813609
-0.34325038
-0.32491674
-0.31190662
-0.27114443
-0.27002957
-0.31963904
-0.34928059
-0.31397508
-0.27226677
-0.24791739
-0.28393982
-0.29627334
-0.32310415
-0.32189647
-0.2624811
-0.25872733
-0.3060916
-0.30577583
-0.30447913
-0.29169457
-0.27628664
-0.30356556
-0.31435888
-0.30591051
-0.29678808
-0.28954337
-0.29725463
-0.26810146
-0.30664433
-0.31404583
0.18018622
0.14165181
0.13640725
0.12586346
0.078082238
0.14077052
0.1339876
0.11109109
0.10845963
0.11567353
0.12175438
0.13905683
0.15846181
0.14112717
0.10173037
0.096970594
0.1217946
0.145389
0.122857
0.13209894
0.10083767
0.13589723
0.14359992
0.16722959
0.13821275
0.16424668
0.15642253
0.11343145
0.15058792
0.14623234
-0.046253233
-0.11375956
-0.078325328
-0.075277845
-0.077652212
-0.098320281
-0.035036433
-0.13511995
-0.063987127
-0.057265215
-0.072940177
-0.10665832
-0.050512659
-0.091011711
-0.085434907
-0.095807894
-0.089288817
-0.030733715
-0.038936822
-0.076991025
-0.065270516
-0.07949158
-0.051463641
-0.056395197
-0.095315642
-0.043152805
-0.087778486
-0.079070088
-0.1110857
-0.066908114
0.048531689
0.050464976
0.037458793
9.6866694e-05
0.034887254
0.033903527
0.060236504
0.032198278
0.012174966
0.0079020027
0.0064191838
0.031431633
0.034240912
0.026132708
0.036508755
0.010190623
0.0024776952
0.0098768743
0.016569141
0.027177889
0.048100947
0.060813097
0.031831054
0.026863732
0.020154853
0.0037827984
-0.008927679
-0.012951679
0.019907678
0.021258844
0.41365425
0.40735405
0.40536364
0.40363308
0.42114645
0.41653147
0.41601091
0.41958405
0.41345622
0.40715917
0.38670556
0.39711551
0.38774568
0.39636244
0.38217049
0.3848123
0.38064696
0.37335482
0.37715118
0.36617675
0.40481206
0.37952628
0.38537685
0.37897918
0.37773512
0.37414228
0.39780036
0.40021752
0.394249
0.39470816
-0.33841765
-0.35707333
-0.29971841
-0.33494073
-0.27919746
-0.3272905
-0.35075743
-0.34641512
-0.3082425
-0.29298387
-0.3111196
-0.32316918
-0.30394476
-0.25297871
-0.24038971
-0.24042464
-0.26078883
-0.29728637
-0.2912304
-0.27887589
-0.24165321
-0.30510924
-0.3186392
-0.30377165
-0.30132448
-0.29734002
-0.24793305
-0.26852343
-0.32782485
-0.32381522
0.18989328
0.13613928
0.11846867
0.1534983
0.08453347
0.10939437
0.13209344
0.13546052
0.091346201
0.09878837
0.13701395
0.11902207
0.086773197
0.072557343
0.082760079
0.10812789
0.10560849
0.16126841
0.12636979
0.10885451
0.085736799
0.11520843
0.12679623
0.13974782
0.1383334
0.12762435
0.07408615
0.10249446
0.13240242
0.16935598
-0.052037073
-0.075302284
-0.10060523
-0.080568581
-0.092565892
-0.12320785
-0.042734736
-0.055982492
-0.079530877
-0.054220516
-0.062789669
-0.052624614
-0.090849581
-0.08354556
-0.083289998
-0.071718238
-0.034078631
-0.033285619
-0.077289654
-0.093718067
-0.073741576
-0.089568128
-0.048067888
-0.067359673
-0.061960194
-0.07643461
-0.10625097
-0.096485506
-0.1056998
-0.05938059
0.047810747
0.031989124
0.040696178
0.00027069137
0.024567763
0.036330259
0.042296679
0.026589694
0.01395219
-0.0017945327
0.0021422136
-0.0037233033
0.010266839
0.0272659
0.0089418724
-0.012064379
-0.0029946437
0.00065277865
-0.017942888
0.016198839
0.037689737
0.046683526
0.023810727
0.025118998
0.001460417
-0.0009646887
0.01417867
0.028387011
0.038756428
0.044294995
0.41357368
0.40791282
0.41919829
0.42152377
0.41433005
0.42488357
0.39704405
0.40624369
0.39915215
0.39182575
0.38806887
0.38444397
0.37715408
0.37401622
0.36673305
0.36763046
0.36362925
0.35681656
0.380802
0.3880694
0.39543936
0.38640914
0.38548778
0.39132219
0.38939101
0.38852442
0.40921245
0.39017909
0.39365369
0.395289
-0.32678833
-0.310173
-0.25927659
-0.24432656
-0.24555178
-0.26370843
-0.33579506
-0.33277041
-0.31393276
-0.29450417
-0.31840578
-0.32098581
-0.3084481
-0.29543438
-0.29545199
-0.27091928
-0.27994798
-0.28933053
-0.25405988
-0.22532784
-0.29748221
-0.31270731
-0.28729423
-0.26094835
-0.24622505
-0.22801434
-0.21915638
-0.30641662
-0.32165355
-0.31308946
0.14204379
0.097276881
0.10424441
0.10357999
0.11492921
0.075363465
0.10305379
0.13468751
0.15163364
0.12228863
0.16070345
0.17007101
0.15485847
0.1376009
0.16012944
0.13614703
0.15338484
0.14986013
0.075054195
0.081730188
0.14531433
0.1333575
0.1280065
0.11842507
0.10932447
0.096680891
0.079481712
0.12153551
0.1479753
0.20037399
-0.052603491
-0.091384303
-0.059826074
-0.034867808
-0.043420293
-0.082054468
-0.069863141
-0.058376667
-0.07162042
-0.10951741
-0.053379212
-0.063200249
-0.080613231
-0.086825435
-0.059780033
-0.064564613
-0.032417157
-0.060155052
-0.073154325
-0.079169587
-0.073868169
-0.04099793
-0.10855593
-0.050511347
-0.053166487
-0.079957419
-0.08837815
-0.099763207
-0.072477674
-0.040732069
0.027686996
0.029057042
0.0092447642
0.00059804919
0.0014983221
0.011347556
0.019526805
0.0084445943
0.023149663
0.04104606
0.029324928
0.031231628
0.028153643
0.019331872
0.00052893263
0.011882337
0.0040057245
-0.0020251553
0.0051001003
0.028807778
0.027942981
0.045092524
0.04164143
0.023832898
0.0051280804
0.010173002
0.026995425
0.037495058
0.043396455
0.0578084
)
;

boundaryField
{
    minX
    {
        type            fixedFluxPressure;
        gradient        uniform 0;
        value           nonuniform List<scalar> 
50
(
0.38867438
-0.31734834
0.18877793
-0.055839338
0.036046545
0.37941176
-0.31635301
0.16397598
-0.084556889
0.02690403
0.39847597
-0.29006827
0.12766536
-0.076223314
0.013466961
0.39487512
-0.29904755
0.15989011
-0.047801745
-0.00076937516
0.40106538
-0.33047143
0.17091798
-0.058950873
0.010268668
0.40279785
-0.33066432
0.17092599
-0.05497515
0.029608621
0.40685057
-0.31087531
0.11915994
-0.099192711
0.033366568
0.410389
-0.34325038
0.18018622
-0.046253233
0.048531689
0.41365425
-0.33841765
0.18989328
-0.052037073
0.047810747
0.41357368
-0.32678833
0.14204379
-0.052603491
0.027686996
)
;
    }
    maxX
    {
        type            fixedFluxPressure;
        gradient        uniform 0;
        value           nonuniform List<scalar> 
50
(
0.37910895
-0.26792303
0.1272527
-0.088445517
0.026329161
0.38219365
-0.30565346
0.11417437
-0.068882894
0.016049606
0.38403656
-0.30858085
0.16633368
-0.035040147
0.047748878
0.37498917
-0.30583652
0.16517827
-0.061735523
0.061995206
0.3852161
-0.26551964
0.077427675
-0.065753345
0.044093956
0.3889645
-0.21717578
0.099064189
-0.079669061
0.020661052
0.39833413
-0.23317134
0.088933071
-0.077637721
0.017217533
0.3813609
-0.31404583
0.14623234
-0.066908114
0.021258844
0.39470816
-0.32381522
0.16935598
-0.05938059
0.044294995
0.395289
-0.31308946
0.20037399
-0.040732069
0.0578084
)
;
    }
    minY
    {
        type            fixedValue;
        value           uniform 0;
    }
    minZ
    {
        type            fixedFluxPressure;
        gradient        uniform 0;
        value           nonuniform List<scalar> 
150
(
0.38867438
-0.31734834
0.18877793
-0.055839338
0.036046545
0.38969984
-0.32371153
0.17102591
-0.04998127
0.037665905
0.38833788
-0.31943918
0.17139589
-0.055082946
0.028477814
0.38416678
-0.31456631
0.14044791
-0.058836709
0.024846222
0.38452945
-0.3036558
0.14862679
-0.068391191
0.0048808749
0.40279051
-0.2698759
0.1106512
-0.065514895
0.0069729632
0.40101261
-0.25490129
0.12017122
-0.062612104
2.1333512e-05
0.40769972
-0.25666253
0.11532586
-0.049566289
-0.0038527727
0.40729629
-0.27366304
0.093602782
-0.049267068
-0.0049124041
0.38843741
-0.30062581
0.12180691
-0.0699804
0.015871981
0.3919392
-0.31578883
0.10628895
-0.04672545
0.0090701066
0.39810543
-0.3271664
0.16834005
-0.045464578
0.039275304
0.39411063
-0.3343407
0.11663288
-0.058164934
0.023802628
0.40485387
-0.29528974
0.094014701
-0.089000239
0.039801824
0.39677651
-0.24780174
0.0733015
-0.09057761
0.024344466
0.3793373
-0.25524231
0.10798128
-0.069006994
-0.0029577581
0.38148046
-0.2567005
0.11106456
-0.05773589
-0.001435185
0.3770109
-0.26715498
0.11468708
-0.074970986
0.0096796355
0.37836023
-0.28454308
0.11329876
-0.10094785
0.029668428
0.38027642
-0.3124966
0.12772641
-0.046026382
0.02402624
0.37811412
-0.30805958
0.12109713
-0.042736965
0.02100592
0.37447098
-0.29171456
0.098059917
-0.078112151
0.025137783
0.38537455
-0.23878851
0.082247505
-0.058159677
0.012786384
0.38027454
-0.24239464
0.11766166
-0.044353676
-0.0082021448
0.38768523
-0.22499743
0.10493653
-0.0049576199
0.0061086244
0.38738539
-0.2145951
0.10617438
-0.015665209
0.0086027338
0.38270871
-0.22713388
0.11071443
-0.036720226
-0.0057566001
0.38051167
-0.23698165
0.11381871
-0.048929302
0.0050053169
0.3794955
-0.25969596
0.11804922
-0.070470329
-0.0013122964
0.37910895
-0.26792303
0.1272527
-0.088445517
0.026329161
)
;
    }
    maxZ
    {
        type            fixedFluxPressure;
        gradient        uniform 0;
        value           nonuniform List<scalar> 
150
(
0.41357368
-0.32678833
0.14204379
-0.052603491
0.027686996
0.40791282
-0.310173
0.097276881
-0.091384303
0.029057042
0.41919829
-0.25927659
0.10424441
-0.059826074
0.0092447642
0.42152377
-0.24432656
0.10357999
-0.034867808
0.00059804919
0.41433005
-0.24555178
0.11492921
-0.043420293
0.0014983221
0.42488357
-0.26370843
0.075363465
-0.082054468
0.011347556
0.39704405
-0.33579506
0.10305379
-0.069863141
0.019526805
0.40624369
-0.33277041
0.13468751
-0.058376667
0.0084445943
0.39915215
-0.31393276
0.15163364
-0.07162042
0.023149663
0.39182575
-0.29450417
0.12228863
-0.10951741
0.04104606
0.38806887
-0.31840578
0.16070345
-0.053379212
0.029324928
0.38444397
-0.32098581
0.17007101
-0.063200249
0.031231628
0.37715408
-0.3084481
0.15485847
-0.080613231
0.028153643
0.37401622
-0.29543438
0.1376009
-0.086825435
0.019331872
0.36673305
-0.29545199
0.16012944
-0.059780033
0.00052893263
0.36763046
-0.27091928
0.13614703
-0.064564613
0.011882337
0.36362925
-0.27994798
0.15338484
-0.032417157
0.0040057245
0.35681656
-0.28933053
0.14986013
-0.060155052
-0.0020251553
0.380802
-0.25405988
0.075054195
-0.073154325
0.0051001003
0.3880694
-0.22532784
0.081730188
-0.079169587
0.028807778
0.39543936
-0.29748221
0.14531433
-0.073868169
0.027942981
0.38640914
-0.31270731
0.1333575
-0.04099793
0.045092524
0.38548778
-0.28729423
0.1280065
-0.10855593
0.04164143
0.39132219
-0.26094835
0.11842507
-0.050511347
0.023832898
0.38939101
-0.24622505
0.10932447
-0.053166487
0.0051280804
0.38852442
-0.22801434
0.096680891
-0.079957419
0.010173002
0.40921245
-0.21915638
0.079481712
-0.08837815
0.026995425
0.39017909
-0.30641662
0.12153551
-0.099763207
0.037495058
0.39365369
-0.32165355
0.1479753
-0.072477674
0.043396455
0.395289
-0.31308946
0.20037399
-0.040732069
0.0578084
)
;
    }
    bottomWater_to_rightSolid
    {
        type            fixedFluxPressure;
        gradient        uniform 0;
        value           nonuniform List<scalar> 
130
(
0.0096796355
0.029668428
0.02402624
0.02100592
0.025137783
0.012786384
-0.0082021448
0.0061086244
0.0086027338
-0.0057566001
0.0050053169
-0.0013122964
0.026329161
0.015903198
0.025132214
0.032678552
0.027741474
0.03412615
0.027131341
0.0088209946
0.00065108625
0.00065151457
0.0090803561
0.025622814
0.018744524
0.016049606
0.022123043
0.030776135
0.037488833
0.037532111
0.050637687
0.032820059
0.029299115
0.013516204
0.03961957
0.032431439
0.034949778
0.03738406
0.047748878
-0.010061582
0.012286965
0.023966654
0.029901553
0.034554371
0.044515989
0.035725533
0.02434281
0.046116881
0.037349794
0.053271395
0.038405597
0.061995206
0.010266971
-0.0081631848
0.016789241
0.016344797
0.023877751
0.02480954
0.031447311
0.0052292738
0.023449481
0.023626238
0.029867801
0.02515042
0.044093956
-0.0065807584
0.0039023378
0.022224212
0.020068935
0.028276726
0.025569492
0.020683205
-0.00080387899
-0.00589613
-0.004618225
0.00051588135
-0.0050753576
0.020661052
0.013350079
0.02206169
0.023699666
0.03390404
0.033433804
0.033461985
0.024807481
0.02233507
-0.0010464887
-0.012874012
-0.009160929
-0.0073042892
0.017217533
0.0098768743
0.016569141
0.027177889
0.048100947
0.060813097
0.031831054
0.026863732
0.020154853
0.0037827984
-0.008927679
-0.012951679
0.019907678
0.021258844
0.00065277865
-0.017942888
0.016198839
0.037689737
0.046683526
0.023810727
0.025118998
0.001460417
-0.0009646887
0.01417867
0.028387011
0.038756428
0.044294995
-0.0020251553
0.0051001003
0.028807778
0.027942981
0.045092524
0.04164143
0.023832898
0.0051280804
0.010173002
0.026995425
0.037495058
0.043396455
0.0578084
)
;
    }
    bottomWater_to_leftSolid
    {
        type            fixedFluxPressure;
        gradient        uniform 0;
        value           nonuniform List<scalar> 
130
(
0.036046545
0.037665905
0.028477814
0.024846222
0.0048808749
0.0069729632
2.1333512e-05
-0.0038527727
-0.0049124041
0.015871981
0.0090701066
0.039275304
0.023802628
0.02690403
0.043352961
0.029892131
0.010082848
0.019290895
0.043864038
0.031855934
0.019484415
0.011200363
0.026253548
0.021170254
0.028277631
0.032039289
0.013466961
0.02685199
0.0083503393
0.0064487625
0.032366698
0.048259486
0.043652447
0.050127149
0.024183241
0.029839303
0.01588235
0.012286802
0.0082338816
-0.00076937516
-0.00097977384
-0.013470972
0.011902155
0.029472587
0.035717422
0.047720069
0.028281811
0.019934803
0.0098506997
0.0088598164
0.017705207
0.028331526
0.010268668
-0.0014691926
0.0098183487
0.051935106
0.023178161
0.044299361
0.036151466
0.034298988
0.0093062973
0.0071619824
0.015334939
0.033795683
0.039933691
0.029608621
0.021005482
0.02239086
0.014636022
0.01775477
0.037519597
0.036021343
0.028021649
0.014608811
0.0063106376
0.032905024
0.042295418
0.048508513
0.033366568
0.020228477
-0.010536359
-0.0057269155
0.012175373
0.021864652
0.032266506
0.022735962
0.011942265
0.0015827162
0.025280028
0.037667745
0.03439076
0.048531689
0.050464976
0.037458793
9.6866694e-05
0.034887254
0.033903527
0.060236504
0.032198278
0.012174966
0.0079020027
0.0064191838
0.031431633
0.034240912
0.047810747
0.031989124
0.040696178
0.00027069137
0.024567763
0.036330259
0.042296679
0.026589694
0.01395219
-0.0017945327
0.0021422136
-0.0037233033
0.010266839
0.027686996
0.029057042
0.0092447642
0.00059804919
0.0014983221
0.011347556
0.019526805
0.0084445943
0.023149663
0.04104606
0.029324928
0.031231628
0.028153643
)
;
    }
    bottomWater_to_heater
    {
        type            fixedFluxPressure;
        gradient        uniform 0;
        value           nonuniform List<scalar> 
92
(
0.039801824
0.024344466
-0.0029577581
-0.001435185
0.027350203
0.012014854
-0.0036166926
0.008601867
-0.0027159566
-0.00021023048
0.0011930881
0.0019425153
0.38453605
0.3834824
0.38261084
0.38270647
-0.31053726
-0.29184607
-0.26514342
-0.24448229
0.11567046
0.12013177
0.10186416
0.099909884
-0.045323815
-0.10333401
-0.056753059
-0.042662459
0.026394792
0.026394792
0.024777905
0.024777905
0.0040034381
0.0040034381
0.0011319998
0.0011319998
0.40171725
0.38983397
-0.32322928
-0.21495935
0.14372327
0.1027429
-0.046460796
-0.0094291864
0.039933691
0.010266971
0.39191948
0.39336698
0.37899243
0.38338029
0.38418405
0.36940092
-0.32607577
-0.32477015
-0.32092229
-0.29858804
-0.24786295
-0.29560263
0.19717372
0.16995333
0.14396472
0.1388129
0.09410582
0.15064931
-0.055959177
-0.057564076
-0.072757408
-0.099742505
-0.036400989
-0.1033693
0.048508513
0.053043003
0.029833601
0.055164086
-0.0065807584
0.034999177
0.053043003
0.029833601
0.055164086
0.034999177
0.026132708
0.036508755
0.010190623
0.0024776952
0.0272659
0.0089418724
-0.012064379
-0.0029946437
0.019331872
0.00052893263
0.011882337
0.0040057245
)
;
    }
}


// ************************************************************************* //
