/*--------------------------------*- C++ -*----------------------------------*\
| =========                 |                                                 |
| \\      /  F ield         | OpenFOAM: The Open Source CFD Toolbox           |
|  \\    /   O peration     | Version:  v2012                                 |
|   \\  /    A nd           | Website:  www.openfoam.com                      |
|    \\/     M anipulation  |                                                 |
\*---------------------------------------------------------------------------*/
FoamFile
{
    version     2.0;
    format      ascii;
    class       surfaceScalarField;
    location    "350/bottomWater";
    object      phi;
}
// * * * * * * * * * * * * * * * * * * * * * * * * * * * * * * * * * * * * * //

dimensions      [1 0 -1 0 0 0 0];
oriented        oriented;


internalField   nonuniform List<scalar> 
3858
(
-8.2795981e-05
0.00014091094
-5.7779836e-05
-0.00014049696
0.00014753455
-8.9574161e-05
-0.00020178258
0.00014948262
-8.7629887e-05
-0.00028614216
0.00015477229
-6.9052511e-05
-0.0002913912
3.8702588e-05
-3.2194812e-05
-0.0001539739
-0.00019567084
5.6436222e-05
-4.8497419e-05
-0.0001611105
5.3936056e-05
0.00012281076
-0.00024491214
7.0811575e-05
0.00029206103
-0.00018662658
1.4738739e-05
0.00024992034
9.0244885e-05
-4.7490814e-05
0.00015780465
0.00017419826
-8.2075058e-05
-1.1930397e-05
0.00014979721
1.8684159e-05
-0.00018580457
0.00012017342
5.3149388e-05
-0.00012647668
-6.701285e-05
5.3081958e-06
5.3701655e-05
-0.00025699635
7.5905951e-05
0.00013614291
-0.00015894194
7.8506658e-05
0.00019666682
-0.00012994948
7.113243e-05
0.00020282541
-8.5861349e-05
8.2191866e-05
0.00014624101
1.7732806e-05
4.1012024e-05
-3.9665268e-05
0.000143822
4.3896385e-05
-0.00023905964
0.00015207937
4.9562039e-05
-0.00029912791
-1.2417643e-05
7.5442972e-05
-0.00020400124
-0.00020203746
0.00010812906
-0.0001599059
-0.00014177917
9.9640113e-05
-2.1862844e-05
-0.00020775197
7.0311219e-05
0.00013012956
-0.00025755753
0.00010625408
0.00018763465
-0.00017749149
0.00012153538
0.00021842428
-0.00014170615
0.00011286688
0.00019321132
-0.00010798483
0.00013531762
8.5779817e-05
0.00010946645
-9.1306915e-05
0.00038159096
-0.00014937311
-0.00020845893
0.00047307223
-0.00020838566
-0.00028936325
0.00043884033
-0.00020845339
-0.00034680891
0.0003381048
-0.00012588686
-0.00024779264
-7.2718029e-05
1.2404348e-05
-0.00011221912
-0.00050847124
0.00017722688
-3.4542846e-05
-0.00039356196
0.00015477519
7.8081583e-05
-0.00055825907
0.0002007225
0.00024361247
-0.00051117788
0.00015902042
0.00035232483
-3.4059367e-05
1.5591893e-05
0.00020401935
0.00049645807
-0.00017395432
-0.00021302466
0.00062648979
-5.9648566e-05
-0.0005218659
0.00054950336
-0.00012048869
-0.00034073115
-0.00015184543
-9.6302163e-05
-8.7084114e-05
-0.00060732291
9.6679531e-05
1.8297455e-05
-0.0004097678
0.00014544429
0.00017493986
-0.00038086688
9.4274997e-05
0.00036392584
-0.00031418827
3.9340943e-05
0.00047085536
-0.00010048503
1.1288319e-05
3.524171e-05
0.00054413475
3.5300903e-05
-0.00039540224
0.00045244075
0.00013028257
-0.00039955538
-0.00015639389
0.00014812938
-0.00022403357
-0.00052095242
0.00014339313
-0.00015915573
-0.00034612804
0.00013947102
-8.4771788e-06
-0.00045977543
0.00010134491
0.00013445427
-0.00051285305
0.00011236406
0.0002066316
-0.00037958248
0.00012991366
0.00027021097
-0.00033794695
0.00013266142
0.00025055995
-0.000319618
0.00023128419
4.1783851e-05
0.00029455592
1.5830907e-05
0.00032782603
3.7934028e-05
-6.3629183e-05
0.0004121786
0.00014035372
-8.809235e-05
0.00037608274
8.7220752e-05
4.474808e-05
0.0002143675
-9.1031244e-06
0.00025742176
-0.00034485116
5.9459449e-05
5.3729332e-05
-0.00031517821
1.03994e-05
-6.4179757e-05
-0.0003047145
2.9061627e-05
-0.00010196351
-0.00045412559
-6.6349718e-05
-0.00024753945
-0.00038325572
1.7653796e-05
-9.6563571e-05
-0.00013967296
-4.5362272e-05
2.7536767e-05
0.00031755118
5.4806563e-05
-1.1286756e-05
0.00059808701
6.7226317e-05
0.00014391991
0.00045344607
-5.9149357e-05
0.00017924824
-8.697694e-05
-0.00010019681
-0.00010442271
-0.00010496783
-0.00021868413
-8.5233064e-05
-0.00034902614
-7.9931295e-05
3.7968546e-05
-0.00046708632
-3.6982164e-05
-1.3922087e-05
-0.00020503338
-5.7264246e-05
5.0022891e-05
-0.00012781059
-3.6619414e-05
0.00015537738
0.00041723954
2.1540723e-05
0.00018553497
0.00034093337
8.1349785e-05
0.00017400982
-8.4359218e-05
-6.050952e-05
-0.0001065296
-0.00017397601
-6.6437e-05
-2.3845528e-05
-0.00039456168
-3.4250436e-05
7.4677226e-05
-0.00050492102
-5.3377169e-05
6.3557648e-05
-0.00047680397
-2.4929509e-05
5.7718704e-05
-0.00039844979
2.470625e-05
2.3273886e-05
-0.00029259309
-1.0909045e-05
-1.344958e-05
-0.00027393975
-8.9547814e-06
-8.2090399e-05
0.00011042467
-1.4734066e-05
0.00019325239
0.00014930769
-2.253324e-05
0.0002177855
0.00020219227
-8.7645997e-06
0.00024079712
0.00012151698
5.7797655e-05
6.9423157e-05
7.8382084e-05
2.2933645e-05
-0.0003335955
2.3608342e-05
-8.1007178e-05
-0.00022858771
1.7350329e-05
-0.00011685595
-0.00024589298
-2.2972746e-05
-0.00012844041
-0.00044837633
5.8352042e-06
-0.00016875586
-0.00035597273
1.3032473e-05
-0.0002301003
-6.7411539e-05
-1.0916957e-05
-3.8230928e-05
-6.0653247e-06
0.00013174716
0.00012915199
0.00033224861
9.845551e-05
0.00027632323
0.00021968984
8.6585018e-05
7.8733375e-05
0.00023976352
-0.00012915059
-2.5289428e-05
0.00017074359
-0.0001716886
1.4509238e-05
-0.00030334869
-8.5476102e-05
8.4066851e-05
-0.00049358671
-4.3057215e-05
4.9364882e-05
-0.0001090522
-6.1279215e-05
-0.0001515217
0.0001931611
-0.00012008511
6.7347986e-05
0.00015165851
4.6711349e-05
0.0002782035
6.0928143e-05
6.914971e-05
8.8659749e-05
0.00010763958
-2.4550536e-06
-3.0339415e-05
-4.4537371e-05
-1.0439479e-05
1.9961436e-05
-0.00039081032
-5.4052223e-05
5.569303e-05
-0.00046369894
-7.6953691e-05
7.6524644e-05
-0.00044474055
-5.2895051e-05
7.532481e-05
-0.00037557508
-2.1674885e-05
0.00010328927
-0.00025282573
-6.7731827e-05
0.00013754931
-0.00025021752
-5.7982285e-05
0.00011952075
-6.4061837e-05
8.9057806e-06
0.00018434661
8.3050462e-05
0.00014364082
0.00018279938
0.0001410482
0.00018743854
6.4783997e-05
2.5071386e-06
-0.0001486641
-8.7348151e-07
-0.00022520709
2.5306326e-05
-0.00027207278
-0.00012274257
-0.00030032743
-0.00027009355
-0.00020862174
-0.00023338533
-0.00010411975
-0.00017927519
-6.0175449e-05
2.5724352e-05
0.00012724909
0.00016503621
8.0377998e-05
0.00033695207
6.7847677e-05
0.0004551402
5.2555467e-05
0.00013728344
1.4508075e-05
-0.0002903321
-6.5971162e-05
-0.00032578821
-7.3596079e-05
-8.2299952e-05
-5.0327155e-05
7.9469598e-05
-1.0111042e-05
0.00017015625
-2.9758509e-05
0.00035786855
-8.0072729e-05
0.00045234578
-0.00013901461
0.00026800308
-0.00020646763
2.136403e-05
-0.0002170599
-0.00014209091
-0.00028128561
-0.00022533605
-0.00029232995
-0.0002162877
-0.00026187409
-0.00023427156
-0.00023223365
-0.00011475081
-7.4055475e-05
0.00014527527
-0.00012701297
-0.00011721628
7.7932978e-05
-0.00012164975
-0.00015551379
0.00011050453
-0.00015713748
-0.00018746001
0.00012187917
-0.00015712735
-0.00023905874
0.00016834323
-0.00014797704
-0.00017696075
7.1653025e-05
-7.7501826e-05
0.0001084585
-0.00024057799
4.0826171e-06
0.00019979966
2.2053695e-05
-4.4598125e-05
0.00020407732
0.00012405573
-0.00011555929
0.00014804781
0.00016109337
-0.00015256488
9.8465745e-05
0.0001005091
-0.00013260478
-3.0361762e-05
0.00017215801
-2.4996657e-05
-3.958483e-05
7.4900036e-05
-1.2037525e-05
0.00016445322
-0.0001929585
-6.6905871e-06
0.00014637675
0.00013029319
-3.2646731e-05
0.00013108058
0.00011081569
-1.4599384e-05
0.00012792931
0.00013278952
-5.5539087e-05
8.175369e-05
0.00016823563
-3.6739996e-05
-6.2274476e-07
0.00018975459
-6.3093393e-05
-6.3480183e-05
0.00015927604
-5.0932896e-05
-0.00017039935
0.0001735665
-1.4532154e-05
-0.00023298739
0.00012821711
1.3143042e-05
-0.00010767655
-7.3124732e-05
5.8117861e-05
-5.0223942e-05
-2.1854421e-06
4.7873179e-05
-6.0581043e-05
0.00010834382
-2.4090343e-05
1.6074205e-05
-6.6114945e-05
9.8943737e-05
0.00013940626
-0.00014762768
0.00014785564
0.00023361026
-0.00014970514
0.00016928761
0.0001597256
6.9608856e-05
0.00014215114
0.00015540934
0.00011537958
-0.00015849196
0.00024991864
-9.5524514e-05
-0.00013067112
-8.3223188e-05
-7.5050339e-05
-8.0527928e-05
-1.244508e-05
-0.00013564698
-8.8898362e-05
0.00012138726
-0.00011702452
-0.00018285561
0.00030978533
-3.5080511e-05
-8.8220149e-05
-3.1539531e-05
0.00018578396
0.00026296919
-0.00064211684
0.0002051247
0.00035564388
4.0765418e-05
8.9336084e-05
0.00010288248
0.00052758818
8.2493682e-06
-6.9373052e-05
0.00047465353
-0.00012571273
9.8958854e-06
1.7489383e-05
-0.00017020354
-0.0002139202
0.00048031018
-0.00014398465
-0.00022850339
7.2679507e-05
-0.00010368496
6.3332203e-05
-0.00055469539
-2.6400854e-05
0.00014898392
7.2492725e-05
6.8828283e-05
0.00015970698
0.00022599767
1.9539247e-05
0.00016290092
0.00030343471
-7.9564116e-05
0.00015991969
0.00034526772
-0.00013470992
0.00010011658
0.00028099604
-2.0150007e-05
-0.00016261305
0.00053552695
-7.8220376e-05
-0.000407017
0.00053902318
9.2298372e-06
-0.00037402019
8.4298502e-05
0.00015905118
-0.00019489229
-0.00032556985
0.00021671035
-0.00012261242
-0.00012670704
0.00019171274
-7.9168233e-05
9.9378291e-05
6.6866249e-05
9.6404621e-05
-0.00021671788
8.7394141e-05
0.00023547827
-0.00042267256
0.00026588488
0.00038238353
-0.00044350975
0.00027956078
0.00037786767
-1.7888474e-06
0.00030719775
0.00056931147
0.00025852145
2.6248054e-05
0.0001689931
9.2611509e-05
-0.00015917007
-6.4723678e-05
0.00030727233
-0.00017177416
-0.00013045336
0.00021783311
0.00010127526
-0.00029119309
0.0001304278
0.00030525243
9.6281043e-05
6.8986568e-05
0.00032558286
-6.5484647e-05
2.401408e-05
-0.0001627685
-0.00011770119
-7.0026533e-06
-8.4086971e-05
-3.3663309e-05
-7.0602517e-05
2.0681239e-05
0.00039571506
4.4758716e-05
8.1865852e-06
0.00037051817
7.126775e-05
1.2418134e-05
-5.3900403e-05
0.00012196482
0.00012124444
0.00036050815
7.8202066e-05
0.00019732446
-2.8186803e-05
-3.4363059e-05
-0.00022255509
-9.4880797e-05
-0.00014013183
-0.00021417109
-3.7948241e-06
-0.00015078057
7.2507407e-05
-0.00011934328
-2.1268838e-05
0.00021284145
6.9963775e-05
5.6154733e-05
0.00017433727
0.00021079204
0.00011571563
5.4762964e-05
0.00015449549
0.00020945544
-2.8220487e-05
0.0004515418
0.00018850932
6.1402204e-05
0.00045839834
7.235193e-05
0.00013770533
-1.7658011e-05
-3.4856137e-05
-0.00010868518
-0.00011962495
-2.5991407e-05
-2.3707157e-05
-0.00022177006
-2.4165443e-05
0.00027779328
-0.00030449913
4.8999804e-05
0.00035136483
-0.00026348843
-5.1730517e-05
0.00012280056
-0.00011747416
-5.1927893e-05
-0.00017685982
-0.00010892591
-4.583251e-05
-0.00010023286
-8.6182371e-05
-1.1882171e-06
0.00044576652
0.00013373675
0.00016586783
3.1083585e-05
0.00012134937
-0.00013484987
0.00033212213
0.00010606416
-0.00024305777
6.5736969e-06
9.269782e-05
4.9924822e-06
-0.00047728968
1.6428419e-05
0.00013340603
-5.076538e-05
4.224122e-05
-0.00015151314
0.00030475543
-6.7970583e-05
-0.00041061655
0.00019463965
-7.6210174e-05
-0.00049505491
8.6927307e-05
-3.0317042e-05
-0.00015392465
-2.2399095e-05
9.001638e-05
3.1771219e-05
9.1817157e-05
8.208821e-05
3.0621718e-05
6.2613527e-05
1.638275e-05
0.00023928924
0.00014115776
0.0001091384
0.00012797013
0.00022394872
-5.4231363e-05
-6.781655e-05
0.00015024432
-0.00017848901
-0.00013708323
6.9335812e-05
-0.00017555253
-1.3214351e-05
-0.000286987
-4.1701248e-05
0.00012741806
-0.00014079862
2.7072776e-05
0.00013518424
9.4407252e-05
4.7339396e-05
-3.0211893e-05
0.00014861061
5.1195917e-05
6.4037342e-05
0.00023728423
0.00016671969
0.00033471613
0.00017766833
7.9200924e-05
0.00026532935
0.00012059146
-7.1317744e-05
0.0001280491
0.00011738568
-0.00011016987
8.5331152e-05
-0.00015785959
-7.5244755e-05
0.00016690279
-0.00036970592
-9.3318547e-05
0.00014744563
-0.00021324597
-8.3680373e-05
6.4966328e-05
5.9112649e-05
-0.00011578239
-0.0001263456
0.00015890363
-0.00014424944
-0.00025930105
9.6376666e-05
-0.00010758588
8.2191397e-05
4.0212238e-05
-5.8689611e-05
0.0002741198
0.00015779891
0.00025927442
9.7079821e-05
0.00020834099
-0.00025556036
-5.9865507e-05
-0.00029262747
-0.00016236237
-8.1908035e-05
-0.0001311711
1.009914e-05
-0.0001694403
1.7663862e-05
-0.00022096484
-6.9389782e-05
-0.00014396718
-6.3474975e-05
-1.8217384e-05
-7.2705591e-05
1.1668712e-05
5.5083785e-05
0.00014061749
0.00023185747
0.00012755305
0.00034083612
0.00010911336
0.00039812927
6.4598142e-05
0.00010379222
2.1858132e-05
-0.00015436047
5.1382913e-05
-0.00017639342
4.2844132e-05
-0.00013206079
5.3950828e-05
3.0881022e-05
6.4231378e-05
0.00016710283
1.1688018e-05
0.00028793723
-8.0315673e-05
0.0004030282
-0.00013671991
0.00026196684
-0.00022326587
-7.0245013e-05
-0.00025455397
-0.00026065995
-0.00030411665
-0.00022823833
-0.00026563893
-0.00013270654
-0.00019850226
-8.800245e-05
-0.00018056108
-0.00012056187
-0.00019656462
5.7670018e-05
1.0608121e-05
-8.7988956e-05
-0.00030403148
7.0516157e-05
-1.4925938e-05
-0.00026155777
2.8312385e-05
4.6962587e-05
-0.00018522382
-3.5041054e-05
0.00012221758
-0.00020607953
-2.2008114e-05
5.3273901e-05
7.179911e-05
-8.2652609e-05
2.707662e-05
7.1399442e-05
-4.6821492e-05
-2.6133417e-05
0.00012289626
-0.00011761226
-7.9346964e-05
6.481515e-05
-0.00013130923
-1.7833929e-05
-0.00010910743
-0.00010768263
0.00024650793
-0.00034939315
-5.131284e-05
0.00027893226
2.6873751e-05
-8.2044252e-05
0.00018128484
0.00016977311
-8.2858288e-05
5.5395772e-05
0.0001712265
-5.107129e-05
-3.39071e-05
0.00014511597
-8.7750698e-05
-8.4992977e-05
0.00014321722
-0.00010393076
-0.00010300019
9.9143657e-05
-0.00013494446
-6.3549118e-05
9.9069395e-05
-0.00017094582
0.00014451336
-0.00023346205
-3.793715e-05
0.00011521143
3.9543701e-05
-5.9652832e-05
-2.378991e-05
0.00014150887
-1.6696239e-05
-0.00013408722
0.00013803338
-1.4330435e-05
-0.00019452598
0.00015219055
-3.256286e-05
-0.00019267124
5.9250498e-05
-1.1496466e-05
4.5379333e-05
-0.000227864
-3.5470322e-05
0.00022692703
-0.00016123482
7.8442815e-05
0.00022591485
6.2622124e-05
8.8179379e-05
0.00019107789
0.00013596455
7.0605486e-05
8.3990036e-05
0.00016594377
8.5529701e-05
0.00014318088
5.7383807e-05
-0.00024652473
8.2557925e-05
0.00012611231
-0.00010205279
-0.0006745694
0.00015101564
-1.8163664e-05
-0.00057788648
9.6792596e-05
0.00010930687
-0.00047432325
4.4604373e-05
0.00033608601
-0.0005271336
5.9194416e-05
0.00037391607
0.00011158112
0.0001081719
-1.5235061e-05
0.00063218912
3.3486162e-05
-0.00036478334
0.00071796671
-0.00015618608
-0.00040356838
0.00031933635
-0.00020748679
-0.00023292162
-0.00030168645
-0.00010378047
6.5807333e-05
-0.00076025209
-5.8073539e-05
0.00024166211
-0.00016735936
-0.0001256063
0.00025892579
0.00011528588
-6.6461399e-05
-3.6372937e-05
0.00045284264
-1.2718259e-05
-0.00027470903
0.00051445814
-6.2177791e-05
-0.00027122405
0.00025966027
-0.00010038879
-0.00021592762
0.00016353451
-0.00019925139
1.3775425e-05
-3.0553501e-05
-0.00023479007
0.00040104817
-0.00062452888
-1.635593e-05
0.00041795025
1.7533231e-05
-7.3111981e-05
7.6871424e-05
0.00055555293
-6.3735403e-05
-0.00031599899
0.00064482257
4.5132395e-05
-0.00049689118
0.00048071229
6.9080792e-05
-0.00032545802
9.1881577e-06
7.0341915e-05
3.3420873e-05
-0.00053828146
1.8404817e-05
0.00033569135
-0.00044496166
6.8850502e-05
0.00045268041
2.2159239e-05
0.00018935869
0.0003673355
0.00033226353
0.00016860671
0.00021974388
0.00050218868
0.00011854446
0.00060758586
1.3860359e-05
0.0002190827
-8.3934007e-05
4.0020735e-05
-8.1119093e-05
-0.00014551452
7.841925e-05
-9.1522917e-05
-0.00042046522
7.0815676e-05
-7.3269167e-05
-0.00038510432
2.2955116e-05
-0.00027336293
-8.8152233e-05
-0.00016990103
-0.00010094841
-1.0993918e-05
-2.5825404e-05
-8.3639954e-06
0.00056121824
-2.861619e-05
-4.2022481e-05
0.00068026604
7.5664373e-07
0.00018951143
0.00017692447
-4.4363302e-05
1.4870831e-05
-9.0649364e-05
3.4871267e-05
-0.00040366794
-0.00019043472
-2.9313772e-05
-0.00033959408
-0.00018972467
3.6493528e-05
-0.00014669201
-5.6436675e-05
-5.554256e-05
-8.1813419e-05
0.00025207659
-4.2443527e-06
-0.000101307
0.00028425644
9.891473e-05
9.1311152e-05
-5.7715773e-05
0.00010348907
0.00031905861
-6.2976955e-05
5.4918744e-05
0.00039029932
-8.3051096e-05
9.6972517e-05
-7.3317927e-05
-0.0001168646
0.00016540841
-0.00012021908
-3.373625e-05
0.00028667996
-3.6983084e-05
0.00043236749
0.00011230137
-0.00010159447
0.00059946314
7.5114685e-05
4.2273477e-05
0.0003385779
-2.7724975e-05
0.00023965019
-0.00015655544
-5.5798568e-05
-4.1806475e-06
-0.00023464099
-1.0809842e-05
-0.00022400592
-0.0001162514
-0.00016061552
-8.6483598e-05
-8.8956058e-05
-7.8334921e-05
2.0898014e-05
0.00021689507
-3.7845665e-05
2.6185305e-05
0.00042793144
6.7781728e-05
0.00056134236
0.00020616555
4.3696208e-05
-9.6900396e-05
9.0619549e-05
-0.00013114272
0.00010250143
3.2887132e-05
-0.00010162461
-0.0004295405
7.225498e-05
-0.0001184747
-0.00038210628
3.0280474e-05
-0.00022951133
0.00015634119
-9.1215577e-05
-0.00034137731
0.00021108219
-0.0001781807
-9.3527236e-05
0.00029255726
-5.5399271e-05
0.00010757142
0.00042184354
2.7006809e-05
0.00013417532
0.00017838812
6.1948846e-05
-7.6425378e-05
0.00013903556
6.3003998e-05
-0.00014744996
-5.531659e-05
-4.7710773e-05
-0.000215303
-0.00015352963
0.00014079641
-0.00017688499
-7.4655721e-05
-7.4430295e-05
3.2721947e-05
-0.00012566095
-1.0358394e-05
0.00016098213
-0.00016973176
0.0001501755
0.00027525346
-0.0002842679
7.0579556e-05
0.0003075759
-9.8519308e-05
3.0292698e-05
9.414788e-05
0.00016999974
7.7165888e-06
-0.00016118085
9.3730775e-05
9.5929273e-05
-0.0002682971
0.00012419924
0.00011590045
-7.3965736e-05
0.00019450328
0.00012273376
9.9829581e-05
0.00035473821
-3.8814398e-07
0.00025627504
0.00016105459
-8.9092029e-05
0.00017058601
-5.4696375e-05
-9.1414796e-05
8.3875537e-05
-0.00017193998
-6.9309097e-05
-0.00017102747
0.0001618175
-0.00010684627
-0.00028382788
0.00012445618
-0.00021639424
-0.00017164095
0.00010337747
-0.00014291877
-0.00010159783
0.00023245871
1.7843734e-05
0.00032841838
0.00017153839
-0.00010257221
0.00027979162
3.9900249e-05
0.00021930339
-0.00020944105
2.814179e-05
-0.00049599429
-0.00015541855
-0.0003912058
-0.00011080968
-0.00020839551
-0.0001028992
-1.6427301e-05
-6.8851248e-05
0.00019813239
-1.3680981e-05
0.00020560603
2.6947309e-05
0.00022382978
0.00010259444
0.0001939949
-1.3812976e-05
0.00021162462
-3.0541837e-05
0.00030385988
-3.9337914e-05
0.00028744139
-1.2909799e-07
0.00015018448
3.2123307e-05
-0.00013624339
2.4018113e-05
-0.0002921092
0.00010872942
-0.00025430399
0.00017503867
-0.00027559758
0.0001689752
-0.0002162685
0.00012910153
-9.6126397e-05
8.6049193e-05
0.00014984182
2.8454318e-05
0.00027313829
-9.8961803e-05
0.00011832821
-0.00012315217
-0.00019282451
-0.00011534123
-0.00018902324
-0.00014610043
-0.00018942235
-0.00014078364
-0.00018066331
-0.00010388383
-0.00015560244
2.6836764e-05
5.2254077e-05
-0.0001744601
0.00010162564
8.2769075e-05
-6.3529215e-05
-0.00019287482
0.00014975013
5.7063973e-05
-0.00018673133
9.2068524e-05
0.00017760365
-0.00018607273
2.6538175e-05
0.0001716246
-2.554537e-05
5.0238608e-06
3.6280945e-05
0.00011799005
-6.8882777e-05
-6.3532649e-05
0.00010968163
-6.1908412e-05
-0.00013886242
7.1337817e-05
-0.00011616906
-7.902233e-05
-0.00013674848
-5.8648108e-05
5.239495e-05
-0.00024041925
2.1800445e-07
0.00024443514
-0.0002696507
2.5170302e-05
0.00029749077
-0.00013641771
2.047551e-06
0.00015007707
0.00011719547
-5.0546963e-05
-6.2446919e-05
0.00016257091
-0.00017491103
2.5964501e-05
-0.00013038558
-0.00014692801
-7.8377559e-05
-0.00018545741
-2.0272474e-05
-0.00016271318
-6.4146049e-05
0.00016028464
-0.00026187068
4.4292579e-05
0.00030417189
-0.00020604092
4.3367243e-06
0.00018419843
0.00012416472
-1.6364998e-05
3.8738932e-05
0.00016905508
-3.5079166e-05
-6.0460595e-05
0.00014268209
-7.4722453e-05
-7.5929118e-05
0.00010860671
-0.00010084025
0.00013621942
-0.00017286166
-7.3982821e-05
0.00014197989
0.0001176391
-3.9964122e-05
9.8702358e-05
0.00017774891
-4.3228567e-05
8.8339577e-05
0.00013742864
-5.3782486e-05
2.6080525e-05
0.00014624929
4.0192554e-06
0.00012506162
-3.8952415e-05
-0.00014857941
0.0001342543
0.00024206306
4.8603432e-05
-0.00047980579
0.00024076376
0.0002335821
-0.00043997768
0.00016506028
0.00048436673
-0.00050376573
0.00011151273
0.00053031006
-0.00011478464
0.00010249036
0.00011163575
0.00063617519
8.66106e-06
-0.00036193923
0.0007125769
-9.583413e-05
-0.00045987993
0.00018979094
-0.0001766985
-0.00028443291
-0.00039784625
-0.00012183604
-6.1645472e-05
-0.00055924969
-7.7374621e-06
0.00017974443
-0.0005671558
-1.9583298e-06
0.0003201404
-0.00043634034
3.3920367e-05
5.1230384e-05
0.00027595752
4.3686573e-05
-0.00038599869
0.00058708174
-0.00035332861
-6.8883369e-05
-0.00016379824
-0.00043684716
-8.0991869e-05
-0.00046751518
-2.9396182e-05
-0.00041181583
-3.7283108e-05
0.00015049984
-0.00053589041
7.7767782e-05
0.00037482589
-0.00051724603
1.3767085e-05
0.00041015342
4.5291181e-05
-2.0189393e-05
0.00013986724
0.00050449928
-2.0025619e-05
-0.00023824951
0.0006870602
-9.7180574e-05
-0.00024871179
0.00032229658
-0.00013288568
0.00017631843
-0.00053097894
-4.8508126e-05
0.00040136349
6.9674284e-06
-4.5522897e-05
0.00026396575
0.00057127269
-6.6767338e-05
6.5905057e-05
0.00056879942
-6.4703381e-05
-9.7342987e-05
0.0004699572
-4.19154e-05
0.00012493692
-8.3357938e-05
0.00029212676
-0.00021237104
9.4519301e-05
0.0002141052
-0.00034805923
2.4694251e-05
0.00023114348
-0.00041738938
3.1189097e-05
-4.3183405e-06
-0.00016326744
-8.2081354e-05
-4.530993e-05
-7.498436e-05
-0.00016870972
4.2318178e-05
0.00058606149
-6.3339817e-05
0.00013154997
0.0006647633
-7.003437e-05
0.00018558414
0.00010356817
3.2945248e-05
-1.4693093e-05
-0.00013747419
-0.00010445812
-3.6444678e-05
-0.00045431632
-4.8310499e-05
-0.00010274482
-0.00043640425
-9.3765176e-05
-0.00018026237
-0.00013181711
-0.00019051213
-0.00011937543
0.00019684605
-3.7318019e-05
-3.0797395e-05
0.00049425936
9.6558059e-05
-9.7324084e-05
3.2045442e-05
-0.00026884546
0.00011157127
-0.00049212225
0.00011820407
-0.00036876846
4.7292356e-05
-0.00018760169
-9.9667188e-05
3.4990957e-05
-0.00036486288
-0.00010865127
5.5346392e-05
-0.00019210282
-4.2957911e-05
2.7790401e-05
-3.1881024e-05
0.00041203535
7.3568127e-06
3.9278498e-05
0.000663019
-7.4843308e-05
8.2040219e-05
0.00022609995
-2.3636755e-06
-0.00021468705
-0.00019850445
-4.655708e-05
-0.00014602508
-5.8490048e-05
-0.00016382001
-3.1971529e-05
0.00048742941
-0.0001085452
-2.0222486e-06
0.00056262741
-6.1622934e-05
5.7533996e-05
0.00040345864
7.4724043e-05
7.0781974e-05
0.00031785449
7.3799895e-05
-0.00034380758
0.00014825619
2.7003821e-05
-0.00034097902
7.2602991e-05
6.9405985e-05
-0.0004230883
3.5551729e-05
-9.7243048e-05
2.8604028e-05
5.058042e-06
-0.00028207112
0.00018464336
-0.00016601524
-2.3999223e-05
0.00024176692
-9.1958013e-05
0.00025176215
0.00036066128
-2.705862e-05
0.00011303114
0.00016566418
0.00010364182
-3.7378237e-05
5.7853451e-05
1.7030602e-05
-5.4635861e-05
-0.00042387174
4.9817052e-05
-0.00012737708
-0.00045454366
4.3169883e-05
-0.00024310969
-6.9105789e-06
0.00013162252
-0.00019482551
0.00010606363
-3.1932025e-05
6.8425936e-05
0.00022064953
-6.4466104e-05
0.00018574347
-9.9390855e-05
-0.00016334115
-6.7518233e-05
-0.00049370217
-0.00011416939
-0.00033855701
2.4156296e-05
-0.00019892926
4.4335393e-05
3.6686572e-05
-0.0002892839
7.2214333e-05
2.5389497e-05
-0.000291775
0.00011132755
-2.9060598e-05
-5.7668311e-05
0.00019716644
-1.962594e-05
0.00016672193
0.00038546903
-3.5932301e-05
0.00028713467
4.1272428e-05
-2.7000031e-05
9.0912599e-05
-7.1435696e-05
-1.5578704e-07
-0.00025587606
0.00031334038
-0.00013188805
-0.00010388836
0.00027694775
-0.00015790029
7.9425931e-05
0.00032020646
-8.3812115e-05
0.00020360753
0.00017907688
0.00011804389
0.00024719817
0.00019872972
-0.00011829128
5.4275322e-05
-0.00021965957
-2.0307346e-05
-0.00044304679
-0.00017155929
-0.00041531089
-0.00015455043
-0.00026872777
-7.2749422e-05
-4.173745e-05
-8.8122603e-05
0.00026268095
-1.2608364e-05
0.00037153322
4.3130944e-05
0.00038128953
7.5044463e-05
-1.4499058e-05
7.4511305e-05
-0.00037559652
-0.00010725916
-0.00029100827
-0.00012204065
-0.00010014046
-0.00012414207
0.00012037999
0.00033824677
0.00019892375
-0.000186049
-0.00048345881
0.00013389148
-0.00042802971
0.0001578815
-0.00034124489
0.00011453104
-0.00024669355
0.0001028254
-8.4481712e-05
6.3408923e-05
0.00016934943
3.2676073e-05
5.007806e-05
3.7391613e-05
-0.00023667131
9.997243e-05
-0.00018584471
0.00011641335
-0.00010065612
5.0975502e-05
-1.8002268e-05
0.00013366877
-5.4680843e-05
0.00024259221
0.0002447714
-7.8895829e-05
0.00014709168
1.2811957e-05
-6.7481656e-05
9.0310803e-05
4.6315601e-05
-6.4342108e-05
0.00010082393
-1.3281704e-05
-6.8519209e-05
0.00010464938
-7.5931768e-05
-9.3136561e-05
0.00014696167
-0.0001203171
-0.00015142908
0.00015184771
-0.00016571935
-0.0001810333
0.00010612573
-0.00014159874
-7.9522961e-05
-0.00012493581
-9.6748797e-05
2.9791985e-05
-0.00010347892
-6.7792045e-05
0.00018752059
-0.00016304048
2.2124496e-06
0.0003285233
-0.00014271465
2.4201001e-05
0.00023556091
4.7409388e-05
4.7242998e-05
0.00013457316
4.8665094e-05
7.083448e-05
-0.00023586857
0.00010114001
0.00014569518
-0.00017465381
0.00014478776
0.00031918223
-0.00030568892
0.00013571308
0.00027174841
-3.9789416e-05
7.2813902e-05
0.00010663008
0.00012909349
2.0984774e-06
-7.5079282e-05
0.00012300798
-1.6889389e-05
-0.00010126999
1.8270077e-05
-9.10966e-05
0.0001623205
-0.00030671172
-3.293026e-05
0.00017704367
2.6706675e-05
-8.0293558e-05
8.9307049e-05
0.00013984166
-9.4477326e-05
-3.8701315e-05
0.00014893694
-7.4360851e-05
-0.0001589291
0.0001511035
-2.4126971e-05
-0.00017924833
-1.7642295e-05
-0.00010448993
0.00039029196
0.0001033527
-3.9590336e-05
0.00014020424
0.00012597072
7.3081326e-05
6.7670159e-05
8.5542384e-05
0.00023957584
1.4312078e-05
3.5355509e-05
4.0523186e-05
0.00044705443
1.4502505e-06
-0.00034392821
0.00064259845
-9.7638293e-05
-0.00041308493
0.00015424771
-7.4799385e-05
-0.00021227958
-0.00042242024
-8.0019425e-05
-5.6949905e-05
-0.00029922395
-8.1420677e-05
0.00021382172
-0.00042595489
-1.5594666e-05
0.00046963528
-0.00038343014
-1.7056394e-05
0.00053321205
-3.2851581e-05
5.0604577e-05
0.00064869655
6.2775234e-05
9.2505742e-05
-0.00048372227
0.00011806486
0.00019142439
-0.00036270302
0.00016689835
0.00040185281
-0.00064720605
0.0001448558
0.00041908742
-0.00018115553
0.00010394211
0.00011211685
0.00042598022
-9.9417839e-06
-0.00029361362
0.00054383456
-0.00011227668
-0.00015128792
-7.2691971e-05
-0.00018424934
0.00026850049
-0.00070020227
-7.4805998e-05
0.00042430827
-2.517204e-05
-0.00014945197
8.7774134e-05
0.00067575548
-0.00026614703
-0.00027106718
0.00065845434
-0.00021537948
-0.00022600335
0.00010078652
-3.6662248e-05
-0.0005277911
3.9181481e-05
8.8486813e-05
0.00027198081
0.00012434363
0.00023164366
-0.00015077052
0.00017251216
0.00022059102
-8.5235904e-05
0.0001951478
0.00020698064
-0.00010996874
5.5809836e-05
0.0001019109
0.00028109492
0.00010231953
0.00016386946
0.00059857634
-8.1276268e-05
0.00028363249
7.3597545e-05
-0.00010914722
4.4807272e-05
-0.000106889
-4.3760767e-05
2.4732748e-05
-0.00029085504
-9.2752492e-05
0.00014606264
-0.00052494465
-7.0650614e-05
-2.4192194e-05
-0.00036206515
5.5124687e-05
7.0385507e-06
-9.2362335e-05
-0.0001622321
0.00061151758
6.8995183e-06
4.7750742e-05
-0.00050003273
1.5852082e-05
6.041427e-05
-0.00028284886
-5.752673e-05
-0.00022891444
-0.00011638373
-0.00018614721
-0.00019581749
-0.00012143301
-6.5029068e-05
-1.3339264e-05
0.00030812086
-5.7262053e-05
0.00017896782
0.0003966986
-0.00012001444
0.00027762238
-7.3143253e-05
-0.00010056697
-8.1832324e-05
-0.00033487452
-5.2430128e-05
-1.9303028e-05
-0.00013105669
-0.00012046467
0.00011401304
0.00054431573
-0.00011042152
0.00016108066
0.00056139373
-1.1629951e-05
0.00027808932
1.1570631e-05
4.6931267e-05
-0.00010069722
0.00016884993
0.00025273465
8.389697e-06
0.00015911265
0.00039847214
-0.00033153934
0.00010763431
0.00028143595
6.0588773e-05
6.7632405e-06
-0.00010508307
0.00039833409
-0.00011672577
-8.6754924e-05
7.3813744e-05
2.2937796e-05
0.00022715569
0.00025703932
-6.4331601e-05
0.00023911749
0.00016077092
-0.00012619379
0.00011844636
0.00010290495
1.4519009e-05
0.00014428367
-0.00023507246
-6.4589275e-05
0.00019024547
-0.00054056487
1.9475481e-05
-6.8470989e-06
-0.00022671425
0.00010491158
-0.00021913434
0.00027077666
-1.9229212e-05
0.00034563822
1.4813021e-05
-7.2756128e-05
-0.00048354358
8.0423282e-05
-9.1467503e-05
-0.00027590022
4.8449314e-05
-0.00018809734
1.6421086e-05
-1.0785475e-05
-0.00019506658
-3.8212307e-05
-0.00010531206
7.154452e-05
8.2183718e-05
-6.0299901e-05
0.00026153229
0.00018008811
-9.3096017e-06
0.00019875129
6.7650624e-05
-0.00010501292
0.00010903865
-0.00030237067
5.7052989e-05
-6.5763322e-05
-4.3096276e-06
-8.383315e-05
0.00011617881
0.00021199481
-7.5215128e-06
0.0003790478
0.00012484841
8.9864213e-05
0.00029723884
5.507275e-05
0.00015635072
0.00016603554
0.0002292358
0.00010295387
-4.0288855e-05
-0.00015811312
-9.0779705e-05
-0.00022976966
-3.9313991e-05
-6.7044396e-05
8.1058405e-05
-9.1482543e-05
2.5502471e-05
0.0001082726
-3.0838424e-05
0.00031410029
-5.7665116e-05
0.00048044604
-2.0309842e-05
0.00033908399
-1.8665927e-05
-0.00013381028
6.8407304e-06
-0.00041269688
-5.5086794e-05
-0.00022835952
-3.5601337e-05
-6.8633659e-06
-0.00035259884
2.9467532e-06
-0.00045002802
-2.0589537e-05
-0.00030816986
-1.0906027e-05
-0.00020725249
-3.6304277e-05
-2.3064864e-05
-3.8594989e-05
0.00018666973
3.0295865e-06
0.00026308021
2.8631752e-05
1.17486e-05
4.8933361e-05
-5.4448275e-05
0.00017830059
2.5044137e-05
0.00018347789
-3.0844279e-05
0.00031440559
-9.4798158e-05
0.00036161884
0.00031600878
-7.5954109e-05
0.00014802038
-6.1326935e-05
-0.0001050789
0.00013853675
-6.4581855e-05
6.0950564e-05
-0.00012908054
-5.2792628e-05
0.00015993673
-8.8895462e-05
-8.8894753e-05
7.5067909e-05
0.00010794583
-0.00014581931
-4.4184499e-05
0.00013009929
-0.00018011778
-9.7556306e-05
6.8913464e-05
-0.00016103298
3.1431723e-05
-0.0001088497
-0.0001202648
0.00020981616
-0.00013154528
-0.00011704391
0.00019778165