/*--------------------------------*- C++ -*----------------------------------*\
| =========                 |                                                 |
| \\      /  F ield         | OpenFOAM: The Open Source CFD Toolbox           |
|  \\    /   O peration     | Version:  v2012                                 |
|   \\  /    A nd           | Website:  www.openfoam.com                      |
|    \\/     M anipulation  |                                                 |
\*---------------------------------------------------------------------------*/
FoamFile
{
    version     2.0;
    format      ascii;
    class       volScalarField;
    location    "570/bottomWater";
    object      p_rgh;
}
// * * * * * * * * * * * * * * * * * * * * * * * * * * * * * * * * * * * * * //

dimensions      [1 -1 -2 0 0 0 0];


internalField   nonuniform List<scalar> 
1460
(
0.29730972
0.29483004
0.29797635
0.3014565
0.30469777
0.29643479
0.29182029
0.28966327
0.28909193
0.2943013
0.29834293
0.28901275
0.30594872
0.30520095
0.30112881
0.30361608
0.2843433
0.29772765
0.28829851
0.28901932
0.2974088
0.29381621
0.30271143
0.27554012
0.28629551
0.28601638
0.28055322
0.28931766
0.27589315
0.27881093
-0.26825539
-0.2506544
-0.25581199
-0.27217113
-0.27329141
-0.2737621
-0.24602942
-0.25586747
-0.25940188
-0.27271083
-0.27700348
-0.26945695
-0.21078937
-0.18275358
-0.18597803
-0.18464921
-0.22422757
-0.20092212
-0.24895905
-0.26297495
-0.26611799
-0.25064599
-0.21656255
-0.24233438
-0.25155247
-0.25337456
-0.23618333
-0.20248135
-0.23073295
-0.24547435
0.10823272
0.083055856
0.094242535
0.10244017
0.12774215
0.082576715
0.08765927
0.077751654
0.082413704
0.10374495
0.086324842
0.050459395
0.028443851
0.02718345
0.064167268
0.051064563
0.081895199
0.042519558
0.043393646
0.074739717
0.076041871
0.062892237
0.020632091
0.051368637
0.078265744
0.1003735
0.067513246
0.052178699
0.058506172
0.079850222
-0.048533842
-0.088614548
-0.086762765
-0.043150826
-0.035351295
-0.053388289
-0.071704506
-0.082049683
-0.067692377
-0.035473564
-0.032010981
-0.066724455
-0.047815735
-0.069819013
-0.031022307
-0.019813678
-0.054021717
-0.057705128
-0.061941375
-0.043915022
-0.033358957
-0.071970978
-0.054455043
-0.06606371
-0.0018714068
-0.014942313
-0.048209783
-0.046217189
-0.065766335
-0.046616409
0.015157805
0.036554583
0.039055142
0.024776255
0.035811393
0.0080363602
0.035474155
0.0314784
-0.00089898485
0.017676266
0.014986926
0.017956958
0.012823941
0.0051573887
-0.01719682
-0.0045434025
-0.013638127
0.0099653702
0.012552575
0.014288965
0.022883087
0.018329689
0.012280829
-0.0053712675
0.00031884142
-0.0002422458
-0.0079536111
-0.0016209487
0.015889866
0.0063714853
0.29804172
0.30101318
0.30719252
0.29316832
0.30160408
0.30813504
0.31639025
0.31025314
0.28401324
0.2955466
0.30103684
0.30130526
0.29946252
0.30339523
0.30656455
0.29692764
0.30339417
0.29158343
0.29120953
0.30191509
0.30145335
0.29778881
0.30308852
0.28813281
0.28182186
0.27674731
0.30336298
0.28167415
0.27916353
0.28401728
-0.26105802
-0.23137556
-0.22193668
-0.24893123
-0.25226895
-0.24177224
-0.19759764
-0.2244575
-0.27951434
-0.27571734
-0.27922201
-0.28492965
-0.27860262
-0.24808753
-0.21527527
-0.20331643
-0.20832364
-0.26010208
-0.28018892
-0.26457739
-0.28011126
-0.2654162
-0.2034715
-0.21327517
-0.23518732
-0.23467822
-0.20530075
-0.23802344
-0.25512619
-0.25288939
0.076546293
0.040926026
0.047111378
0.054112651
0.054996098
0.045716176
0.034001248
0.027614272
0.054977105
0.078415125
0.092041947
0.089905565
0.066703585
0.040636879
0.056476948
0.058021915
0.027633838
0.04609861
0.044527744
0.10977892
0.066390154
0.043986939
0.02672331
0.049553945
0.077295795
0.078823462
0.034995388
0.04950313
0.068491548
0.097487967
-0.070843745
-0.086537891
-0.076164102
-0.093912093
-0.083504168
-0.077547984
-0.073396917
-0.070163075
-0.059388785
-0.034675074
-0.029881824
-0.043530141
-0.048626414
-0.085082821
-0.040766774
-0.057014197
-0.079659007
-0.08124087
-0.056942956
-0.03510168
-0.036815716
-0.083891169
-0.077979254
-0.060237555
-0.04954995
-0.04927208
-0.059471556
-0.059636667
-0.046921281
-0.02662961
-0.0080932986
-0.0097650573
-0.012349224
-0.0083594554
-0.0089022441
-0.021749742
-0.013286378
-0.0094661849
-0.0079343033
0.0061564541
0.011876574
0.012387383
0.0043852416
0.0048277203
-0.01975371
-0.01301397
0.00024644513
0.010178532
0.016799789
0.030405632
0.022141012
0.016709164
0.0083901327
-0.012964393
-0.010531056
0.0046441929
0.0097463597
0.0067947188
-0.008865429
-0.0051102048
0.31205879
0.31344502
0.31530786
0.31653143
0.31708844
0.31478545
0.31335193
0.30306882
0.29985073
0.29550777
0.29069103
0.29103036
0.29317517
0.29746645
0.28716573
0.30729097
0.29847015
0.2941188
0.30187566
0.29766453
0.29249851
0.30057787
0.29524637
0.29699038
0.29716641
0.29926357
0.28789706
0.2838816
0.29110416
0.28795379
-0.26369433
-0.23086303
-0.19984057
-0.20759173
-0.19820564
-0.19737701
-0.21457001
-0.2661517
-0.2773259
-0.27804306
-0.26029171
-0.25976544
-0.26625755
-0.26677855
-0.25918991
-0.2256104
-0.24272797
-0.27915643
-0.27335254
-0.27191046
-0.26706145
-0.22122709
-0.19689818
-0.19026993
-0.19928169
-0.21143864
-0.24340822
-0.26165393
-0.25962024
-0.24908578
0.087533356
0.050884155
0.072311139
0.061563236
0.062478717
0.061316355
0.060376408
0.061021314
0.092326901
0.098155882
0.082844156
0.10251375
0.10468549
0.067019606
0.080437075
0.039280388
0.04462535
0.060354426
0.10930805
0.082511448
0.046305373
0.032360991
0.053817393
0.059720875
0.054386322
0.03629632
0.051797916
0.066928643
0.10145725
0.1084116
-0.040998879
-0.056198097
-0.04458628
-0.036387931
-0.032606401
-0.029457545
-0.051876612
-0.060707903
-0.033944623
-0.02808157
-0.079715718
-0.082510807
-0.043694939
-0.051152006
-0.059293567
-0.065216445
-0.089012348
-0.062872661
-0.041758301
-0.038623979
-0.089781959
-0.078110313
-0.062421231
-0.041624119
-0.052754518
-0.061441931
-0.07038835
-0.040259317
-0.035370676
-0.063199937
-0.0030819694
-0.012256379
-0.020212619
-0.021284314
-0.019491242
-0.024957396
-0.023395441
-0.014036939
-0.0084000821
0.0036698882
0.019015317
0.042933818
0.009019701
9.1667238e-05
-0.011700272
-0.0050388164
0.0061135005
0.013462687
0.030827477
0.023638135
0.019951203
0.0054440161
-0.014784406
-0.010908425
-0.0047295836
0.011011531
0.012983109
-0.00045911521
0.0028253623
0.025958007
0.30678675
0.30284592
0.31610435
0.29731178
0.3144678
0.31188788
0.31122189
0.30988574
0.31189017
0.30863553
0.32067411
0.30659786
0.307664
0.30053205
0.29717047
0.29495874
0.29360576
0.29924505
0.29942725
0.29591206
0.29715026
0.30262194
0.30217819
0.30263143
0.29263433
0.28869664
0.29001485
0.28863365
0.28307733
0.28734102
-0.27605876
-0.26632507
-0.21653516
-0.22830647
-0.20064167
-0.20310329
-0.23918151
-0.27200791
-0.27590511
-0.26009303
-0.20852621
-0.2191443
-0.21913703
-0.21888755
-0.23009526
-0.24282859
-0.26968384
-0.27359036
-0.2777374
-0.28067193
-0.26061933
-0.21241453
-0.18540547
-0.18976827
-0.23096273
-0.26112073
-0.26108375
-0.25872965
-0.24496943
-0.24255904
0.080994022
0.047203286
0.044577824
0.083006956
0.049236889
0.057548611
0.026267039
0.065578245
0.077509502
0.048218061
0.036678689
0.054736031
0.058319359
0.080756851
0.081478844
0.073364991
0.075730339
0.10768033
0.10626873
0.081274287
0.047381604
0.047838851
0.060248448
0.04778994
0.049148194
0.066050552
0.087348384
0.10419386
0.096765326
0.10071162
-0.054579629
-0.098040852
-0.073091442
-0.075577524
-0.033411051
-0.031547654
-0.072839201
-0.044922683
-0.031742222
-0.080944705
-0.056732335
-0.049058776
-0.040554452
-0.060013404
-0.076329822
-0.092747827
-0.082212382
-0.056477249
-0.037008872
-0.043704921
-0.075167722
-0.056803281
-0.035486537
-0.027117345
-0.05959973
-0.055790248
-0.04462215
-0.034270193
-0.075136769
-0.05942069
0.010813704
0.010630381
0.0013259887
-0.023261603
-0.011984582
-0.0090965457
-0.0098013089
0.0021947552
0.01024543
0.011758575
-0.002104091
-0.019772148
-0.017366015
-0.016483801
-0.014415626
0.0058468228
0.0058012544
0.018294929
0.022016183
0.016108213
0.011222263
-0.015033584
-0.01813638
-0.0036561326
-0.0097056623
0.0025945429
0.013487232
0.013547399
0.0370476
0.028769041
0.31640622
0.31038041
0.31455328
0.31882386
0.3162757
0.31795627
0.31339708
0.31552251
0.31082794
0.32301884
0.32315322
0.28862819
0.29792395
0.29830451
0.29716058
0.29368061
0.29350141
0.30582421
0.29552026
0.29063842
0.29201738
0.29512717
0.30256087
0.28935485
0.31011241
0.28844475
-0.28068325
-0.2961128
-0.26552896
-0.21923725
-0.21284173
-0.23085398
-0.25464893
-0.28549791
-0.27217101
-0.21512211
-0.19661669
-0.26717654
-0.25211274
-0.24811155
-0.26214756
-0.27143629
-0.26183989
-0.19137844
-0.19627555
-0.24968366
-0.26013278
-0.26932064
-0.2621213
-0.25668832
-0.2259977
-0.23278168
0.13358135
0.063813647
0.059441873
0.041522188
0.066629862
0.057868154
0.058630834
0.066751417
0.066376566
0.036727014
0.033716799
0.0785573
0.10152013
0.10488276
0.10709362
0.088692578
0.045081975
0.031721146
0.044772962
0.074019926
0.094870028
0.09563159
0.093610616
0.06961101
0.027731407
0.079848667
-0.04010418
-0.060133418
-0.094073841
-0.093918234
-0.067290372
-0.056861263
-0.1282567
-0.042877297
-0.082998044
-0.063361615
-0.073497254
-0.070684405
-0.038995226
-0.085146027
-0.072682675
-0.051703252
-0.084833882
-0.067798533
-0.07316671
-0.035528696
-0.058605512
-0.041587634
-0.04347818
-0.072507459
-0.063189393
-0.06116264
0.030599589
0.017991525
0.012996009
0.0014668123
-0.009858759
-0.0042703251
0.0097036157
0.019904977
0.019977988
0.028978718
0.01484217
-0.015493354
-0.0055617278
0.023473721
-0.0037348708
-0.0056092057
0.0019625865
0.0053579642
-0.027608007
-0.015166414
-0.015851639
0.0022952745
0.0059897459
0.019551009
0.018694492
0.0078037157
0.31215321
0.31133326
0.30947659
0.30418064
0.31926587
0.30616209
0.29747466
0.29616833
0.28930805
0.27813094
0.2886059
0.2849059
0.28934711
0.2859269
0.29710895
0.29473797
0.29707139
0.29249958
0.29011945
0.28328517
0.2903089
0.28837034
0.29751741
0.30921348
0.30623964
0.30158266
-0.28140789
-0.2941722
-0.29002482
-0.26278926
-0.23345408
-0.25435172
-0.29299568
-0.28685233
-0.2827907
-0.26411124
-0.26374093
-0.27161813
-0.26741412
-0.24224295
-0.23539831
-0.26805828
-0.27291735
-0.24476867
-0.2360643
-0.25667112
-0.24452309
-0.24228159
-0.21354622
-0.18763297
-0.20504508
-0.24909476
0.15023826
0.12064492
0.067187496
0.06386284
0.049622446
0.065014704
0.054047727
0.11942162
0.1006479
0.091497458
0.075235609
0.085235282
0.099956872
0.085370585
0.033913586
0.11000817
0.087344315
0.05485742
0.047585796
0.089240939
0.09902089
0.069723585
0.029751095
0.03792326
0.067307393
0.11006319
-0.029387651
-0.045008595
-0.053939506
-0.10126093
-0.045937776
-0.0690661
-0.058306117
-0.037354714
-0.049399398
-0.069584398
-0.070589222
-0.065033404
-0.050471447
-0.043663411
-0.060128096
-0.046351831
-0.052477361
-0.083903837
-0.073662925
-0.070940324
-0.044168353
-0.059972244
-0.060330026
-0.053844421
-0.04696298
-0.020242545
0.039991698
0.031414788
0.015157161
0.0092870459
8.0931938e-05
0.0046651364
0.0049179707
0.028309987
0.02324026
0.034615403
0.025133058
0.00034595421
0.0024279639
0.0037670902
0.0085196312
0.013203812
0.010688808
0.021169358
0.0031990232
-0.0081497615
-0.011350803
-0.012928113
-0.0063152916
0.008240334
-0.0053601149
0.0025914896
0.31255533
0.30739141
0.31434047
0.31099891
0.31719938
0.31131399
0.3066806
0.31324322
0.31369639
0.31212733
0.30946442
0.30520401
0.30232612
0.30168494
0.30399533
0.30526928
0.31008505
0.30268069
0.31389738
0.28958196
0.29570617
0.29637147
0.28899788
0.29438001
0.29008168
0.28877311
0.28830456
0.28955018
0.31185366
0.29780956
-0.28175938
-0.28024123
-0.24737556
-0.23141666
-0.23149013
-0.26331588
-0.300442
-0.29267285
-0.28929848
-0.28820842
-0.29099758
-0.2817544
-0.27344577
-0.24194742
-0.2183108
-0.20427136
-0.19316666
-0.20000712
-0.18475578
-0.26626908
-0.2696039
-0.25883731
-0.25347274
-0.26675944
-0.25971353
-0.25461235
-0.25562727
-0.23099316
-0.21248764
-0.24263738
0.10716251
0.067567157
0.051196223
0.072295176
0.053638111
0.057502697
0.075076127
0.12589225
0.12520375
0.10019753
0.092663203
0.1053844
0.082091272
0.054677476
0.056225502
0.072023803
0.063174044
0.069808914
0.036269301
0.060166067
0.083498961
0.11624418
0.094426057
0.11555863
0.13123981
0.13611592
0.11604061
0.064444932
0.031043884
0.082899287
-0.050818777
-0.086131131
-0.094033719
-0.064848978
-0.054038419
-0.10147354
-0.058619864
-0.039992082
-0.030426489
-0.027363943
-0.027081743
-0.039970453
-0.053566599
-0.091577478
-0.06134766
-0.053362313
-0.027583694
-0.055102912
-0.075208639
-0.081560767
-0.045813702
-0.044901135
-0.08423807
-0.057975157
-0.076126959
-0.046063703
-0.049264164
-0.074413742
-0.063199964
-0.06142477
0.02125368
0.018161351
0.01452412
-0.0069664686
0.004094089
0.006682529
0.014517649
0.029082829
0.030243884
0.025999712
0.019196595
0.016378559
0.0046386088
0.014680689
-0.010890062
-0.0091787253
-0.010852795
-0.014467652
0.014589766
0.018753572
0.0095945604
0.0073722703
0.030240464
0.025255764
0.0062410136
-0.0011594491
-0.019412978
0.011266864
-0.0030272454
-0.0035196453
0.31061846
0.30466827
0.32051503
0.31294698
0.32442834
0.32181192
0.30067268
0.30608117
0.30573656
0.29898846
0.29572895
0.29557448
0.30209824
0.30305203
0.30294762
0.30737575
0.31247127
0.30639688
0.30784917
0.28212679
0.29260184
0.29035246
0.28499602
0.28522186
0.28632153
0.28813267
0.28468209
0.28765198
0.28434691
0.28678006
-0.26573896
-0.24140283
-0.20576534
-0.20284712
-0.17313581
-0.2142343
-0.28250857
-0.27913367
-0.28696519
-0.26455688
-0.2670933
-0.27248104
-0.27635135
-0.27798455
-0.26850363
-0.23133101
-0.21482537
-0.19919724
-0.21578498
-0.25295292
-0.25766047
-0.26342649
-0.25058197
-0.26158234
-0.27597932
-0.27083519
-0.27251334
-0.26332225
-0.2498548
-0.26730871
0.091858346
0.053697127
0.063778264
0.062234484
0.040738411
0.033151538
0.031895456
0.083648821
0.084140412
0.0731671
0.076882703
0.085749861
0.10606316
0.09275166
0.071982278
0.062801524
0.063578184
0.065152061
0.036193417
0.071739106
0.097178135
0.11199854
0.0994855
0.10429962
0.10895599
0.10182974
0.090241792
0.092823625
0.085699517
0.11377594
-0.050275096
-0.070250849
-0.033529518
-0.045034341
-0.055676367
-0.06430389
-0.079396651
-0.037069876
-0.046408648
-0.081700126
-0.060837056
-0.068939906
-0.031697527
-0.050266054
-0.050493071
-0.081912669
-0.046282193
-0.045189445
-0.061588514
-0.067526833
-0.037967708
-0.061761006
-0.095881748
-0.097722776
-0.055989278
-0.022252587
-0.038577198
-0.042787127
-0.073237173
-0.038913413
0.0076958126
0.0052979127
-0.0061619638
-0.016217822
-0.0024977482
0.010445198
0.01711744
0.023572232
0.023604414
0.025999376
0.028211976
0.023247248
0.019463685
0.013825642
-0.00024931365
0.015355223
-0.0089449779
-0.015487848
0.0024093382
0.01099181
-0.0047003808
-0.0061931067
0.033295171
0.037959322
0.0074793518
0.0053606956
0.0075682185
0.017649046
0.036049008
0.019378579
0.31451709
0.31659435
0.31978336
0.31798369
0.32470867
0.31616541
0.31860746
0.32187453
0.3137105
0.3189439
0.3155091
0.30646189
0.30736518
0.30239162
0.30321611
0.30393107
0.29986818
0.30078678
0.29627234
0.29775453
0.29191153
0.29493379
0.29636376
0.29408159
0.28647467
0.28650095
0.28766769
0.28537633
0.28895737
0.29156999
-0.26952669
-0.23910659
-0.22003766
-0.21866469
-0.22178682
-0.26851224
-0.29038777
-0.28746825
-0.28239237
-0.23100826
-0.21087237
-0.22415395
-0.23373555
-0.2558789
-0.27319702
-0.27944475
-0.27539955
-0.26411961
-0.26264321
-0.28057806
-0.27517927
-0.25783052
-0.22176675
-0.22651691
-0.25217145
-0.24347314
-0.24136194
-0.24497985
-0.26078554
-0.26299015
0.081430872
0.031288529
0.063943324
0.064451562
0.037906653
0.055531657
0.07391702
0.0838575
0.040332817
0.030463813
0.041381332
0.042607809
0.036670767
0.050353838
0.06988444
0.083921657
0.082544406
0.066992419
0.092936056
0.093082554
0.079029944
0.049294993
0.061642038
0.071164195
0.10540774
0.076710254
0.073271655
0.072773241
0.073127338
0.10916615
-0.055406392
-0.081061725
-0.044864735
-0.063730361
-0.070326619
-0.1145182
-0.040294939
-0.041475395
-0.082667302
-0.069209867
-0.053223422
-0.058845827
-0.076573391
-0.073827865
-0.048305001
-0.046526319
-0.042555321
-0.085336171
-0.085678705
-0.043978917
-0.063375899
-0.071640275
-0.061734149
-0.059752969
-0.065664381
-0.095807611
-0.095719223
-0.088759078
-0.070448423
-0.04993883
0.0018974781
0.00058391899
-0.0037704528
-0.018994474
-0.010466824
0.0071516979
0.019117251
0.028326289
0.019533702
0.010062468
-0.0091686279
-0.0048886548
0.0078244815
0.0087314147
-0.0020579443
0.019716423
0.0039248368
0.01021543
0.037724236
0.014840461
0.0032015314
-0.002000843
-0.020451486
-0.013627039
-0.013806243
-0.0020369179
0.022922568
0.01966769
0.010287668
0.016757957
0.30938785
0.30789211
0.31088177
0.30638109
0.32047331
0.31610153
0.31730234
0.31360423
0.31713443
0.31206059
0.31128941
0.31051008
0.30772392
0.30303921
0.29689726
0.30407094
0.29306464
0.2966801
0.30391318
0.29713535
0.29633561
0.3106586
0.29183802
0.29090211
0.28475052
0.30071023
0.2936275
0.30345819
0.28986318
0.29288837
-0.2802055
-0.26838218
-0.2567385
-0.25411168
-0.24120112
-0.25990253
-0.28491046
-0.26362142
-0.22270233
-0.19956539
-0.18883809
-0.18424435
-0.19310829
-0.21340761
-0.22581331
-0.21931665
-0.25042126
-0.27419857
-0.27040172
-0.27894738
-0.25752352
-0.18010736
-0.19486958
-0.23955689
-0.23670848
-0.20847793
-0.1850419
-0.18404213
-0.22954297
-0.245602
0.12879593
0.097596676
0.092491245
0.10577846
0.054411723
0.096792649
0.057412796
0.059894376
0.037069661
0.067629599
0.071195868
0.066650865
0.068286536
0.062891122
0.079380555
0.050017418
0.083744183
0.0747094
0.10807671
0.0778329
0.045429179
0.043723848
0.035101964
0.085164953
0.10967133
0.05645259
0.056310642
0.050491337
0.048318709
0.076753581
-0.050433279
-0.093059452
-0.078311512
-0.075687767
-0.050784941
-0.0754239
-0.037234906
-0.094381423
-0.063899351
-0.058508587
-0.023387529
-0.022258248
-0.030472362
-0.049393894
-0.075136026
-0.083627854
-0.078328835
-0.043947893
-0.033052854
-0.044073592
-0.073852195
-0.063694071
-0.066738684
-0.049168775
-0.027803214
-0.029413953
-0.050267314
-0.053057254
-0.062724652
-0.051987708
0.022051389
0.033458203
0.021262705
-0.0038227036
-0.013003315
-0.0028204508
0.0041748041
0.01648928
0.012450895
-0.012303208
-0.0099458526
-0.0055786679
-0.0088864869
-0.017503211
-0.0082553722
0.01881451
0.026874019
0.0109456
0.036806228
0.020072441
0.017645978
0.016546491
0.0043194641
-0.012653898
-0.0064385721
-0.011143522
-0.010495229
-0.0071580472
-0.0056618975
0.00031192833
)
;

boundaryField
{
    minX
    {
        type            fixedFluxPressure;
        gradient        uniform 0;
        value           nonuniform List<scalar> 
50
(
0.29730972
-0.26825539
0.10823272
-0.048533842
0.015157805
0.29804172
-0.26105802
0.076546293
-0.070843745
-0.0080932986
0.31205879
-0.26369433
0.087533356
-0.040998879
-0.0030819694
0.30678675
-0.27605876
0.080994022
-0.054579629
0.010813704
0.31640622
-0.28068325
0.13358135
-0.04010418
0.030599589
0.31215321
-0.28140789
0.15023826
-0.029387651
0.039991698
0.31255533
-0.28175938
0.10716251
-0.050818777
0.02125368
0.31061846
-0.26573896
0.091858346
-0.050275096
0.0076958126
0.31451709
-0.26952669
0.081430872
-0.055406392
0.0018974781
0.30938785
-0.2802055
0.12879593
-0.050433279
0.022051389
)
;
    }
    maxX
    {
        type            fixedFluxPressure;
        gradient        uniform 0;
        value           nonuniform List<scalar> 
50
(
0.27881093
-0.24547435
0.079850222
-0.046616409
0.0063714853
0.28401728
-0.25288939
0.097487967
-0.02662961
-0.0051102048
0.28795379
-0.24908578
0.1084116
-0.063199937
0.025958007
0.28734102
-0.24255904
0.10071162
-0.05942069
0.028769041
0.28844475
-0.23278168
0.079848667
-0.06116264
0.0078037157
0.30158266
-0.24909476
0.11006319
-0.020242545
0.0025914896
0.29780956
-0.24263738
0.082899287
-0.06142477
-0.0035196453
0.28678006
-0.26730871
0.11377594
-0.038913413
0.019378579
0.29156999
-0.26299015
0.10916615
-0.04993883
0.016757957
0.29288837
-0.245602
0.076753581
-0.051987708
0.00031192833
)
;
    }
    minY
    {
        type            fixedValue;
        value           uniform 0;
    }
    minZ
    {
        type            fixedFluxPressure;
        gradient        uniform 0;
        value           nonuniform List<scalar> 
150
(
0.29730972
-0.26825539
0.10823272
-0.048533842
0.015157805
0.29483004
-0.2506544
0.083055856
-0.088614548
0.036554583
0.29797635
-0.25581199
0.094242535
-0.086762765
0.039055142
0.3014565
-0.27217113
0.10244017
-0.043150826
0.024776255
0.30469777
-0.27329141
0.12774215
-0.035351295
0.035811393
0.29643479
-0.2737621
0.082576715
-0.053388289
0.0080363602
0.29182029
-0.24602942
0.08765927
-0.071704506
0.035474155
0.28966327
-0.25586747
0.077751654
-0.082049683
0.0314784
0.28909193
-0.25940188
0.082413704
-0.067692377
-0.00089898485
0.2943013
-0.27271083
0.10374495
-0.035473564
0.017676266
0.29834293
-0.27700348
0.086324842
-0.032010981
0.014986926
0.28901275
-0.26945695
0.050459395
-0.066724455
0.017956958
0.30594872
-0.21078937
0.028443851
-0.047815735
0.012823941
0.30520095
-0.18275358
0.02718345
-0.069819013
0.0051573887
0.30112881
-0.18597803
0.064167268
-0.031022307
-0.01719682
0.30361608
-0.18464921
0.051064563
-0.019813678
-0.0045434025
0.2843433
-0.22422757
0.081895199
-0.054021717
-0.013638127
0.29772765
-0.20092212
0.042519558
-0.057705128
0.0099653702
0.28829851
-0.24895905
0.043393646
-0.061941375
0.012552575
0.28901932
-0.26297495
0.074739717
-0.043915022
0.014288965
0.2974088
-0.26611799
0.076041871
-0.033358957
0.022883087
0.29381621
-0.25064599
0.062892237
-0.071970978
0.018329689
0.30271143
-0.21656255
0.020632091
-0.054455043
0.012280829
0.27554012
-0.24233438
0.051368637
-0.06606371
-0.0053712675
0.28629551
-0.25155247
0.078265744
-0.0018714068
0.00031884142
0.28601638
-0.25337456
0.1003735
-0.014942313
-0.0002422458
0.28055322
-0.23618333
0.067513246
-0.048209783
-0.0079536111
0.28931766
-0.20248135
0.052178699
-0.046217189
-0.0016209487
0.27589315
-0.23073295
0.058506172
-0.065766335
0.015889866
0.27881093
-0.24547435
0.079850222
-0.046616409
0.0063714853
)
;
    }
    maxZ
    {
        type            fixedFluxPressure;
        gradient        uniform 0;
        value           nonuniform List<scalar> 
150
(
0.30938785
-0.2802055
0.12879593
-0.050433279
0.022051389
0.30789211
-0.26838218
0.097596676
-0.093059452
0.033458203
0.31088177
-0.2567385
0.092491245
-0.078311512
0.021262705
0.30638109
-0.25411168
0.10577846
-0.075687767
-0.0038227036
0.32047331
-0.24120112
0.054411723
-0.050784941
-0.013003315
0.31610153
-0.25990253
0.096792649
-0.0754239
-0.0028204508
0.31730234
-0.28491046
0.057412796
-0.037234906
0.0041748041
0.31360423
-0.26362142
0.059894376
-0.094381423
0.01648928
0.31713443
-0.22270233
0.037069661
-0.063899351
0.012450895
0.31206059
-0.19956539
0.067629599
-0.058508587
-0.012303208
0.31128941
-0.18883809
0.071195868
-0.023387529
-0.0099458526
0.31051008
-0.18424435
0.066650865
-0.022258248
-0.0055786679
0.30772392
-0.19310829
0.068286536
-0.030472362
-0.0088864869
0.30303921
-0.21340761
0.062891122
-0.049393894
-0.017503211
0.29689726
-0.22581331
0.079380555
-0.075136026
-0.0082553722
0.30407094
-0.21931665
0.050017418
-0.083627854
0.01881451
0.29306464
-0.25042126
0.083744183
-0.078328835
0.026874019
0.2966801
-0.27419857
0.0747094
-0.043947893
0.0109456
0.30391318
-0.27040172
0.10807671
-0.033052854
0.036806228
0.29713535
-0.27894738
0.0778329
-0.044073592
0.020072441
0.29633561
-0.25752352
0.045429179
-0.073852195
0.017645978
0.3106586
-0.18010736
0.043723848
-0.063694071
0.016546491
0.29183802
-0.19486958
0.035101964
-0.066738684
0.0043194641
0.29090211
-0.23955689
0.085164953
-0.049168775
-0.012653898
0.28475052
-0.23670848
0.10967133
-0.027803214
-0.0064385721
0.30071023
-0.20847793
0.05645259
-0.029413953
-0.011143522
0.2936275
-0.1850419
0.056310642
-0.050267314
-0.010495229
0.30345819
-0.18404213
0.050491337
-0.053057254
-0.0071580472
0.28986318
-0.22954297
0.048318709
-0.062724652
-0.0056618975
0.29288837
-0.245602
0.076753581
-0.051987708
0.00031192833
)
;
    }
    bottomWater_to_rightSolid
    {
        type            fixedFluxPressure;
        gradient        uniform 0;
        value           nonuniform List<scalar> 
130
(
0.0099653702
0.012552575
0.014288965
0.022883087
0.018329689
0.012280829
-0.0053712675
0.00031884142
-0.0002422458
-0.0079536111
-0.0016209487
0.015889866
0.0063714853
0.010178532
0.016799789
0.030405632
0.022141012
0.016709164
0.0083901327
-0.012964393
-0.010531056
0.0046441929
0.0097463597
0.0067947188
-0.008865429
-0.0051102048
0.013462687
0.030827477
0.023638135
0.019951203
0.0054440161
-0.014784406
-0.010908425
-0.0047295836
0.011011531
0.012983109
-0.00045911521
0.0028253623
0.025958007
0.018294929
0.022016183
0.016108213
0.011222263
-0.015033584
-0.01813638
-0.0036561326
-0.0097056623
0.0025945429
0.013487232
0.013547399
0.0370476
0.028769041
0.023473721
-0.0037348708
-0.0056092057
0.0019625865
0.0053579642
-0.027608007
-0.015166414
-0.015851639
0.0022952745
0.0059897459
0.019551009
0.018694492
0.0078037157
0.0037670902
0.0085196312
0.013203812
0.010688808
0.021169358
0.0031990232
-0.0081497615
-0.011350803
-0.012928113
-0.0063152916
0.008240334
-0.0053601149
0.0025914896
-0.014467652
0.014589766
0.018753572
0.0095945604
0.0073722703
0.030240464
0.025255764
0.0062410136
-0.0011594491
-0.019412978
0.011266864
-0.0030272454
-0.0035196453
-0.015487848
0.0024093382
0.01099181
-0.0047003808
-0.0061931067
0.033295171
0.037959322
0.0074793518
0.0053606956
0.0075682185
0.017649046
0.036049008
0.019378579
0.01021543
0.037724236
0.014840461
0.0032015314
-0.002000843
-0.020451486
-0.013627039
-0.013806243
-0.0020369179
0.022922568
0.01966769
0.010287668
0.016757957
0.0109456
0.036806228
0.020072441
0.017645978
0.016546491
0.0043194641
-0.012653898
-0.0064385721
-0.011143522
-0.010495229
-0.0071580472
-0.0056618975
0.00031192833
)
;
    }
    bottomWater_to_leftSolid
    {
        type            fixedFluxPressure;
        gradient        uniform 0;
        value           nonuniform List<scalar> 
130
(
0.015157805
0.036554583
0.039055142
0.024776255
0.035811393
0.0080363602
0.035474155
0.0314784
-0.00089898485
0.017676266
0.014986926
0.017956958
0.012823941
-0.0080932986
-0.0097650573
-0.012349224
-0.0083594554
-0.0089022441
-0.021749742
-0.013286378
-0.0094661849
-0.0079343033
0.0061564541
0.011876574
0.012387383
0.0043852416
-0.0030819694
-0.012256379
-0.020212619
-0.021284314
-0.019491242
-0.024957396
-0.023395441
-0.014036939
-0.0084000821
0.0036698882
0.019015317
0.042933818
0.009019701
0.010813704
0.010630381
0.0013259887
-0.023261603
-0.011984582
-0.0090965457
-0.0098013089
0.0021947552
0.01024543
0.011758575
-0.002104091
-0.019772148
-0.017366015
0.030599589
0.017991525
0.012996009
0.0014668123
-0.009858759
-0.0042703251
0.0097036157
0.019904977
0.019977988
0.028978718
0.01484217
-0.015493354
-0.0055617278
0.039991698
0.031414788
0.015157161
0.0092870459
8.0931938e-05
0.0046651364
0.0049179707
0.028309987
0.02324026
0.034615403
0.025133058
0.00034595421
0.0024279639
0.02125368
0.018161351
0.01452412
-0.0069664686
0.004094089
0.006682529
0.014517649
0.029082829
0.030243884
0.025999712
0.019196595
0.016378559
0.0046386088
0.0076958126
0.0052979127
-0.0061619638
-0.016217822
-0.0024977482
0.010445198
0.01711744
0.023572232
0.023604414
0.025999376
0.028211976
0.023247248
0.019463685
0.0018974781
0.00058391899
-0.0037704528
-0.018994474
-0.010466824
0.0071516979
0.019117251
0.028326289
0.019533702
0.010062468
-0.0091686279
-0.0048886548
0.0078244815
0.022051389
0.033458203
0.021262705
-0.0038227036
-0.013003315
-0.0028204508
0.0041748041
0.01648928
0.012450895
-0.012303208
-0.0099458526
-0.0055786679
-0.0088864869
)
;
    }
    bottomWater_to_heater
    {
        type            fixedFluxPressure;
        gradient        uniform 0;
        value           nonuniform List<scalar> 
92
(
0.0051573887
-0.01719682
-0.0045434025
-0.013638127
0.0048277203
-0.01975371
-0.01301397
0.00024644513
9.1667238e-05
-0.011700272
-0.0050388164
0.0061135005
0.30053205
0.29717047
0.29495874
0.29360576
-0.21888755
-0.23009526
-0.24282859
-0.26968384
0.080756851
0.081478844
0.073364991
0.075730339
-0.060013404
-0.076329822
-0.092747827
-0.082212382
-0.016483801
-0.016483801
-0.014415626
-0.014415626
0.0058468228
0.0058468228
0.0058012544
0.0058012544
0.29792395
0.29830451
-0.25211274
-0.24811155
0.10152013
0.10488276
-0.038995226
-0.085146027
-0.0055617278
0.023473721
0.28934711
0.30168494
0.30399533
0.30526928
0.2859269
0.31008505
-0.26741412
-0.24194742
-0.2183108
-0.20427136
-0.24224295
-0.19316666
0.099956872
0.054677476
0.056225502
0.072023803
0.085370585
0.063174044
-0.050471447
-0.091577478
-0.06134766
-0.053362313
-0.043663411
-0.027583694
0.0024279639
0.014680689
-0.010890062
-0.0091787253
0.0037670902
-0.010852795
0.014680689
-0.010890062
-0.0091787253
-0.010852795
0.013825642
-0.00024931365
0.015355223
-0.0089449779
0.0087314147
-0.0020579443
0.019716423
0.0039248368
-0.017503211
-0.0082553722
0.01881451
0.026874019
)
;
    }
}


// ************************************************************************* //
