/*--------------------------------*- C++ -*----------------------------------*\
| =========                 |                                                 |
| \\      /  F ield         | OpenFOAM: The Open Source CFD Toolbox           |
|  \\    /   O peration     | Version:  v2012                                 |
|   \\  /    A nd           | Website:  www.openfoam.com                      |
|    \\/     M anipulation  |                                                 |
\*---------------------------------------------------------------------------*/
FoamFile
{
    version     2.0;
    format      ascii;
    class       surfaceScalarField;
    location    "570/bottomWater";
    object      phi;
}
// * * * * * * * * * * * * * * * * * * * * * * * * * * * * * * * * * * * * * //

dimensions      [1 0 -1 0 0 0 0];
oriented        oriented;


internalField   nonuniform List<scalar> 
3858
(
-6.0329698e-05
0.00017591422
-0.00011503992
-0.00010369687
0.00015965362
-0.00011513708
-8.4795084e-05
0.00012610376
-0.00014453918
-8.2521973e-05
0.00015342013
-0.00015598598
-1.5144149e-05
0.00011822678
-0.00018668075
3.6290793e-05
0.00016081061
-0.00021146583
9.2313126e-05
9.9019345e-05
-0.00015326992
0.00013868697
5.5096903e-05
-9.9215261e-05
3.8495123e-05
0.00017354364
-7.093988e-05
-4.6390325e-05
0.00017980084
-9.3714233e-05
-0.00012871013
0.00016230807
-7.9638408e-05
-0.0002435647
0.00010903123
8.3067101e-06
-0.00014894652
-0.00020511295
0.00010939803
-7.7153318e-05
-0.0001855715
0.00011269283
4.7658738e-05
-0.00022296711
9.7909168e-05
0.00020737526
-0.00023643013
7.6016649e-05
0.00021029388
-7.1597866e-06
7.7186527e-06
0.0003115168
-0.00017487232
7.4428939e-05
0.00028640725
-2.5842358e-05
5.3745287e-05
0.0001229396
0.00014627181
1.9747505e-05
-6.8098881e-05
0.00015835886
3.3209269e-05
-8.5117352e-05
5.1679644e-05
-3.3450206e-05
0.0001636506
-0.00022025248
-2.9069005e-05
0.00015376064
0.00011920297
-0.00010379666
6.5785645e-05
0.00013767763
-4.6683407e-05
-2.8255937e-05
8.4409194e-05
1.2544176e-05
-3.7275291e-06
-1.5822831e-05
-4.6837494e-06
0.00019281967
-0.00030092957
0.00010689088
0.00016742622
-2.972696e-05
6.0490316e-05
0.00015443193
1.7647164e-05
-0.00023047238
0.00046929973
-6.2913123e-05
-3.9222259e-05
1.4772101e-05
-4.6368612e-05
0.0001490245
8.0371578e-05
-0.00014251458
-2.1886032e-05
0.00062439347
-0.00030006281
-0.00022655293
0.00065160684
-0.00032871317
-0.00024759907
0.00043703465
-0.0002551779
-5.1290459e-06
-8.1758766e-06
-0.0001352748
0.00020065164
-0.00012745225
-2.3231526e-05
0.00018837826
0.00015778295
2.8034066e-05
-0.00013855371
0.00051884373
-1.2110922e-05
-0.00043896277
0.00053897732
-7.626019e-05
-0.00038822437
5.3760686e-06
5.2916754e-05
-0.0002150084
-0.00053177553
0.00015344662
-0.0001416019
-0.00044722496
0.00018824695
1.4938237e-05
-0.00048147497
0.00010196773
0.00019370372
-0.00051668578
0.00010149017
0.00024788852
-8.4243346e-05
2.2898762e-05
0.00040646604
-0.00049301013
0.00015956028
0.00043881862
-0.0002031605
0.00014496556
0.00014069476
0.00035969037
8.4705299e-05
-0.00034587749
0.00067656024
-3.1629138e-05
-0.00034731662
0.00014232663
-8.9207856e-05
0.00010760558
-0.00058936141
-8.5813282e-05
0.00029208735
9.2860507e-05
-0.00015813931
-4.6147942e-06
0.00064173638
-0.00020735661
-0.00025806666
0.00045516698
-0.00011730593
-0.00011486296
-0.00015189798
-7.1285358e-06
0.00014676327
-0.00067066635
0.00010811055
0.00024365361
-0.00022116568
9.4548384e-05
0.00033582374
6.2261801e-05
3.2558409e-05
0.00038802231
4.8719003e-05
-8.9577101e-05
-0.00010137218
0.00023827979
-0.00013135702
-1.2810961e-05
0.00013496246
-8.1183395e-05
0.00058198119
-7.7613353e-06
-2.9525043e-05
0.00063438332
-3.4434825e-05
9.6558107e-05
0.00032636233
-1.5410822e-05
3.5415518e-05
-0.00012388643
0.00017685315
-0.00015205411
-0.00013468088
0.00019469825
-7.499933e-05
-2.761426e-06
8.3489604e-05
-1.7145075e-05
0.00044314273
1.7846749e-05
0.00017539256
0.00043910104
-9.2661355e-05
0.00039278685
-6.3579796e-05
-0.00014843842
8.7817166e-05
-0.00010773256
-0.00011907329
-0.00014003523
-0.00010494819
-0.00011442438
-7.7193518e-05
-0.00051121268
-3.3103994e-05
-1.9231229e-05
-0.0005840084
9.3603192e-06
0.00015491947
-0.00029425221
3.5858158e-05
-0.00010546127
-0.00012785128
-0.00010477812
-8.5114118e-05
-0.00013876966
-8.4738007e-05
4.2760516e-05
0.00022919626
2.6194636e-06
0.00010901858
0.00059938196
1.0920208e-05
0.0001273584
4.4149042e-05
7.9837755e-05
-0.00031711735
-0.00011848996
-2.6395696e-05
-0.00020647888
8.0990627e-06
-2.5877027e-05
-7.7231325e-05
0.00049968933
1.2799497e-05
0.00013286212
0.00012516156
0.00011991199
0.00021631871
-0.00029084123
5.5486662e-05
-0.00013620794
-0.00024193896
-7.6200724e-05
-0.00014703649
-8.9712548e-05
-0.00012062457
0.00022848502
-3.9697761e-05
0.00021571432
7.9534213e-05
9.2773776e-05
-0.00017437051
0.00028560057
3.1120743e-06
-0.00040800911
0.00025803435
-3.7206716e-05
-0.00015140031
0.00031160581
1.3766579e-05
9.3536776e-05
0.00039489875
-5.4525195e-06
0.00027149439
0.00016947093
-2.1066207e-05
-3.6373044e-05
0.00023998284
-5.6001843e-05
-0.0004104002
0.00029466516
-5.5318878e-05
-0.00032190193
-6.508398e-05
-2.6175703e-05
-1.0460531e-05
0.0001219212
9.7801366e-06
0.00026000501
0.00018194472
-1.3309213e-05
0.00025363719
2.6611036e-05
-8.3823011e-05
9.6809864e-05
0.00010358973
-5.4494963e-05
-1.6563894e-05
7.7402005e-05
-6.8976444e-05
-1.9240031e-05
-0.00048479593
-2.3740616e-05
-5.430405e-05
-0.00054278131
-6.1630743e-06
-6.393177e-05
-0.00025450901
-3.0115484e-05
-0.0001711187
5.3742551e-05
-7.4406912e-05
-0.00020063249
1.4546748e-05
-0.00012380262
-2.8771724e-05
6.9127602e-05
-1.1792115e-05
0.0002364823
0.00025536416
7.876376e-05
1.8807451e-05
0.00015008942
0.00011173447
-0.00036103885
0.00013849906
0.00012285727
-0.00038342912
2.0762907e-05
9.7264249e-06
6.4196116e-05
-3.9017884e-05
9.1081986e-05
0.00025781723
-0.00025221931
0.00018375976
0.00017595688
-0.00027820846
6.9227593e-05
1.3424466e-06
-8.5726636e-05
1.8402126e-05
-0.00020242105
0.00022086315
-0.00010681218
7.7817465e-05
-5.175349e-05
-0.00015585049
0.0002353847
-0.00015164796
0.00028139803
-0.0001716143
0.00027800069
-7.6563782e-05
0.0002165553
0.00010108818
0.0002172468
4.6953467e-05
0.00022360564
1.6724599e-05
0.00027021172
9.5842454e-05
0.00021554731
-6.4171885e-05
9.4930362e-05
-4.1301303e-05
9.905062e-05
0.00013797974
2.6636735e-06
0.00024269293
-7.8102144e-05
0.00037151807
-2.5235415e-05
0.00048355803
-3.4637954e-05
6.655383e-05
-6.7791736e-05
-0.00034244096
-0.00013378653
-0.00043140082
-0.00016554915
-0.00026216657
-0.00011549172
-0.00012841036
-0.00011920947
-3.947436e-06
-5.5335328e-05
0.00019696503
5.4451683e-05
0.00027796191
6.9092529e-05
0.00032383168
9.2629293e-05
0.00024588595
9.8708634e-05
0.00011955777
8.7310296e-05
-8.2158156e-05
-5.0503374e-05
-0.00027491959
-8.5447019e-05
-0.00028250465
-7.8141559e-05
-9.8770932e-05
3.7129438e-05
-2.0953463e-05
-0.00016143629
0.00013397555
-8.7084716e-05
-0.00010545797
-0.0001284882
-4.2765582e-05
-3.5874276e-06
-0.00016113281
-8.6832027e-05
-0.00010289391
0.00011713896
-0.00017221597
-0.00015951581
7.4258781e-05
-0.00020444251
-0.00011910448
-6.1782424e-05
-0.00019165457
6.1813917e-05
-0.00028616584
-5.1471877e-05
0.00029305139
-0.00032948724
-2.9561597e-06
0.0002158537
0.00010657165
-9.6496231e-05
8.4932041e-05
0.00018356078
-0.00014513841
-2.0735339e-05
0.00017081803
-0.0001449764
-0.00012198443
0.0001420514
-3.2890099e-05
-0.00019479133
0.00012673878
5.5717347e-05
-0.00017822318
4.236976e-06
9.1243967e-05
-1.7749822e-05
-0.00021201919
0.0001481693
0.00013927963
-0.00015247668
7.2154221e-05
0.00028852146
-0.00019858617
5.651119e-05
0.00027401827
4.859348e-05
4.2435837e-05
0.00014931659
0.00019601868
-1.5423429e-05
2.0468984e-06
0.00015256784
1.3929894e-05
-0.00012672607
0.00015919807
2.3558806e-06
-0.00013380849
5.5763648e-05
-8.1654496e-05
8.6244746e-05
-0.00018869349
-6.1074231e-05
0.0002312854
-0.0001597209
-8.6303507e-05
0.00011921594
0.00011238401
-4.2875e-05
4.4839524e-06
0.00012800107
4.3076373e-06
0.00019867881
-0.00028053368
8.100821e-05
0.00025261616
-3.6242928e-05
9.3458226e-05
0.00012427601
0.00015100814
4.2596717e-05
0.00015310592
-7.7261912e-06
-0.000219212
0.00021992823
7.0346196e-05
-8.8758968e-05
-0.00042662599
0.00012131615
4.7064955e-05
-0.00044678029
7.3089863e-06
-4.3523784e-05
9.7664854e-05
-0.00018999996
-0.00026099991
0.00021790573
-0.00025488399
-0.00019441492
-0.00019482251
-0.0001887228
-4.1436002e-05
-0.00060878353
3.4363984e-05
0.00021622164
-0.00073580589
0.0001254295
0.00032242077
-4.410354e-05
7.2510134e-05
0.00011525368
0.00044034515
-6.1728194e-05
-0.00016357188
0.00058824117
-0.00021485777
-0.00037909918
0.0005167943
-0.00010629884
-0.0005131814
0.0003557762
5.8491419e-05
-0.00037586933
-8.6293423e-05
0.00014146528
-8.6979711e-05
-0.00053324884
0.00013430776
0.0001156926
-0.00037451063
0.0001208518
0.00041595586
-0.00053874066
6.2789979e-05
0.00051260151
-3.8330885e-05
0.00014983899
0.00033508685
0.00042125952
9.7239387e-05
-6.5909665e-05
0.00060994379
2.8325854e-05
-0.00045961974
0.00065431768
-0.00013303867
-0.00037728641
6.8754281e-05
-0.00018453183
-4.2629535e-05
-0.00048994183
-0.00011922182
0.00014603196
-0.00043230902
-7.4212687e-05
5.0158739e-05
6.210047e-05
-6.1199846e-05
-4.8760912e-05
9.3030773e-05
1.6584021e-05
0.00017000258
-0.0006547553
0.00014832959
0.0002757008
-0.00021085642
0.00017702582
0.00024735449
0.00019101959
8.2883255e-05
0.00045135671
1.136551e-05
0.00019484844
-1.5920939e-05
8.971973e-05
2.5843544e-05
-0.00015522144
0.00013588013
-0.00018188454
-0.00020394258
9.985283e-05
-0.00014452386
-3.4726132e-05
8.7268968e-05
-3.0027462e-05
4.6839907e-05
2.2134601e-05
2.8802057e-05
-0.0002730375
3.9746615e-06
-0.00020926753
-0.00020684669
1.298591e-05
-0.00046810073
-0.00019853293
-8.3741503e-05
-0.00026686207
-0.00013815153
-2.3701061e-05
-0.00010067252
0.00032451117
-3.2508824e-05
-0.00012636388
0.00046667091
5.4600262e-05
-8.1405476e-05
0.00035178754
-2.8390062e-05
-5.2038983e-06
0.00021385503
-5.3353699e-05
6.1534463e-06
-0.00011915178
-9.2923366e-05
2.1113533e-05
-0.00051462605
-6.6686876e-05
-4.5424735e-07
-0.0003487138
5.1312727e-06
-0.00019392199
-0.00012451541
-0.00018489935
-0.00010132263
-9.7242613e-05
-0.00013846576
3.8204714e-05
0.00030232858
-0.00010533442
3.0273042e-05
0.00057646517
4.4029738e-05
0.00014130052
0.00053905446
1.5155951e-05
0.00029894939
-4.6586748e-05
3.75299e-05
-2.7533922e-05
-0.00010826958
-8.1584637e-05
-0.00021143604
-0.0002994102
2.5126262e-05
6.1823058e-05
-0.00039775837
0.00019939924
0.00018961382
-0.00013685193
0.00022200394
-0.00020490563
-0.00014461926
-6.0129923e-05
-0.00031137875
-0.00010744599
-7.3138024e-05
-0.00012340395
-2.0884531e-05
-9.6695239e-05
0.00031996452
-3.1709514e-05
0.00021702026
-0.00018557792
4.5410495e-05
0.00011437807
-7.1088932e-05
2.1621755e-05
-3.1012029e-05
-0.00012964602
3.3886816e-05
-0.00020995554
7.8332201e-05
7.965176e-05
-0.0002353411
5.9955522e-05
6.8174256e-06
-0.00028302176
-0.00018999196
-5.6431086e-05
-0.00037298618
-0.00010922373
-6.366038e-05
-0.00041123808
-0.00010046182
-0.00011513809
-0.00034448571
-0.00012714473
-0.00010393487
-0.0001144997
7.6052291e-05
2.8253016e-05
2.0105203e-05
0.0002268561
9.190069e-05
8.4884054e-05
0.00021479265
-1.1606966e-05
0.00012367754
0.00017199288
-5.1426294e-05
-1.8055632e-05
9.23621e-05
-0.00013875716
-7.8011532e-05
-0.00047252332
-5.8874435e-06
-0.00012018643
-0.0003299904
1.7288418e-05
-0.00024604042
8.3235802e-05
-0.00011201272
-0.00031717765
7.7855431e-05
-0.00017836773
-0.00012805201
0.00012959424
-0.00014019393
8.9080039e-05
0.0003273182
2.0222797e-05
0.00037915146
0.00019426669
0.00013348009
0.00027334626
0.00014765811
2.3294804e-05
0.00010003277
0.00015841352
2.9487658e-05
4.9306978e-05
-0.0002322769
-6.6810843e-06
8.0710084e-05
-0.00045453463
0.00011645514
5.8938082e-05
-5.2281824e-05
0.00012096166
-0.00020901904
0.00019830661
-5.7411409e-06
-0.00033709857
0.0001120422
-7.3006513e-05
-0.00025325663
-0.00016608491
-4.545372e-05
-4.9287219e-05
6.4241623e-05
-3.9368647e-05
8.9175424e-05
-1.0197607e-05
0.00018113805
-9.1582502e-05
0.00022973957
-6.16324e-05
0.0002649374
-2.2007319e-05
0.00023757724
-0.00014655998
0.00015816636
-0.00016961231
0.00018404032
-0.00016871762
0.00011419081
-0.00024520687
4.4274889e-05
-0.00015191938
8.1815417e-05
2.8951107e-06
7.4705289e-05
0.00015048155
-1.0895938e-05
0.00027357515
2.366387e-05
0.00028792747
4.3371827e-05
-0.00017704116
-7.5346436e-05
-0.00045965672
-0.00018116137
-0.00038124383
-0.00016072625
-0.00027746562
-0.00014141451
-0.00012817102
-0.00013890984
0.00012716997
1.664187e-05
0.00029977486
7.611347e-05
0.00039283192
0.00012369357
0.00047718936
0.00016668537
0.00024894038
9.4680721e-05
-0.00015427999
3.5996042e-05
-0.00020972602
-4.7339164e-05
-5.3315122e-05
-4.3551289e-05
5.9604222e-05
-7.9018691e-05
-1.5698906e-06
-6.7781344e-05
-7.1810569e-05
-0.00020744952
8.9156194e-05
2.8514269e-05
-0.00020405158
-0.00012176407
7.2783683e-05
-0.00012168546
-0.00021476888
4.2358567e-05
-8.5270976e-05
-0.00020563634
-6.5462086e-06
-1.8619157e-06
-0.00024033173
-5.1202902e-05
0.00015028687
-0.00028273736
-6.4143655e-05
0.00029654631
-0.00020283613
2.3555642e-06
0.00030539095
6.2558496e-06
-1.8588119e-05
0.00020820871
0.00012996522
-0.00012889814
0.00010594649
0.0001561453
-0.00019772472
1.4527446e-05
8.9456445e-05
-0.00014090581
-8.5655803e-05
0.00010727809
-3.8128385e-05
-9.4921185e-05
0.00012807647
-6.1595097e-05
-0.00010628665
0.00013990994
-3.6721049e-05
-6.8078122e-05
0.00012584845
-1.302356e-05
0.00019912504
-0.00021250758
1.5938353e-05
0.00026576842
-4.9172554e-05
3.9513407e-05
0.00015704914
0.00015155991
1.0403906e-06
2.6342175e-05
0.00013767238
-2.2881801e-05
-0.00015420951
0.0001683047
2.6646883e-05
-0.00025718264
0.00012074135
-1.3663608e-05
-0.00012939547
-0.00014241106
-6.6969062e-05
8.5355365e-06
-0.00015976528
-3.8225243e-05
0.00013152283
-0.00022752614
1.8924415e-05
0.00023641543
-0.00022898416
8.2071872e-05
0.00034097258
-0.00019729897
9.756714e-05
0.00030070381
3.7101933e-05
8.7184091e-05
0.00017455469
0.00015251776
7.0943102e-05
8.3569928e-05
0.00014064666
-5.0897889e-06
0.000122607
-4.4219571e-05
-0.00035772154
0.00034016829
0.00017705564
-0.00023428309
-0.00034505065
0.00022116428
-0.00010533499
-0.00046186912
0.00012546113
-0.00010588963
-0.00046675718
7.1675515e-05
-6.4180691e-05
-0.00050100313
-3.5921531e-05
0.00010943019
-0.00058510813
-5.9962907e-05
0.00034991676
-0.00047559308
6.6634358e-05
0.00040962684
-5.4032799e-05
0.00012600807
0.00019665163
0.00044236623
-2.691566e-05
-0.00012328808
0.00056830252
-0.0001539457
-9.0382128e-05
-5.3878906e-05
-0.00010442838
-9.3278092e-05
0.00012172769
-0.00011785249
-0.0002444353
0.00045338423
-0.00011565913
-0.00032874518
0.00042916288
-6.3477775e-05
-8.4046583e-05
-4.0902268e-06
1.9547844e-05
0.00034695023
-0.00056863482
4.5982235e-05
0.00048752995
-0.00021671631
8.9754011e-05
0.00034623211
0.00042322889
1.9467848e-05
-7.5450141e-05
0.00068473425
-2.814024e-05
-0.00043749315
0.00058997106
-3.1297495e-05
-0.00041786819
6.9582995e-05
-0.00010150529
-0.00019771156
-0.00043073916
-0.00011636036
-4.3950051e-05
-0.00036497691
-6.7771701e-05
0.00014362224
-0.00049394908
4.6379508e-06
0.00022731137
-0.00051497483
0.00014110169
0.0003739529
-0.00053943715
0.00021208068
0.00040361735
-5.1544905e-05
0.00020731198
0.00020175143
0.00040436955
0.00012703997
9.429873e-06
0.00051158824
-9.5736754e-05
0.00021552419
-7.2121807e-05
0.0001219019
0.0002077094
0.00010027672
9.1966229e-05
-0.00020620529
2.6970428e-05
-2.454329e-05
-0.00034708224
0.00010157547
-7.6752368e-05
-0.00043046538
0.00010318624
-0.00010334876
-0.00045404411
1.771984e-06
-0.00014014411
-0.00046873451
-7.5603606e-05
-0.00024338601
-0.00034675695
-1.2608309e-05
-0.00013380297
-0.00019614709
-5.1210239e-05
5.9394841e-05
0.00026844666
-4.29793e-05
1.2231917e-05
0.00048236869
0.00010058793
-0.00013616898
-0.0001177485
0.00026687075
-0.00012297204
3.0590471e-05
4.9550226e-05
-1.8747054e-05
0.00034099631
-4.5190778e-05
9.9453081e-05
0.00024293507
-2.4895689e-05
0.00036940832
-0.00036078146
2.0049114e-05
0.00011256019
-0.00025478439
-5.1871038e-05
-3.5057713e-05
-0.00010048399
-0.00015351377
5.4857378e-05
0.00033816345
-0.00014331541
5.4040874e-05
0.00068318441
-0.00010296809
0.00019197024
0.0005148429
-1.8771476e-05
0.00030710831
-3.3223048e-05
2.8239165e-06
0.0001033437
-0.00014617681
-4.3267859e-05
2.9517395e-05
-0.00032193995
-5.0795301e-05
7.6509602e-05
-0.00046768491
-4.8130109e-05
6.1988991e-05
-0.00030925782
8.2028535e-06
-0.00015502346
-0.00015017952
4.9758769e-05
-0.0001604398
-7.0396071e-05
-3.5862413e-05
-0.00014027715
0.00028466543
2.6403463e-05
-8.4612502e-05
0.00023906837
0.00012016
6.4598601e-05
3.4603584e-05
0.00021052723
2.7079337e-06
3.9884734e-05
0.00014504059
-0.00017389695
5.4800047e-05
2.3289385e-05
-0.00036225191
0.0001708077
-8.2418267e-05
-0.0003910626
0.00014595664
-0.00013562832
-0.00038141569
-1.2600946e-05
-0.00014076511
-0.00042771243
-9.2316359e-05
-0.00025727896
-0.00034680959
5.2906112e-05
-0.00032265717
-0.00017554262
-7.0364345e-05
-1.6593167e-05
-0.00011540967
-2.6142536e-05
0.00039838832
-4.3735789e-05
0.00013937601
0.00020611005
8.4071118e-05
8.2359344e-05
-0.00013589249
0.00036196897
-9.8292897e-07
1.570178e-05
0.00018466006
-4.6684302e-05
0.0001616772
-9.5693154e-06
-3.2228196e-05
0.00011962591
-0.00038185404
5.7236423e-05
-7.5210807e-05
-0.00012099351
7.8334247e-05
-0.00029375232
0.00013734586
-0.00013130106
-0.00013707155
0.00014220104
-0.00013908612
9.5725534e-05
0.00040975125
-9.9557863e-05
0.00036952491
0.00027102646
-9.7601506e-06
0.00024508965
0.00019374646
3.0945833e-05
0.00011894246
6.3529774e-05
-6.0264593e-05
0.0001122562
-0.00026706122
-1.8704821e-05
0.00010908905
-0.00045534995
-1.584889e-05
5.9952784e-05
-0.00018485809
4.1191676e-05
-0.00012099182
0.00021109338
-5.9366627e-05
-0.00030735727
0.00017749779
-6.7269534e-05
-0.00010251745
-2.3105232e-06
9.1296323e-06
0.00016633254
-0.00013365839
5.8423076e-05
0.00027591799
1.9254786e-05
0.00017489539
-8.3012032e-05
0.0002438535
-6.1717014e-05
0.00014496472
-3.362356e-05
-1.86097e-05
3.7449225e-05
-0.00017128215
8.8340067e-06
-0.00032303294
-0.00011779528
-0.00037985119
-0.00010595101
-0.00033461274
-0.00010659026
-0.00031811235
-8.7635169e-05
-0.00023744293
-4.2589788e-05
-9.4151503e-05
1.548498e-05
0.000175422
8.1499536e-05
0.00032234306
6.1402862e-05
0.00024272789
0.00011341768
-0.00018916118
-2.531141e-05
-0.00038555162
-0.00010576443
-0.00030601372
-0.0001029183
-0.00019642582
-0.00010880137
7.5357211e-05
-9.4163629e-07
0.00028585743
7.7168106e-05
0.00045401248
0.00010170486
0.00054142965
9.9806177e-05
0.00035433086
8.6722929e-05
-7.2239027e-05
6.5900658e-05
-0.00029867797
7.7576895e-05
-0.0001674516
3.2527856e-05
-4.1840586e-05
8.3355041e-06
-9.4325755e-05
-2.884403e-05
-0.00019559019
-0.00010017529
8.5172421e-06
-0.00018654041
0.00015660125
5.6945946e-05
-0.00023389625
3.0158921e-05
8.9485221e-05
-0.00010904265
-0.00019887496
0.00011301538
-0.00010275639
-6.6500068e-05
5.4174243e-05
7.3461431e-05
-0.00025999664
2.9417047e-05
0.00023648587
-0.00027627137
4.6673407e-05
0.00025723715
-0.00010078912
8.0093491e-05
0.00010012758
9.4074773e-05
4.2301786e-05
-0.00010152971
0.00012124146
-5.1080598e-05
-0.00014895066
-8.2078472e-06
-0.00014388734
1.9158148e-05
-0.00030922002
-4.2393525e-06
8.510665e-05
-0.00019208863
8.6519493e-05
0.0001421596
-0.00017242915
5.2130985e-05
0.00020941514
-0.00010405039
0.00025435524
-5.7256061e-05
0.0002643462
7.152512e-06
0.00016562145
0.00013979899
5.5634794e-05
0.00014350594
-3.2353555e-05
-7.7674914e-05
0.00015171982
-4.1247969e-05
-0.00021754572
0.00016644101
1.018267e-06
-0.00025632198
2.464486e-05
1.1543328e-06
-0.00010718175
-0.00020708681
-9.4402552e-06
8.3356367e-05
-0.00028639136
5.7246886e-05
0.00026227236
-0.00028584525
0.00012554258
0.0003095839
-7.7269842e-05
0.00011398853
0.00027323074
8.2223728e-05
5.4504214e-05
0.00023922453
0.0001457914
-2.2125344e-05
0.0001986356
0.00014877868
-3.4525077e-05
8.9777117e-05
0.00014172541
-3.4177534e-05
0.00013922435
-9.0901168e-05
-0.00041575135
0.00053802759
0.00021138066
-0.00038553851
-5.8700482e-05
0.00027981083
-0.00017251103
-0.00052627389
0.00023983258
-6.9530119e-05
-0.00020997859
0.00011217313
0.00015143195
-0.00056270446
4.5824219e-05
0.00034395203
-0.00060002428
7.1269926e-05
0.00046697833
-0.00031710377
0.00015992271
0.00010429325
0.00044041964
0.00014234829
-0.00035822428
0.00066885323
-0.0001120099
-0.00029886106
-3.1682021e-05
-0.00018983475
-3.9272936e-05
-0.00068611097
1.2874453e-05
1.0044637e-05
-0.00050541593
0.00014615724
6.3956793e-05
-0.0004571637
0.00011516327
0.00020909227
-0.00031266364
0.00039610835
-0.0002247243
0.00056372702
-0.00011448392
0.0004537868
0.00033949321
0.00018318463
0.00062679488
-0.00019321892
-0.00021767149
0.00067524254
-0.00015080685
-0.00046701913
0.00041889406
-3.4402903e-05
-0.00038294586
-0.00012986638
-3.1067325e-05
-0.00011735301
-0.00052213201
-6.6908013e-05
5.6699556e-05
-0.00057088813
4.2672504e-05
0.00027806623
-0.00060171778
9.9143799e-05
0.00045278642
-0.00024306657
0.00013217823
0.00039375593
0.00024567997
0.00010765493
0.00024147545
0.00053071315
-2.5329288e-05
3.8691611e-05
0.00054455771
-6.595521e-05
2.5436638e-05
7.7776878e-05
-1.8533244e-05
0.00011758329
-2.5044102e-05
0.00014250082
0.00043726262
5.8540865e-05
0.00020722595
-0.00010147673
5.021537e-06
-3.5249809e-05
-0.00016287546
-1.9347204e-05
9.2533186e-05
-0.00033226744
9.7692104e-05
0.00012077432
-0.00055542244
-3.3751171e-05
-1.2418906e-05
-0.00049541828
-4.7016377e-05
-3.1076079e-05
-0.00025754893
-5.3505974e-05
-2.114316e-05
0.00031265872
6.6617767e-05
0.00012922372
0.00056091598
-8.540893e-05
0.0002576612
-5.3851034e-05
-5.6805271e-06
1.9576877e-05
-0.00021039691
2.9241012e-05
-6.4100867e-06
-0.00035039168
-7.9487061e-05
4.1890375e-05
-0.00045179744
-9.8857502e-05
0.00015519793
-0.00045086689
0.0001943277
-0.00024380495
0.00016543021
-0.00013745747
0.00015493526
0.00019647438
0.00014051126
0.00055898806
-6.1084605e-05
6.2011656e-05
0.00063421928
1.6554758e-05
0.00020365692
0.00031087177
-5.2394459e-05
0.0002658439
-0.00010736536
-8.1864105e-05
0.00013202053
-0.00035645303
-7.5123481e-05
-7.6722013e-06
-0.00047641173
-5.5789746e-06
-0.0002008515
-0.00032298098
-0.00013368761
-9.7406146e-05
-0.00019272099
-0.00014558808
7.6033557e-05
0.00014808623
-2.6087185e-05
7.7071947e-05
0.0004750273
1.8785057e-05
3.2974023e-05
0.00046395455
0.00015110456
-5.3681205e-05
-2.5823166e-05
0.00031041529
1.8176324e-05
8.0329358e-05
0.00026249114
0.00018775525
2.6900971e-05
0.00013661747
0.00011279695
-3.3599976e-05
2.5473816e-05
3.0072719e-05
8.9003187e-05
5.3189122e-05
-0.00031052736
9.6501249e-05
3.5616444e-05
-0.0005165158
-3.39349e-05
-5.8096565e-05
-0.00043387403
-6.0147594e-05
-0.00019468641
-0.00011099975
4.2946786e-05
-7.7684122e-05
0.0001213347
3.9573931e-06
0.00023560441
0.00018124764
4.0237279e-05
0.00022203749
9.0711999e-05
8.379901e-06
0.00018119974
-0.00010495459
1.7754775e-05
0.00020277927
-0.00030734121
-6.5612931e-05
0.00023181386
-0.00042415327
-0.00010336306
0.00021920968
-0.00047049091
0.00014148898
-0.00010884783
-0.00013661225
0.000218978
-0.00019433215
0.00012289322
-5.1637537e-05
0.0002903636
-1.3156291e-05
0.00013126974
0.00031482818
3.6925938e-05
0.00031507682
0.00013656158
-1.9257045e-05
0.00024857453
6.4134416e-05
-7.4051668e-05
9.8691852e-05
-0.00031803079
5.1195845e-05
3.0213723e-05
-0.00048151155
5.4873113e-05
2.518064e-06
-0.00030239154
-8.7426625e-06
-7.0792755e-05
-9.6901356e-05
1.8682867e-05
-4.3011289e-05
0.0001270291
-6.6090953e-05
9.6892928e-05
0.00024405684
2.3796729e-05
0.00026500101
0.00016295319
0.00014202294
-5.0569912e-05
0.00028553631
6.2634542e-05
5.8094452e-05
-7.1233237e-05
0.00020860863
-0.00010386542
0.00038572547
-0.0001260369
0.00052453646
-0.00014236183
0.0004127183
-0.00016125997
4.6828037e-05
-0.00014179152
-0.00030098737
-0.0002038539
-0.00031588202
-0.00020205611
-0.00013898191
-0.00016215567
0.00011651262
-0.00016188205
0.00036051729
-0.00019588246
0.00045297674
-0.00018192907
0.0003540768
-0.00012694174
0.0001182817
-0.00012695531
-0.00023879153
-0.00037295078
-0.00025973721
-0.0002397623
-6.8197687e-05
9.9976078e-06
0.00013432139
0.00011136745
0.00030645242
4.1598641e-05
0.000488033
-1.5741308e-05
0.00035370909
-8.3900711e-05
6.7847713e-05
-0.00010892724
-0.0001216446
-4.699857e-05
-0.00027352354
0.00013255448
-0.00022461302
0.00011064645
-9.2318462e-05
0.0001200978
-4.2337043e-05
8.4127757e-05
4.0990562e-05
0.00010203344
0.00010760226
-0.00013082341
0.00013736622
4.6706157e-05
-0.00025703615
0.0001612366
5.2360545e-05
-0.00022555743
1.2227639e-05
6.6268332e-05
-4.8063469e-05
-0.00018714791
5.9752612e-05
0.00013616389
-0.00018077514
2.2316505e-05
0.00022972957
-0.0001491385
9.8438189e-05
0.00011901231
5.0056901e-05
0.00013791935
-0.00010318421
0.00013820522
0.00012290707
-0.00021751363
2.6827276e-05
3.3998614e-05
-2.4791143e-05
-0.00035272599
1.1265401e-05
0.00024122936
-0.00037742287
0.00010228206
0.00017857196
6.1594942e-05
9.0277927e-05
0.00010835754
0.00012283629
-9.1320556e-05
0.00011251606
-5.3285667e-05
-0.000209782
0.00013886133
-6.093958e-05
-0.00031760063
0.0001334569
-2.3022621e-05
-0.00031764967
-2.646964e-05
2.9315701e-05
-8.9924322e-05
-0.00032356469
8.5422743e-05
0.00011531547
-0.00024709518
0.00010023059
0.00017131544
-5.4083707e-05
0.00012582301
8.5505414e-05
0.00010061358
0.00010105992
-1.2838031e-05
0.00013055448
2.3259037e-05
-8.1343601e-05
8.6967426e-05
-4.1329841e-05
-0.00010523139
7.1278483e-05
-7.961052e-05
0.00013108544
-0.0003072009
3.4597506e-05
8.7808308e-05
-4.5111873e-05
-0.00038278059
0.00062803126
0.0001034962
-0.00054901705
0.00049755883
0.00010972507
-0.00040164381
-2.888927e-05
0.00013357624
-4.3008649e-05
-0.00050694299
7.3333048e-05
0.00020887726
-0.00042166232
3.4825496e-05
0.00042085878
-0.00041082094
0.00012097085
0.00039851054
-1.4167617e-06
0.00023374462
-0.00020533872
0.00073453119
0.00014987159
-0.00038051076
9.8113925e-05
-8.1245045e-06
-0.00014888772
-0.00074553581
-2.8647969e-05
0.00011307657
-0.00075335161
0.0001268389
0.00018061044
-5.0179107e-05
0.00019039742
0.0001611536
0.00024297766
-5.0971896e-06
0.00016126197
-0.00023686765
-0.00024762618
0.00029130913
-6.0725663e-05
-0.00049966551
0.00035122808
-1.3476298e-07
-0.00045688867
-0.00013374927
3.3435454e-05
-0.00017419199
-0.00068856132
1.5391931e-05
0.00010091687
-0.00053445903
5.4927492e-05
0.00031266516
-0.0002602636
9.3575399e-05
0.00033465194
0.00015110176
5.970328e-05
8.1263122e-06
0.00060983509
-4.5100046e-05
-0.00023880484
0.0004825508
-0.0001739815
-0.0001633652
5.8950151e-05
-0.0001290665
0.00013415548
-0.00073039233
0.00010713752
0.00012418379
7.2735906e-05
7.2395922e-06
0.00062852328
5.0809254e-05
0.00012931488
0.00037872334
1.781747e-06
0.00023492757
-9.5308968e-05
-5.8540193e-05
5.495494e-05
-0.00013580808
-9.3470175e-05
4.9367669e-05
-0.00040765172
-4.21745e-05
1.0854031e-06
-0.00040869677
-8.5827082e-07
2.799405e-05
-8.8233605e-05
6.402228e-06
0.00015426159
0.0006496876
2.5193825e-05
0.00026090729
4.4560175e-05
-0.00013850088
-7.7496131e-05
-0.00010684206
-0.00030597085
-0.0004663832
-0.00010571463
-0.0002295089
-0.00028735765
-0.00028280248
-2.588924e-05
-0.00027776603
5.2704477e-05
2.4700332e-05
2.2826973e-06
7.3194329e-05
9.5809228e-05
-6.722765e-06
0.00024347775
0.00024311013
0.00014789272
3.6399926e-06
0.00019853691
-5.1845078e-05
-0.00011919509
-0.00021729153
-0.00011571888
-0.00023213748
-0.00039067453
-0.00027296647
-9.368854e-05
-0.00022166061
-0.0004618954
-0.00010106974
5.8774045e-05
-0.000231986
-4.2934979e-05
0.00012145885
0.00054118843
-2.0125323e-05
0.00025049989
0.00039927058
-2.6975739e-05
0.00029372797
2.6009951e-05
0.0001408167
-0.00017503298
-0.0001042778
0.00015306174
-1.4391069e-05
4.387125e-05
0.00022307271
0.00039801158
3.4339958e-05
0.00039985363
0.00019178908
-2.3446637e-05
0.00022760712
0.00019634067
-3.039994e-05
6.1157222e-05
0.00011861306
8.5300138e-06
7.0561568e-05
-0.00038549657
-6.549439e-05
-6.8815398e-05
-0.00034757565
1.8108254e-05
-0.00021460994
0.00020670192
-0.00010619419
0.00012654227
0.0003064081
6.0846894e-06
0.00019179823
0.00014967164
-0.00013013014
0.00010875787
0.00017684079
-0.00019226259
-6.7234291e-06
0.00013614515
-0.0001086237
-4.9210306e-05
-0.00023354146
-7.2387081e-05
-0.00040331414
-2.7025265e-05
-0.00026051043
0.00023757764
1.2059184e-05
-8.3452633e-05
-0.00023638903
8.9534387e-05
0.00018631965
-0.00018532868
4.4192052e-05
0.00013822314
7.5587278e-05
-0.00015338752
-4.9825655e-06
9.5037228e-05
-1.6354576e-05
-3.1355214e-05
-0.00024258781
5.0867107e-05
-5.0249398e-05
-0.00044733757
-4.4063062e-06
-1.6541548e-05
-0.00031374099
6.6730019e-05
0.0001977113
0.00018383231
7.7012329e-05
0.00033861594
0.00019364485
8.851784e-05
0.00019221383
0.00020140738
0.00011302765
-3.3731201e-05
0.00013339566
5.0906145e-05
-8.0253285e-05
-3.9102203e-05
0.00028903281
5.113351e-06
0.00038509882
-3.0313832e-05
0.00046909401
-3.0016349e-05
0.00047012515
-4.3678047e-05
2.6754733e-05
-8.3917667e-05
-0.00037434719
-0.00015032762
-0.00026396649
-0.00010573488
-3.360946e-05
-8.6104589e-05
0.0001267354
-0.00017255527
0.00029341974
-0.00018572601
0.00043662005
-0.00018898423
0.00031406306
-0.00023792622
-0.00021620639
0.00013449667
0.00011307857
1.8761785e-05
-9.2867021e-06
-6.0492083e-05
-6.4476179e-05
0.00015085
-0.00015149612
0.00033594179
-0.00017395527
0.00024070771
-0.00025628098
-2.6074095e-05
-0.00022755433
-0.00027162278
6.4362192e-05
-0.00016442988
0.00018728587
-4.9202054e-05
0.00019851484
5.8899555e-05
0.00017743355
0.0001005768
0.00019375188
0.00012792579
-6.2534723e-05
0.00013327541
-2.6874055e-05
-0.00013577058
0.00016771569
-4.4628138e-05
-0.00015406433
0.00015656197
-7.3989743e-05
-9.8552639e-05
5.3251661e-05
-4.9969085e-05
0.00018368941
-0.00022979519
-3.4309831e-05
0.00031343144
-2.1207541e-05
-1.1315599e-05
0.0002542431
0.00016768847
3.0353911e-05
0.00017369311
0.00016470034
3.9858869e-05
0.00010411059
0.00015755956
-5.154491e-05
9.3432265e-05
7.4654038e-05