/*--------------------------------*- C++ -*----------------------------------*\
| =========                 |                                                 |
| \\      /  F ield         | OpenFOAM: The Open Source CFD Toolbox           |
|  \\    /   O peration     | Version:  v2012                                 |
|   \\  /    A nd           | Website:  www.openfoam.com                      |
|    \\/     M anipulation  |                                                 |
\*---------------------------------------------------------------------------*/
FoamFile
{
    version     2.0;
    format      ascii;
    class       volVectorField;
    location    "570/bottomWater";
    object      U;
}
// * * * * * * * * * * * * * * * * * * * * * * * * * * * * * * * * * * * * * //

dimensions      [0 1 -1 0 0 0 0];


internalField   nonuniform List<vector> 
1460
(
(-0.00026182953 -0.014918362 -0.0019660663)
(-0.0013522119 -0.016498681 -0.0025781569)
(-0.0011325767 -0.015949834 -0.0028993395)
(-0.00099732196 -0.016545991 -0.0021197896)
(-0.00091803161 -0.017807331 -0.0029702516)
(0.00046427671 -0.015156093 -0.0038770589)
(0.00048074572 -0.016747101 -0.0040661532)
(0.0018150106 -0.015852765 -0.0037535115)
(0.001547484 -0.015545607 -0.0018626188)
(-0.00050694988 -0.015254706 -0.001416577)
(-0.00053700687 -0.015835957 -0.00080856646)
(-0.0030271143 -0.013830334 -4.7222987e-05)
(-0.0025692992 -0.01237148 0.0011856656)
(-0.0013776325 -0.014381605 0.0016489475)
(-0.00066406872 -0.012631491 0.0010996489)
(0.0020313221 -0.012741059 0.0013609519)
(0.0026492435 -0.01484142 0.00040484331)
(0.0031204606 -0.01272806 0.0017755502)
(0.0042080708 -0.013227729 0.0017732585)
(0.0029666417 -0.01428782 0.0011000812)
(0.00034335354 -0.016815339 0.0010716408)
(-0.0022464216 -0.016349768 0.00019266746)
(0.0004361997 -0.010971579 -7.1113972e-05)
(0.0031212208 -0.014210116 -0.001119475)
(0.0011432423 -0.01727598 0.00020122576)
(0.00040363868 -0.018041324 0.0011594672)
(-0.0012282558 -0.012259277 -0.00068528169)
(0.0011910482 -0.010710936 0.0019558648)
(0.0032071423 -0.012819814 0.001512812)
(0.0012531714 -0.013663549 0.00099022132)
(-0.0028814958 0.017169741 -0.00250706)
(-0.00242575 0.018460115 -0.0036319745)
(0.0013418923 0.017193879 -0.0044006672)
(0.0020903071 0.018311 -0.0052192317)
(-0.0025532947 0.01883648 -0.0060615378)
(-0.0034524514 0.017101293 -0.0055032359)
(-0.0021402284 0.017499328 -0.0053966574)
(0.0019386626 0.01583466 -0.0024819402)
(0.0033410114 0.017805814 -0.0010732843)
(0.0011014161 0.017593159 -0.00093424475)
(-0.0046524068 0.017798204 -0.00044716352)
(-0.0068934659 0.014767088 0.00030723422)
(-0.0019964794 0.0031430484 -0.00010064954)
(-0.0034740513 0.0059545662 0.0015725731)
(-0.00039290441 0.0027744208 0.0014793539)
(0.00089397625 0.0023985313 0.0010306431)
(0.0032699801 0.013050853 0.0012566328)
(0.0037958287 0.0046771092 0.0021697225)
(0.0054208265 0.010842252 0.0020283993)
(0.005954004 0.015975574 0.0016807134)
(-0.0025488672 0.018725826 0.00077764231)
(-0.0061261687 0.016244011 -0.00041714567)
(-0.0017971005 0.0011736776 -0.001034509)
(0.004050478 0.015430786 -0.0033908925)
(0.0034615745 0.018813 -0.0034333626)
(-0.0036148146 0.018522456 -0.0021574412)
(-0.0026497105 0.010199187 -0.00074270925)
(0.00023017061 -0.0019682083 0.001163122)
(0.0029350913 0.010385273 0.00057643426)
(0.0032320366 0.015576273 0.001056123)
(-0.00062255904 0.00099025995 -0.00047435082)
(0.0012157589 -0.016863578 0.0042149495)
(-0.0031648478 -0.013089347 0.0018836977)
(-0.00035775074 0.0050562686 -0.0028468299)
(-0.0012667993 0.0055627355 -0.0027922838)
(0.00023509587 -0.00014038896 -0.0028969642)
(0.00256425 -0.016607732 0.0035690281)
(-0.0018379983 -0.017575301 0.0052886568)
(-0.0019969086 -0.010749341 0.0025018991)
(0.00043621722 0.0022257899 0.00018228628)
(-0.00095682 0.0026203416 -0.0011101242)
(0.0049968714 -0.01351596 -0.0036434466)
(0.0045857457 -0.015453757 -0.004094581)
(-0.0025615083 -0.016110723 -0.0024593593)
(-0.00040982837 -0.013704301 -3.0691184e-05)
(-0.001927287 -0.014357472 2.1199979e-06)
(0.0016736107 -0.013944459 0.0030124471)
(0.0015661752 -0.015919377 -0.00049161989)
(-0.0040701557 -0.014471218 -0.0019114162)
(0.0022940731 -0.0017608393 -0.00069102682)
(-0.0013512271 0.0061917813 0.00082576151)
(0.0042587737 -0.0098344768 0.0009189492)
(-0.0016290525 -0.015020808 -0.00054725973)
(-0.0055651602 -0.01096954 -0.0020549711)
(0.00036474281 0.0048100166 -0.0032383442)
(-0.0019993604 -0.0010092472 -0.0011416523)
(0.0048446678 -0.012588692 0.0012928065)
(0.00062286483 -0.014022105 -0.00019775304)
(-0.0039230212 -0.014463507 -0.0024310768)
(0.00059523305 -0.0022386796 -0.00052211115)
(0.0029138857 0.0080099621 0.0010544757)
(0.0018438225 0.012405487 -7.816332e-05)
(-0.0061701546 0.012008134 -0.0015064828)
(-0.0032184595 0.0092937823 -0.00086103923)
(-0.00072197598 0.010069398 -0.00098892429)
(0.0028330184 0.0076111927 -0.001076518)
(0.0037521268 0.011367219 -0.00090387224)
(-0.0047790279 0.011944262 -5.6362348e-05)
(-0.0052422546 0.010076732 0.00035563166)
(-0.0022458282 0.0083486034 0.00021276775)
(0.0020309239 0.007975371 -0.0010330578)
(0.0037262518 0.010606343 -0.0019435312)
(0.003364327 0.011135862 -0.0016594856)
(-0.0014325934 0.011853105 -0.00082092883)
(0.0012097551 -0.0039329913 -0.00023522083)
(-0.0016023727 -0.0054277235 4.5625933e-05)
(-6.750778e-05 0.0030174659 -0.00018757075)
(-0.001317041 0.010821444 -0.00018001475)
(-0.0032534303 0.0089069003 -0.0021293031)
(-0.0013967451 0.0067514558 -0.00084597368)
(0.00084372473 0.0088957688 0.00096397325)
(0.0043084707 0.010298404 0.0016000783)
(-0.0036344512 0.010326056 0.0021604866)
(-0.0063126 0.010722894 -7.3148644e-05)
(-0.0021219202 0.007820306 -0.00022013254)
(0.0034284751 0.003417621 0.001542439)
(0.0024677412 0.0018701971 0.00054766939)
(0.0024056552 0.0050739089 0.0013652803)
(-0.0024322361 0.010603319 -0.0028591449)
(-0.0021068892 0.0072176663 -0.0020122335)
(-0.0021865083 -0.0048798224 0.003775667)
(-0.0013326297 -0.0021458131 0.0033252256)
(-0.0025505798 -0.0026416457 0.0027930904)
(-0.0021398555 0.0014648197 0.0017931028)
(0.00056838669 0.0034340845 0.0015626409)
(0.0014826008 -0.0015037512 0.0023051593)
(5.6961582e-06 -0.0027004657 0.00317772)
(0.00037569592 -0.0014614238 0.0029532043)
(0.0015908624 -0.011354703 0.001692841)
(-0.0028593897 -0.0038398548 0.0018534856)
(0.0016634063 -0.001557137 -0.00011153826)
(0.0019977947 -0.0093724145 -0.00074454686)
(0.0039041177 -0.0073230405 -0.00038114433)
(0.0056723885 -0.0088467585 -0.00048644278)
(0.005713215 -0.009486693 -0.00066975259)
(-0.0037506319 -0.0097956909 -0.0019491959)
(-0.0054342974 -0.0095227597 -0.0026463706)
(-0.0046559226 -0.0086507555 -0.0017292021)
(-0.0022334962 -0.0081642576 -0.0019884882)
(-0.0011349243 -0.0040416454 -0.0016820155)
(0.0010760066 -8.9096622e-05 0.00067135167)
(0.0036116634 -0.0047263944 0.00067874468)
(0.0035591651 -0.0053438648 0.0010384791)
(0.0040534488 -0.0097521658 0.0012191361)
(0.0024916991 -0.0087086531 0.0017996559)
(0.00048256826 -0.010061891 -0.00055974028)
(-0.0027368852 -0.0090975856 -0.0021549531)
(-0.0040171764 -0.0070194632 -0.0010673294)
(-0.0025600606 -0.0027421897 -2.5431817e-05)
(-0.00020267838 -0.0042121377 0.00016555088)
(-0.0018998887 -0.014683651 -0.0025242244)
(-0.0021783091 -0.011676532 -0.0017272582)
(-0.00021595756 -0.01182309 -0.0023370591)
(6.5246476e-05 -0.015736797 -0.0041074956)
(-0.0023842729 -0.016591248 -0.0043325413)
(-0.001815671 -0.014395823 -0.0039493904)
(-0.00090049844 -0.012667167 -0.0012579378)
(0.0025090202 -0.011391152 0.00036621651)
(0.0042011675 -0.0122505 -0.00099993856)
(0.0016544356 -0.014531778 -0.0020302026)
(0.00045214495 -0.016970488 -0.0020129947)
(-0.0010070053 -0.018483114 0.00044183362)
(-0.0021866417 -0.015904504 0.0027853713)
(-0.0026024816 -0.016292717 0.0025360631)
(-0.0016252052 -0.011699317 0.0028284525)
(0.0010681294 -0.012293073 0.0012883481)
(0.0027447133 -0.011780808 -2.3197778e-05)
(0.0040402415 -0.013094777 0.00085960286)
(0.0028681444 -0.013142091 0.00016139092)
(0.0011397613 -0.016205059 -0.00023931707)
(-0.0011090111 -0.016948944 0.00028874439)
(-0.002241725 -0.015916216 -0.001386328)
(-0.00080296008 -0.012779142 -0.00095431537)
(0.0027212518 -0.011433271 -0.0025905216)
(0.0031976489 -0.015003799 -0.0021148384)
(-0.00051701013 -0.016033823 -0.00080468506)
(0.00072589204 -0.011704221 0.00058862762)
(0.0036745215 -0.012911909 0.0018447791)
(0.002900829 -0.014302537 0.00066936103)
(0.00038745781 -0.015614045 -0.0002784692)
(-0.0042084678 0.016090598 0.00029768027)
(-0.00077573021 0.0053376475 0.0020952843)
(-0.0012687313 0.0042038872 -0.00056738287)
(0.0021842511 0.016854871 -0.006033574)
(-0.0031864139 0.016891019 -0.006467204)
(-0.0035492309 0.010882153 -0.0036802698)
(-0.00067380921 0.00044567038 0.00092335215)
(-0.00055703905 -0.0024349568 0.0018533317)
(0.00531259 0.013133988 0.0019578961)
(0.0034324394 0.016967872 0.00044900808)
(-0.00065461446 0.019097537 -0.002601066)
(-0.0036334731 0.019997271 0.0014228643)
(-0.0060935185 0.017144807 0.0051588773)
(-0.0063397088 0.014763311 0.004818877)
(-0.0026709181 0.002174905 0.0021832329)
(0.00046878569 0.005069905 0.0026123603)
(0.0026928332 0.0028098053 -0.0002072875)
(0.0068886661 0.012902876 0.0032350343)
(0.0058541028 0.015888247 0.0029550694)
(0.0031928604 0.017958653 0.0015761154)
(-0.0051447176 0.018843485 -0.002133771)
(-0.0066888832 0.015903018 -0.0033104412)
(-0.0017605298 0.0041888562 -0.0020091954)
(0.00045142474 0.0039462294 -0.0021936706)
(0.0028601309 0.016066425 -0.0042880528)
(-0.0016168639 0.017418002 -0.0020276291)
(0.00071916868 -0.00028510022 0.00060634689)
(0.0029830123 0.010256403 0.0025564924)
(0.0039896758 0.016136184 0.0026706204)
(0.0025082772 0.017457498 0.0011223598)
(0.00097764666 -0.0067564178 0.0020084534)
(0.0033054193 -0.014634483 0.0040158749)
(-0.0025028004 -0.014035074 0.0025669333)
(-0.0018923835 -0.012153309 0.0024157012)
(-0.0016549824 -0.0077145831 0.0011460463)
(0.0008486574 -0.014302165 0.0021378117)
(-0.00021616743 -0.014790363 0.002330849)
(-0.0053450003 -0.015287471 0.0012602558)
(-0.0058019321 -0.013239692 0.00020155657)
(-0.00068184613 6.9662758e-05 0.00031370162)
(-0.0017508365 0.0030120257 -0.0021742842)
(-0.0012914059 -0.00026372146 -0.0014586947)
(-0.00092697666 -0.0030367707 -5.8448133e-05)
(0.00071898822 -0.015730298 -0.0017259999)
(-0.00047080311 -0.014362884 -0.001382155)
(0.0010953537 -0.013093407 0.00043503252)
(-0.0011870065 -0.015258427 -0.0019901758)
(-0.0031070961 -0.012947091 -0.0035512409)
(0.00011824771 0.00037757635 -0.0016155978)
(0.0012389616 0.0049162729 0.00085794332)
(-0.00078776558 0.0053608075 -0.00041617298)
(0.0045331726 -0.012348232 0.001860438)
(0.0024648699 -0.015368756 -0.00053527085)
(-0.0030048678 -0.013485759 0.00099579136)
(-0.0019149382 -0.012808153 0.0037976188)
(0.0036274347 -0.012925805 0.0057018774)
(0.00044386221 -0.015303376 0.00047178754)
(-0.0050755394 -0.014103367 -0.0028493806)
(-0.0028890439 -0.0079453312 -0.0022632627)
(0.00013083066 -7.1990176e-05 -0.00081741199)
(0.0024000971 0.005700396 0.0020251582)
(0.0025696483 0.0084729757 0.00015099329)
(0.00067181222 0.0062273871 2.8458495e-05)
(-0.0016542135 0.010338961 0.0011452662)
(-0.0032062007 0.008242963 0.0006428578)
(-0.0027935542 0.0041434788 6.5859595e-05)
(-0.0042828129 0.007011936 -0.0013703383)
(-0.0052591979 0.0078040628 -0.0018905831)
(-0.0051970328 0.0076660891 -0.0014065499)
(-0.0029298531 0.0074821707 0.0001200876)
(4.1335624e-05 0.008327264 0.00066442492)
(0.00034467555 0.0084139348 -0.00079263498)
(0.0020583799 0.0076432484 -0.00044500271)
(0.00045853555 0.010798258 -0.0020924792)
(-0.00065698167 -0.0034715713 -0.00066992652)
(-0.0016076007 0.00052236981 -0.00037644932)
(-0.0016687839 0.010257041 -0.001116172)
(-0.004616183 0.0087832293 -0.0029475186)
(-0.0028887954 0.0066180568 -0.0025454604)
(-7.9820785e-05 0.0092677751 0.00047903272)
(0.0025093556 0.0080814898 0.0022646184)
(0.0060767323 0.010074369 0.0023264373)
(0.0012424768 0.010943683 0.0020295774)
(0.0014699622 0.0025575368 0.00039703208)
(-0.00021465083 -0.0015047651 0.0032000399)
(0.0021902461 0.0073700948 0.0048720163)
(-0.00088124376 0.0096482485 0.0019193614)
(-0.0044730237 0.0096572953 -0.0008200525)
(-0.0037800201 0.0067635416 -0.00090171374)
(-0.0021574635 0.0074926356 0.00037933129)
(-0.0011960259 -0.010165056 0.004537695)
(0.00023320479 -0.0099098733 0.0064858377)
(-0.00052545211 -0.0092282771 0.0068733895)
(-0.0016203437 -0.0072161878 0.0058242754)
(0.00018844863 -0.0057962872 0.0059673343)
(-0.00087640816 -0.0088184975 0.0055592863)
(-0.0024948799 -0.0095235402 0.0062413094)
(-0.0017405588 -0.010101624 0.0045285027)
(-0.0027116847 -0.010675529 0.0017025713)
(-0.0030894982 -0.0046048676 0.0016448064)
(-0.00082481815 -0.00047641405 0.00018104317)
(0.00091218794 -0.00084401725 -0.0024580266)
(0.00260142 -0.0015279068 -0.00067717445)
(0.0046907955 -0.0071969387 -0.00077031938)
(0.0019094181 -0.0095159483 -0.002003505)
(-0.0060353991 -0.0091920754 -0.0033218685)
(-0.0052010574 -0.0070278723 -0.0033039955)
(-0.0042926841 -0.0056830833 -0.0026601264)
(-0.0028768427 -0.0018546263 -0.0025852589)
(-4.0135849e-05 0.0019964182 -0.00016734259)
(0.0029506807 -0.0012599807 0.0013351047)
(0.0047305583 -0.0045685034 0.0020176028)
(0.0053304997 -0.0051716781 0.0026028346)
(0.0060288435 -0.0084734301 0.0022997781)
(0.00040924013 -0.010696602 0.0012460571)
(-0.0039869498 -0.0083882676 -0.001271115)
(-0.0013155052 -0.0026453784 -0.00079995869)
(6.0924226e-05 -0.005481246 -0.0016583193)
(0.0012114504 -0.01087532 0.0011807468)
(-0.001222248 -0.0085201434 -0.0011159938)
(-0.002238669 -0.016598972 -0.00048498525)
(-0.0028956022 -0.013306327 0.00029491557)
(-0.0021473359 -0.013062548 -0.00082115488)
(-0.00093383617 -0.012747486 -0.0018059451)
(-0.0011268625 -0.012979346 -0.0029245301)
(0.0010672155 -0.012460769 -0.0029974233)
(0.0028674231 -0.012382697 -0.00085274391)
(0.0042423078 -0.014909518 -0.00053188787)
(0.0035881351 -0.016374009 -0.0023963378)
(0.0015917359 -0.016410311 -0.0036128887)
(0.00095338154 -0.016402525 -0.0038423308)
(-0.00055848285 -0.017584983 -0.001873221)
(-0.001563021 -0.016429594 -0.00085518814)
(-0.00061775177 -0.016803219 0.00074236794)
(-0.0023783914 -0.013410082 0.0023027831)
(0.000990598 -0.011012284 0.0016754106)
(0.0035950445 -0.013194928 0.0019698112)
(0.0028633466 -0.014063742 0.00080884215)
(0.0013568703 -0.017229828 -0.00065108694)
(-0.00078217431 -0.015683774 0.00067932467)
(-0.0032881964 -0.013883021 -0.00024275939)
(-0.0027597248 -0.011897252 -0.0016499088)
(-0.00071408198 -0.0125625 -0.0015081307)
(0.00096998494 -0.012140638 -0.00062120248)
(0.0023382835 -0.011723265 0.00070680122)
(0.0038245072 -0.011771456 0.0010520508)
(0.0043232693 -0.013562623 0.0021174516)
(0.0031464476 -0.014466228 0.0017825276)
(0.0015046168 -0.017768035 0.0010975388)
(0.00042209146 -0.019039634 1.3391003e-05)
(-0.0053761463 0.017102857 0.0023143213)
(-0.003069733 0.0072027835 0.002648085)
(-0.0023680963 0.0034256613 0.00091024198)
(-0.0006314291 0.0034359245 -0.00052150064)
(-0.0017729688 0.0023985959 -0.0024181278)
(0.00027946741 0.00034507908 -0.0029690935)
(0.0026441434 0.003175182 0.00014766865)
(0.0053612364 0.01337854 0.0023003566)
(0.0053452001 0.017665872 0.00094935276)
(-0.0005852563 0.018244531 -0.0029184151)
(-0.0021826544 0.016961741 -0.0056434091)
(-0.0002225102 0.018462916 -0.0051854288)
(-0.0022715091 0.017704693 -0.0027306556)
(-0.0037727737 0.018334754 0.00026190985)
(-0.0047961536 0.014678735 0.0023405296)
(0.0030811398 0.0014500118 0.0017731491)
(0.0051235529 0.010089475 0.0022787826)
(0.0063167149 0.015829737 0.0025848802)
(0.0028899521 0.018662619 0.0010016029)
(-0.0048848599 0.017786366 -0.00056523539)
(-0.0065991732 0.015051229 -0.002562906)
(-0.0031323414 0.0050461621 -0.0030072006)
(-0.0018300802 0.0050791061 -0.0025870956)
(0.0006894156 0.0021212807 -0.00043931838)
(0.0027170846 0.0016410504 0.0023408753)
(0.0032212847 0.0028582794 0.0028284983)
(0.0056207821 0.013075383 0.0044159717)
(0.0045746223 0.016314148 0.0039668456)
(0.0006156831 0.019319673 0.00044379535)
(-0.00031629811 0.020240321 -0.00064680463)
(-0.00074423859 -0.0034921675 0.0017080532)
(0.0032697988 -0.014387475 0.0015183436)
(-0.00052987292 -0.013689228 0.0017110314)
(-0.00024544929 -0.01385435 0.0011417206)
(-0.0015231247 -0.01376916 -8.3829248e-05)
(-0.0011187489 -0.013991256 -0.0019016636)
(-0.0023678926 -0.013787119 -0.0016332996)
(-0.0041050023 -0.01365356 -0.0039431954)
(0.0011767728 -0.00048929329 -0.00083295025)
(0.00023122138 0.0032218418 -0.0012375304)
(-5.4066088e-05 -0.017206787 0.0043796857)
(-0.0029393838 -0.012710323 0.00054323368)
(0.00010798076 -0.00013338115 -0.0016234367)
(-0.00078104697 -0.0017450066 -0.0015510634)
(0.0037682314 -0.013668039 -0.00083423566)
(0.0045623779 -0.014572641 -0.00034464173)
(-0.0014483339 -0.01403201 -0.0044655485)
(0.00043160595 0.00058245338 -0.0018900111)
(0.0013137433 0.0067477521 -0.0017756521)
(-0.00024942729 0.0043112282 0.00049725096)
(0.0046981848 -0.011457627 0.00087896783)
(0.0026926928 -0.01456379 -0.00058089918)
(0.00023828546 -0.012901346 -0.0022518844)
(0.00045283633 -0.013365374 8.9161879e-05)
(0.0014188896 -0.013419433 0.0032819014)
(-0.00012141026 -0.0153219 0.0019621887)
(-0.0033985228 -0.013379632 -0.0025125701)
(-0.0008902301 -0.00063222104 0.0001888031)
(-0.0022343856 0.00016968868 -0.00099866142)
(-7.6955993e-05 -0.011024323 -0.00028082873)
(0.0019660623 0.0079145725 2.0633166e-07)
(0.0028463872 0.0065684279 0.00088864153)
(0.0010910166 0.0012037994 0.00149787)
(-0.000484784 -0.0012413858 0.0024674537)
(-0.0016471139 -0.0020546806 -0.00022563636)
(-0.0014812956 -0.0022389807 -0.0017836429)
(-0.0023802833 0.0013227556 -0.00071046251)
(-0.0043802808 0.0060628648 -0.0025676032)
(-0.003065961 0.0065000359 -0.0021932458)
(0.0027724748 0.0085292517 0.0011478787)
(0.0062215744 0.012185196 0.0022676653)
(-0.00090096724 0.012819047 0.00015813779)
(-0.0019667867 0.0079400734 -0.0014024382)
(0.0022243487 0.0071260178 -0.0025652155)
(0.001857713 0.00045718351 0.00041110762)
(0.0013565712 0.005134793 0.0011663045)
(-0.0035855883 0.0097538414 -0.0031046828)
(-0.0031678199 0.0072670208 -0.0032944265)
(-8.4362315e-05 0.010353585 -0.0024935223)
(0.0027511405 0.0083509583 0.00021234676)
(0.0055145278 0.0097020433 0.0021552532)
(0.0011767947 0.0087700455 -0.0014340219)
(0.0018288102 0.0012251828 -0.0007871578)
(0.0012814261 -0.0029441831 -0.00059605963)
(0.0011544788 0.0022029819 0.0015131549)
(0.00040359255 0.009450304 -0.00031987289)
(-0.0037603597 0.010231865 -0.0022061709)
(-0.0032627755 0.0071750622 -0.0016476257)
(0.0008364482 0.0050485466 -0.00058817284)
(0.0028325658 0.011841376 0.0016435136)
(0.0012342002 -0.0076631107 -0.00099918912)
(0.0029516236 -0.010896536 0.00056324761)
(0.0029706726 -0.010921897 0.0019914909)
(0.00076415164 -0.0094477268 0.0043524701)
(-0.001164277 -0.0083825263 0.0032218729)
(-0.0033435801 -0.0096602951 0.00049858844)
(-0.0047213867 -0.010599437 0.00086190847)
(-0.0045085453 -0.01039687 -7.2928146e-05)
(-0.0041007491 -0.0092680391 -0.00015052514)
(-0.0036991883 -0.0093963846 0.0014586646)
(-0.0024137655 -0.0088053054 0.0028804032)
(0.00044441266 -2.5736408e-05 0.0022351657)
(0.0033595521 -0.0013445906 0.0017229622)
(0.0051406517 -0.0071857022 0.0024836633)
(0.00058882661 -0.01048756 -0.0006388534)
(-0.005077972 -0.0079606892 -0.0032579641)
(-0.0043628619 -0.0046015055 -0.0027726156)
(-0.0035614893 -0.0020403627 -0.0026526111)
(-0.00096533426 0.003587142 -0.0023142558)
(0.0026285772 0.0010168906 0.00069734174)
(0.0047990117 -0.0026138068 0.0016138166)
(0.0063576512 -0.0062129769 0.0025665375)
(0.0066637673 -0.0080997053 0.003296054)
(0.0025591561 -0.0094487816 0.0012509998)
(-0.0044769896 -0.0068101885 0.00025462476)
(-0.0026024305 -0.0020095694 -0.0003713299)
(-0.00163606 -0.0037896653 -0.00093730173)
(0.00041066951 -0.0070891113 -0.0015596372)
(-0.0028883095 -0.0082209207 -0.003578659)
(-0.0015528594 -0.0020383989 -0.0012295566)
(-0.0015803417 -0.015804591 0.0014005579)
(-0.0033808789 -0.014847431 0.0021713773)
(-0.0019533867 -0.012548662 0.0023451324)
(-0.0011960856 -0.013559451 0.0014441196)
(-0.0010009377 -0.012511139 0.00083957764)
(0.002643933 -0.012086765 0.00041659453)
(0.0033556674 -0.012829028 0.00092683271)
(0.0029708878 -0.016270106 -8.468004e-05)
(-0.00033305989 -0.018585336 -0.0022863395)
(-0.002422321 -0.01594341 -0.0035952557)
(-0.00092522321 -0.012181592 -0.00097355736)
(0.0012665631 -0.0114327 0.00067877072)
(0.001076353 -0.011750957 -0.0011968101)
(0.0022857473 -0.012486498 -0.002018768)
(0.0030329642 -0.013300019 -0.0026792982)
(0.0034241768 -0.016333006 -0.0011939344)
(0.0029886808 -0.015738417 -0.00054872899)
(0.0013660484 -0.017673209 -0.00075537564)
(-2.7764296e-05 -0.017354768 -0.00029356351)
(-0.0020311477 -0.014726725 0.00036503494)
(-0.0034271558 -0.013875066 -0.00018863295)
(-0.0027594007 -0.011400168 -0.00092072353)
(-3.6786775e-05 -0.012306446 0.00023152335)
(0.0022659781 -0.012274353 0.0014140854)
(0.0039867744 -0.013336587 0.002157103)
(0.0038138311 -0.014305562 0.0022758234)
(0.0032138526 -0.015471859 0.0012795542)
(0.0028543315 -0.016357125 0.00097981578)
(0.0018661967 -0.017027092 -0.0013716646)
(0.00054924086 -0.016823929 -0.0017552394)
(-0.0050793308 0.017631178 0.0041086455)
(-0.005789675 0.014047975 0.0052338178)
(-0.0029490615 0.0034955375 0.0036826055)
(-0.0019893604 0.0097644229 0.002822558)
(0.00058637119 0.0012192663 0.00087788175)
(0.0032884236 0.00021024825 0.00054802618)
(0.0048203038 0.0075805846 0.0022013115)
(0.0064180925 0.016868528 0.0027564797)
(-0.0036828534 0.019681878 -0.0020019983)
(-0.0055828422 0.013985032 -0.0030030312)
(-0.0010909564 -0.00092099571 0.0021344755)
(-0.00015210969 0.0026370834 0.001294965)
(0.00045196875 0.0036959955 -0.0010558576)
(0.0012694937 0.0071208617 -0.0022301294)
(0.0038311753 0.0099242617 -0.0013863452)
(0.0063014086 0.014903332 -0.00014838774)
(0.0071765288 0.017270556 0.00091312232)
(0.0045887876 0.019235946 -0.0018197553)
(-4.5307505e-05 0.019076223 -0.0021979539)
(-0.0056933038 0.016778631 -0.00071917752)
(-0.006088969 0.012939655 -0.0012047804)
(-0.0028866902 0.0020890316 -0.0016936527)
(0.00012040029 0.00013624655 0.00024118224)
(0.0013769083 0.00013356376 0.00068092019)
(0.0050405903 0.0091127864 0.0024892098)
(0.0059296958 0.014751176 0.0044245435)
(0.0043618291 0.01714869 0.0035415227)
(0.0014791045 0.018088238 0.0010424645)
(-0.0003688958 0.018645392 -0.0038827167)
(0.00092780841 0.018380401 -0.0021384768)
(-0.0021804696 0.0027646116 0.0016405326)
(0.0052818944 -0.014415399 -0.00065024773)
(-0.00029432836 -0.015484953 0.0016339606)
(-0.00027572383 -0.013465952 0.0031495624)
(0.0020922009 -0.014296048 0.00010134134)
(0.0013965821 -0.014257787 -0.0011172436)
(-0.0018913122 -0.014098135 0.00096096847)
(0.0013871784 0.0001356102 0.0018518799)
(-0.0018347852 0.005055877 -0.0010126238)
(0.0046509437 -0.013845796 0.0045111917)
(0.0015615451 -0.015475181 0.0049703319)
(-0.00092899686 -0.014033816 0.00091903316)
(0.00069799026 -0.013817257 -0.00050237782)
(0.00055054057 -0.013406661 0.00062704388)
(0.0031249513 -0.013982431 0.0014818268)
(0.0014513573 -0.016395706 -0.0012779226)
(0.0024305557 -0.0036971376 -0.00091623251)
(0.0019021844 0.0042313713 -0.0029847321)
(0.0014626799 0.0060090473 -0.0024799678)
(-4.7965262e-05 -0.00043381099 -0.0011158484)
(0.0047002762 -0.014807205 -0.00073161861)
(0.0022878306 -0.014027808 -0.00079949613)
(0.001342605 -0.013467086 0.00040328252)
(-0.001619414 -0.014369304 -0.0021513506)
(-0.0032719785 -0.013768269 -0.0030542885)
(0.00095763432 -0.0045590578 0.0001920635)
(0.0010755643 0.0029225813 0.0013572151)
(0.0010240109 0.0025103041 0.0010401585)
(-0.00036735188 -0.014679968 0.0057386537)
(-0.00082822334 -0.012838405 0.001516539)
(0.001593836 0.0076903813 0.0012365186)
(0.0041456612 0.010035517 0.00072138316)
(-0.00017194067 0.0090983293 0.0044072674)
(0.00059801982 0.0011744452 0.0023870884)
(0.0010587744 -0.0046960354 -0.00031816841)
(-0.00013245364 -0.0028793397 -0.0018977863)
(-0.0017166502 0.0045615484 0.0026119735)
(-0.0025345892 0.0071158376 0.00010679314)
(0.00088301306 0.0089743528 0.001348465)
(0.0041459014 0.01129197 0.0034353069)
(0.0020847449 0.0076052589 0.0012841149)
(0.0021923381 0.0014728872 -0.00011045315)
(0.0032195761 -0.0020047774 -0.00033206815)
(0.0021976127 -0.0026748257 0.0011602758)
(0.0034137588 0.0046553481 0.0015990906)
(-0.00017206125 0.010684558 0.0014823378)
(-0.0030435008 0.0076980585 -0.001564633)
(-0.0015271002 0.0093793187 -0.0016694284)
(0.00038787699 0.0097919944 -0.00099213638)
(0.0029206887 0.0075282277 -0.00055684881)
(0.004231558 0.010289407 -0.00073548934)
(0.0024883532 0.001277437 -0.00056584457)
(0.00015623184 -0.0030444988 0.00027113753)
(0.00073733718 0.0029346364 8.703381e-05)
(-0.00075144115 0.0063833994 -6.9368966e-05)
(-0.00078505407 0.0074757412 -0.0017752659)
(-0.00021962728 0.0085961597 -4.5720123e-06)
(0.0029782945 0.0086930127 0.0020718521)
(0.0028423942 0.013183602 0.0024049928)
(-0.0038049119 0.012755957 -0.00077488998)
(0.001649636 -0.00096732347 -0.002056864)
(0.0037530975 -0.0056556335 -0.0026405196)
(0.0060874171 -0.0077502654 -0.0030794036)
(0.0063074592 -0.0091305731 -0.0030611271)
(0.0046084323 -0.0096411472 -0.0028204232)
(-0.0035080162 -0.0090254506 -0.0046503956)
(-0.0043125621 -0.0071173421 -0.0046472691)
(-0.0032711639 -0.0027071687 -0.0037235112)
(-0.00012814637 -0.0026335607 -0.0029084608)
(0.0031913693 -0.0077377239 -0.0030727521)
(0.0055365345 -0.010039959 -0.0024589904)
(0.0053584047 -0.0096449117 0.00026787444)
(0.0038685148 -0.0095812337 0.00026646919)
(-0.00099697517 -0.0099083882 0.0015044439)
(-0.0052537685 -0.0070627369 -0.00039816599)
(-0.0035244 -0.0027366042 -0.00054809021)
(-0.0033951474 -0.0030136998 -0.0011977486)
(-0.0022662098 0.00078483558 -0.0013612481)
(0.00051954564 0.0010218571 0.0022694457)
(0.0026939046 -0.0025387159 0.0023425235)
(0.0053268677 -0.0076899265 0.0020884357)
(0.0062299724 -0.0096633982 0.0008557551)
(0.0026659682 -0.01025112 0.00016593042)
(-0.00072883806 -0.011100338 0.0014124906)
(-0.002648645 -0.0085851957 0.0025205188)
(-0.0038411659 -0.0028116509 0.0014564921)
(-0.0015656032 -7.8915943e-05 0.0012835733)
(-0.0010136165 -0.0028548412 0.00061204587)
(0.00019285319 -0.0029748715 0.00023935082)
(0.00063309319 -0.010318237 0.0015149317)
(-0.00051455765 -0.017037463 0.00093166162)
(-0.0029740786 -0.015567379 0.0014054099)
(-0.0032260311 -0.015845181 0.0019006113)
(-0.0022440803 -0.012634147 0.00090504746)
(0.00093261575 -0.012668808 0.00031087209)
(0.0026399239 -0.012549362 0.0015018459)
(0.002861666 -0.016942905 0.0022746245)
(0.00030073233 -0.018522949 0.001822596)
(-0.0031207388 -0.016645833 0.00045416247)
(-0.0019406213 -0.012487564 -0.0013671262)
(0.0014350362 -0.012942617 0.00084559296)
(0.0039372815 -0.013654712 0.0022566409)
(0.00099504423 -0.016074394 0.0029757016)
(-0.00046044532 -0.019120744 -0.00039873853)
(-0.0018222991 -0.016143098 -0.0013043729)
(-0.0035529249 -0.014868689 -0.00033525397)
(-0.0046279287 -0.013432793 0.00021018695)
(-0.0028223535 -0.01225288 0.00062919028)
(0.00033386711 -0.011891583 0.0017831459)
(0.0024607704 -0.012457639 0.0030423222)
(0.001972079 -0.01567789 0.0022339334)
(8.4261872e-05 -0.017461143 -3.9040934e-05)
(-0.00031668629 -0.017074775 -0.0019891308)
(-0.0020460591 -0.013825316 -0.0024110977)
(-0.00014358881 -0.011030758 0.00032528427)
(0.0029737477 -0.01625263 -0.0017797119)
(-0.0038033232 0.01839998 0.0038855018)
(-0.0064335106 0.017461684 0.0049396291)
(-0.0067804528 0.014461319 0.0048091504)
(-0.0025971602 0.0040048754 0.0018322977)
(0.0014018716 0.0042744209 0.00081078872)
(0.0035420695 0.0053500536 0.0019331813)
(0.0069071621 0.016723763 0.0041064817)
(0.0024419219 0.019942912 0.0023733402)
(-0.0076422236 0.01568207 -0.001999373)
(-0.00105561 -0.0021933031 -0.0034148434)
(-0.0022783904 -0.002561111 -0.0015431941)
(0.0044215995 0.013736039 0.003521528)
(0.00074513406 0.016976311 0.0048664105)
(0.00024022927 0.02010379 -0.0050360257)
(-0.00041376928 0.017631999 -0.0033149488)
(-0.0060256835 0.016255543 -0.00044097455)
(-0.0071049542 0.010977464 2.8631028e-05)
(-0.003169119 -0.0012331716 -0.0004581108)
(-0.0014745628 0.0011593372 0.0014362355)
(0.0035305025 0.0091861833 0.002530014)
(0.004825406 0.016438202 0.0021473147)
(0.0032196275 0.018781689 -0.00028110739)
(-0.0029589167 0.017555282 -0.004631651)
(-0.0033756591 0.014076693 -0.0038373444)
(-0.00023489957 -0.0020015556 0.0032214726)
(0.0032189418 0.016831889 0.0013327006)
(0.00032729178 0.0052908228 0.00090917483)
(-0.00030198863 0.0015769703 0.00079240626)
(0.0040237599 -0.01418394 -0.0022051014)
(0.0013051957 -0.015432748 -1.885197e-05)
(0.00038480069 -0.01340288 -0.0011423515)
(0.00062555633 -0.014189393 -0.0007004915)
(-0.00058989484 -0.015620765 -0.002602403)
(0.0013923471 0.0069644483 0.00036640617)
(0.0027076389 -0.010893025 -0.0024673723)
(0.0032642261 -0.015787474 -0.0047823488)
(-0.0053903961 -0.015731696 -0.0039075871)
(-0.0054650018 -0.013922847 -0.0035004631)
(-0.0017218383 -0.0097897011 -0.0026511981)
(-0.0010169655 -0.012869498 0.00048779757)
(0.0017516283 -0.0056531521 0.003277115)
(0.00064537269 -0.0022387914 -0.00093404504)
(0.0048914805 -0.012931573 -0.0026318143)
(0.00019048245 -0.015389613 -0.0023566696)
(-0.0055280713 -0.013496799 -0.00068530213)
(-0.0038147738 -0.014147934 -0.0024846148)
(-0.0014998567 -0.0096124519 -0.0018498716)
(0.0028176714 0.0040442522 -0.00098592588)
(0.00043388854 0.00094890873 -0.00051666555)
(0.005833511 -0.01091069 0.0041398889)
(0.00066197216 -0.015570376 0.004832128)
(-0.004271841 -0.011107946 0.0011436726)
(0.0015985814 0.010105496 -8.8907615e-05)
(0.0038329698 0.0073134869 -0.0016935764)
(0.0055440321 0.010008083 -0.001393783)
(0.00030422927 0.0099191832 0.0013683359)
(0.0014714934 -0.0012355578 -0.0012179926)
(0.00062026932 -0.00041561799 -0.00057557247)
(-0.0029752788 0.011634573 -0.0014055833)
(-0.0011923165 0.009492736 2.4296656e-06)
(0.0036076855 0.011328754 -0.00020653096)