/*--------------------------------*- C++ -*----------------------------------*\
| =========                 |                                                 |
| \\      /  F ield         | OpenFOAM: The Open Source CFD Toolbox           |
|  \\    /   O peration     | Version:  v2012                                 |
|   \\  /    A nd           | Website:  www.openfoam.com                      |
|    \\/     M anipulation  |                                                 |
\*---------------------------------------------------------------------------*/
FoamFile
{
    version     2.0;
    format      ascii;
    class       volVectorField;
    location    "750/topAir";
    object      U;
}
// * * * * * * * * * * * * * * * * * * * * * * * * * * * * * * * * * * * * * //

dimensions      [0 1 -1 0 0 0 0];


internalField   nonuniform List<vector> 
1200
(
(0.10473133 -0.0024869545 0.00087595227)
(0.11871402 -0.0025536696 0.001312789)
(0.1307212 -0.0023191829 0.0013871658)
(0.14010081 -0.0017439426 0.0012391453)
(0.14829955 -0.0008928673 0.0008819932)
(0.15597347 5.7608366e-05 0.00027519004)
(0.16339557 0.0009984544 -0.00061364603)
(0.17081561 0.0018727688 -0.0019543383)
(0.1784288 0.0027836211 -0.004017868)
(0.18654666 0.0039208748 -0.0071280501)
(0.19532159 0.0056178119 -0.011695954)
(0.2043999 0.0082606647 -0.018135052)
(0.21219324 0.012251574 -0.026692054)
(0.21708439 0.016931793 -0.037160128)
(0.21921241 0.022144037 -0.04869204)
(0.21927335 0.027151455 -0.060038627)
(0.21752421 0.031364615 -0.070019835)
(0.21416919 0.034516447 -0.07793626)
(0.20969797 0.03652583 -0.083620698)
(0.20489483 0.037409495 -0.087261656)
(0.20060159 0.037321059 -0.089199466)
(0.19742754 0.036526632 -0.089787852)
(0.1956239 0.03528481 -0.089326998)
(0.19514993 0.033790414 -0.088043931)
(0.19577649 0.032203207 -0.086070893)
(0.19705731 0.030742658 -0.083388743)
(0.19808622 0.029800851 -0.079748086)
(0.19702812 0.03017439 -0.07458239)
(0.19046893 0.033757478 -0.06692066)
(0.152691 0.046389555 -0.05480561)
(0.098687687 -0.0039331313 0.0008475312)
(0.098468666 -0.0047401498 0.0012770817)
(0.098928726 -0.0047755636 0.0014544729)
(0.099868928 -0.0042903519 0.001530887)
(0.10136572 -0.0034785635 0.0015328755)
(0.10344981 -0.0025952825 0.0014449949)
(0.10610074 -0.0018158938 0.0012410985)
(0.10950348 -0.0011683691 0.00085982227)
(0.11414985 -0.00033361802 0.00017602698)
(0.12054229 0.0010779998 -0.00099224671)
(0.12967255 0.0039195059 -0.0029591683)
(0.14175862 0.009209283 -0.0061147226)
(0.15649353 0.017776043 -0.010978124)
(0.1719849 0.028463297 -0.017617966)
(0.18617823 0.040664111 -0.025541953)
(0.19740794 0.053010419 -0.033758123)
(0.20463219 0.064433712 -0.041322009)
(0.20761896 0.074096491 -0.047739709)
(0.20703215 0.081312024 -0.052873508)
(0.2042129 0.085691382 -0.056741051)
(0.2006581 0.087420215 -0.059398165)
(0.19744498 0.087151357 -0.06088466)
(0.19506878 0.085574589 -0.061287123)
(0.19364253 0.083182114 -0.060738766)
(0.19310412 0.080272489 -0.059335819)
(0.19322501 0.077209121 -0.056995943)
(0.19341055 0.074697728 -0.05332715)
(0.19245159 0.074218858 -0.047450643)
(0.18906714 0.07895439 -0.037402627)
(0.164702 0.094066914 -0.01848255)
(0.098814152 -0.0029324908 0.00087476482)
(0.097951905 -0.0042406767 0.0013255858)
(0.096306133 -0.0046467899 0.0015246279)
(0.094253502 -0.0047336492 0.0016424628)
(0.092260955 -0.0046933816 0.0017316369)
(0.090508174 -0.0046157655 0.0018047966)
(0.088977125 -0.0046088322 0.0018813692)
(0.087603264 -0.0046923666 0.0020068783)
(0.086452002 -0.0046996447 0.0022487595)
(0.085857249 -0.0045361688 0.0026319942)
(0.08634061 -0.0039384527 0.0030964142)
(0.090157421 -0.0012845759 0.0032028784)
(0.10062561 0.0064863864 0.0022732376)
(0.116581 0.020122222 0.00018173714)
(0.13530785 0.037539715 -0.002904963)
(0.15337498 0.055933689 -0.0060922664)
(0.16799908 0.072508239 -0.0087701679)
(0.17799474 0.086183198 -0.010792392)
(0.18364748 0.096495689 -0.012397435)
(0.18622967 0.10329799 -0.013896104)
(0.18724318 0.1067423 -0.015427109)
(0.1876615 0.1072833 -0.016769519)
(0.18778571 0.10557412 -0.017591719)
(0.18758772 0.10222855 -0.017791028)
(0.18704285 0.097712594 -0.017360914)
(0.18617549 0.092432335 -0.016187578)
(0.18486262 0.087068776 -0.013966652)
(0.18278285 0.083137054 -0.010110155)
(0.18032735 0.084099799 -0.0036401544)
(0.16701384 0.096064703 0.0085131129)
(0.096858412 -0.0015599562 0.00084022542)
(0.094632637 -0.0023039917 0.0012528919)
(0.090908277 -0.0025293569 0.0014132497)
(0.086355983 -0.0025588858 0.001490432)
(0.081797047 -0.0024954398 0.0015409183)
(0.077475106 -0.002371138 0.0015816325)
(0.073349856 -0.0022268595 0.0016379923)
(0.069320005 -0.0020985748 0.0017577086)
(0.06525354 -0.0020293926 0.0020180884)
(0.060932814 -0.0022065841 0.0025327863)
(0.055923968 -0.0031621972 0.003544627)
(0.049817786 -0.0048528382 0.005511187)
(0.041951779 -0.005234773 0.0091090356)
(0.038345381 0.0019523049 0.014018213)
(0.045755732 0.017810945 0.019620574)
(0.06120228 0.035255349 0.025553234)
(0.077872108 0.050020039 0.031256841)
(0.09275581 0.06190407 0.036485514)
(0.10539715 0.071018644 0.040869578)
(0.11632492 0.077375608 0.043958327)
(0.12605134 0.080957205 0.045835085)
(0.13468898 0.081853189 0.046717444)
(0.14202376 0.080465773 0.046796119)
(0.14773935 0.077334972 0.046287578)
(0.15166384 0.073003961 0.045437405)
(0.15389087 0.067913084 0.044522177)
(0.15482338 0.06264756 0.043817467)
(0.15546795 0.058365661 0.043291632)
(0.15962551 0.057698172 0.042365535)
(0.1814962 0.06621904 0.041411711)
(0.10599335 -0.002488205 0.00099843815)
(0.12082958 -0.0025656479 0.0013851216)
(0.13408553 -0.0024225552 0.0013680077)
(0.14479917 -0.002035446 0.0011162003)
(0.15413846 -0.0014748425 0.00064800728)
(0.1626929 -0.00092513118 -8.0191401e-05)
(0.17047325 -0.00053913905 -0.0011327585)
(0.17739225 -0.00038575969 -0.0026787639)
(0.18342721 -0.00052837392 -0.0049749884)
(0.18855319 -0.0010502566 -0.0083148556)
(0.19270274 -0.0020807455 -0.013043079)
(0.19577783 -0.0037599799 -0.019423894)
(0.1971528 -0.0062226468 -0.027420305)
(0.19652881 -0.010161316 -0.036302599)
(0.1956663 -0.014738666 -0.044850098)
(0.19594184 -0.019026051 -0.051964027)
(0.19713805 -0.022018539 -0.057396925)
(0.19824136 -0.023371416 -0.061476055)
(0.1984811 -0.023522147 -0.064523653)
(0.19776751 -0.023226206 -0.066675793)
(0.19655914 -0.022993572 -0.068006145)
(0.1954451 -0.022900953 -0.068578969)
(0.19482225 -0.022884695 -0.068449989)
(0.19485944 -0.022915062 -0.067658591)
(0.19564637 -0.022983495 -0.066195893)
(0.19728205 -0.022955798 -0.063953733)
(0.1997802 -0.022415962 -0.060612247)
(0.20293693 -0.020278674 -0.055558957)
(0.20623176 -0.013174565 -0.047952302)
(0.20157258 0.0089020889 -0.037812484)
(0.099976433 -0.0039447069 0.001054733)
(0.10069617 -0.0047879285 0.0015950332)
(0.10253562 -0.0049629187 0.0017831463)
(0.10502554 -0.0047366075 0.0018133258)
(0.10797908 -0.0043054334 0.0017268054)
(0.11133508 -0.0039248462 0.001500086)
(0.11499971 -0.0037984496 0.0010875455)
(0.11889641 -0.0040371375 0.00041352448)
(0.12300436 -0.004763119 -0.00064539983)
(0.12729734 -0.0061666237 -0.0022421511)
(0.13179965 -0.0084897645 -0.0045366776)
(0.13659869 -0.012000586 -0.0077204742)
(0.14184534 -0.016997737 -0.011845147)
(0.14749879 -0.024120444 -0.01631494)
(0.15353713 -0.031840724 -0.020052209)
(0.1596992 -0.037951633 -0.022234231)
(0.16535358 -0.040463361 -0.023127565)
(0.16951397 -0.039163581 -0.023871225)
(0.1716361 -0.035462021 -0.025209388)
(0.17198776 -0.031274799 -0.027185599)
(0.17144298 -0.027849419 -0.029405416)
(0.17078941 -0.025312582 -0.031429871)
(0.17027587 -0.023426704 -0.032855735)
(0.16988328 -0.022154487 -0.03331728)
(0.16977129 -0.021715459 -0.032440622)
(0.17050459 -0.022233741 -0.029864249)
(0.17314284 -0.023576972 -0.025082413)
(0.17995061 -0.025114667 -0.017241125)
(0.19677859 -0.025288882 -0.0049453308)
(0.25581884 -0.018636879 0.010283492)
(0.10011386 -0.0029605835 0.0010754875)
(0.10020666 -0.0042935606 0.0016433396)
(0.10000725 -0.0047429617 0.0018798529)
(0.099659336 -0.0049070486 0.0019881504)
(0.099378503 -0.0049819705 0.0020278832)
(0.099281427 -0.0050558478 0.0019996791)
(0.099382519 -0.0052178035 0.0019016963)
(0.099661253 -0.0055664057 0.0017486595)
(0.1000997 -0.0062449109 0.0015634711)
(0.10075021 -0.0075063365 0.0013208465)
(0.10173165 -0.0096876935 0.0008658688)
(0.10321847 -0.013270967 -2.6016373e-05)
(0.10541663 -0.018962537 -0.0012646323)
(0.10838819 -0.027238493 -0.0020504147)
(0.1121498 -0.036331648 -0.00094819833)
(0.11638979 -0.043027529 0.0039532765)
(0.12202805 -0.043782191 0.012494665)
(0.12793715 -0.039427655 0.021022383)
(0.13275461 -0.032839301 0.027446003)
(0.13589062 -0.027169648 0.031006517)
(0.13753758 -0.023227563 0.032873777)
(0.13876032 -0.020237615 0.034890445)
(0.14068274 -0.01835613 0.037191097)
(0.14311478 -0.01753713 0.039721019)
(0.14515427 -0.018289737 0.041585926)
(0.14623563 -0.020405779 0.042828182)
(0.14699467 -0.023494858 0.043771151)
(0.14870405 -0.027877795 0.044729397)
(0.1558908 -0.033976577 0.047487462)
(0.18594069 -0.042290291 0.047472155)
(0.098101985 -0.0015868753 0.0010506698)
(0.096773203 -0.0023602519 0.0016000117)
(0.094423728 -0.002618588 0.0018226784)
(0.091497039 -0.0026939106 0.0019138358)
(0.088570398 -0.0026922929 0.001932862)
(0.085836221 -0.0026481902 0.0018843706)
(0.083294244 -0.0026053857 0.0017729972)
(0.080910805 -0.002621521 0.0016165437)
(0.078635768 -0.0027809849 0.0014504244)
(0.076438645 -0.0032285041 0.0013268577)
(0.074240148 -0.0042399812 0.001311124)
(0.071817075 -0.0063017135 0.0015178963)
(0.068783689 -0.010086016 0.0019140862)
(0.064907658 -0.015718287 0.0025285811)
(0.060422724 -0.020572527 0.0057876187)
(0.057288616 -0.01945269 0.01784993)
(0.059960566 -0.010254309 0.042803716)
(0.063868721 0.003073102 0.066390732)
(0.068286905 0.016360525 0.084363352)
(0.073935555 0.026985948 0.096877136)
(0.081457498 0.033944395 0.10458361)
(0.089931517 0.036587484 0.10795545)
(0.097534007 0.03612487 0.10879007)
(0.1037437 0.033519549 0.10772446)
(0.10828094 0.02969151 0.10501575)
(0.1115874 0.024517175 0.099917365)
(0.11378666 0.018370191 0.092591139)
(0.11515647 0.011355578 0.083563843)
(0.12150093 0.0037266448 0.074221499)
(0.15058048 -0.0032902352 0.053743424)
(0.10586607 -0.0025089947 0.00034309038)
(0.12049928 -0.0025849402 0.00055381714)
(0.13365988 -0.0024157435 0.00062387172)
(0.14438712 -0.0019811417 0.00059609815)
(0.15378362 -0.0013630201 0.00049534693)
(0.16234606 -0.0007536109 0.00032200334)
(0.17010652 -0.00026171106 3.9907051e-05)
(0.1770469 7.5027964e-05 -0.00036708047)
(0.18317294 0.0002300794 -0.00091270249)
(0.18846885 0.00015851164 -0.0016167817)
(0.19287679 -0.00022266305 -0.0024894637)
(0.19629551 -0.0010576197 -0.0034839773)
(0.19803581 -0.0025816686 -0.0044026966)
(0.19772185 -0.0056640182 -0.0048597983)
(0.19705735 -0.0093594779 -0.0044758054)
(0.19681923 -0.012939113 -0.0035686032)
(0.19613234 -0.016318724 -0.003114928)
(0.1943857 -0.019735371 -0.0038991614)
(0.19175691 -0.023166317 -0.0059841157)
(0.18869561 -0.026550867 -0.0088981763)
(0.18563876 -0.029862707 -0.01202371)
(0.18294838 -0.032985061 -0.014824386)
(0.18079034 -0.035716407 -0.016957894)
(0.17912424 -0.037894468 -0.01829459)
(0.17788919 -0.039499023 -0.018764824)
(0.17719554 -0.040731772 -0.018231168)
(0.1776128 -0.0418378 -0.016646614)
(0.1805318 -0.042389089 -0.015011186)
(0.18753791 -0.038745558 -0.016660923)
(0.19859009 -0.022615628 -0.023009332)
(0.099853396 -0.0039579786 0.00034219848)
(0.10033888 -0.0047895415 0.00057494068)
(0.10204624 -0.0049229017 0.00066638625)
(0.10451578 -0.0046286323 0.0006516924)
(0.10747739 -0.004113686 0.00054348574)
(0.11080848 -0.0036360399 0.0003238816)
(0.11439178 -0.0033380376 -4.3026441e-05)
(0.11813051 -0.0032864184 -0.00059764652)
(0.12197291 -0.0035608375 -0.0013911364)
(0.125909 -0.0042830725 -0.0025049463)
(0.12997709 -0.0056989433 -0.0040072462)
(0.13431557 -0.0082212279 -0.0059009152)
(0.13921153 -0.01246784 -0.0079880221)
(0.14464139 -0.019164754 -0.0097416873)
(0.15011361 -0.025725035 -0.010966577)
(0.15452576 -0.029977727 -0.012752518)
(0.15652859 -0.032437083 -0.016459402)
(0.15614746 -0.0344643 -0.021972904)
(0.15437448 -0.036149423 -0.02837938)
(0.15185759 -0.037592889 -0.034686829)
(0.14889306 -0.039103507 -0.040023796)
(0.14566632 -0.040779589 -0.043807321)
(0.14221263 -0.042434803 -0.04578063)
(0.13834816 -0.043911391 -0.045956262)
(0.13403984 -0.045343234 -0.044210614)
(0.12952151 -0.047404844 -0.040164838)
(0.12640549 -0.050888626 -0.033649069)
(0.1294729 -0.055508929 -0.027602773)
(0.14566754 -0.054556795 -0.033689901)
(0.19562687 -0.037806529 -0.055083253)
(0.099995302 -0.0029559918 0.0003469195)
(0.099865098 -0.0042830255 0.00058632085)
(0.099540744 -0.0047127084 0.00069264451)
(0.09918226 -0.0048450456 0.00069705198)
(0.098933837 -0.0048756193 0.000608819)
(0.098862992 -0.0048845305 0.00040791935)
(0.098960494 -0.0049419318 5.7056659e-05)
(0.099183631 -0.0051285923 -0.00049458354)
(0.099518831 -0.0055625301 -0.0013157451)
(0.099939743 -0.0064346357 -0.0024844233)
(0.10041313 -0.0081284945 -0.0041377535)
(0.10099113 -0.011337907 -0.0064070124)
(0.10191367 -0.017185834 -0.0092381578)
(0.1031908 -0.025922206 -0.012054258)
(0.10396592 -0.033137234 -0.014343879)
(0.10316918 -0.034977401 -0.016999129)
(0.099416651 -0.033569597 -0.021310101)
(0.09490591 -0.032626134 -0.0248717)
(0.091078521 -0.032196648 -0.02882661)
(0.087368847 -0.03269706 -0.033727047)
(0.082924935 -0.034382565 -0.037894192)
(0.077742271 -0.036884117 -0.039664672)
(0.072412343 -0.039555375 -0.038578178)
(0.067027919 -0.042088841 -0.034982255)
(0.062471907 -0.044470539 -0.028347977)
(0.059111322 -0.047731749 -0.018316476)
(0.058661614 -0.0532018 -0.0063226259)
(0.065693867 -0.061725894 0.00027890085)
(0.077567796 -0.066056598 -0.022158133)
(0.11037774 -0.056981766 -0.067873324)
(0.097985898 -0.0015820756 0.00033808446)
(0.096437836 -0.0023505103 0.00056667184)
(0.093965375 -0.0026008852 0.00066372255)
(0.091027088 -0.002666178 0.00065974985)
(0.088130434 -0.0026517577 0.00056358766)
(0.085418365 -0.0025895428 0.00035410798)
(0.082864134 -0.0025187108 -8.535016e-06)
(0.080411752 -0.0024904973 -0.00058167737)
(0.078015833 -0.0025744016 -0.0014471154)
(0.075548703 -0.0028999498 -0.0027199528)
(0.072740152 -0.0037452284 -0.0046583998)
(0.0691171 -0.0057562552 -0.0077287692)
(0.063828695 -0.010456539 -0.012907049)
(0.055031487 -0.018772965 -0.021501857)
(0.040979745 -0.023551308 -0.031980907)
(0.025769792 -0.018492443 -0.037688692)
(0.015913891 -0.012161372 -0.030025936)
(0.025880596 -0.008928354 0.0064513674)
(0.029856119 -8.271007e-05 0.042033265)
(0.034663484 0.0090034542 0.064669612)
(0.041376923 0.015512173 0.07771228)
(0.048375074 0.018542612 0.084187143)
(0.054161169 0.01860361 0.086510183)
(0.057782112 0.016194598 0.085763573)
(0.058258654 0.011614955 0.082216208)
(0.055369371 0.0044254571 0.075538327)
(0.050112806 -0.0058076548 0.065039105)
(0.047170757 -0.020262453 0.048520911)
(0.034058966 -0.027197466 -0.0082223218)
(0.046204004 -0.008885282 -0.090541098)
(0.10583466 -0.0025103952 0.0001747767)
(0.12038496 -0.0025820066 0.0003054443)
(0.13345468 -0.0023988352 0.00036896355)
(0.14411023 -0.0019344104 0.00036722782)
(0.15346236 -0.0012600201 0.00030609141)
(0.16202455 -0.000554333 0.00018638115)
(0.16985028 8.4263211e-05 1.1587475e-05)
(0.17695099 0.0006367438 -0.00022045656)
(0.18339228 0.0011073489 -0.00051209118)
(0.1892671 0.0014884002 -0.00084902357)
(0.19470481 0.0017372377 -0.0011709769)
(0.1999198 0.0017436031 -0.0013025654)
(0.20465076 0.0013498501 -0.00081057293)
(0.20888604 0.00026945642 0.00097971882)
(0.2138649 0.00035235864 0.0042847834)
(0.21910471 0.0014965611 0.0084039972)
(0.22325765 0.002587609 0.012716429)
(0.22584103 0.0029653575 0.017036025)
(0.22728674 0.0025015774 0.0214024)
(0.22810904 0.0012279927 0.025898445)
(0.22859304 -0.0007025094 0.030655424)
(0.22874762 -0.0030527898 0.035776513)
(0.22834531 -0.0056374869 0.041176811)
(0.22719984 -0.0083646524 0.046459498)
(0.22551215 -0.010999665 0.050995038)
(0.22381387 -0.012804752 0.054105742)
(0.22233392 -0.012447982 0.055098365)
(0.21996445 -0.0085305063 0.053039765)
(0.211919 0.0013295455 0.044669926)
(0.15484644 0.029001264 0.023888297)
(0.099823107 -0.0039596297 0.00017884122)
(0.10020757 -0.0047855364 0.00032352409)
(0.10178168 -0.0048985596 0.00039608598)
(0.10412113 -0.0045607469 0.00039108549)
(0.1069548 -0.0039653056 0.00031016026)
(0.11014638 -0.0033517962 0.00014680716)
(0.11357043 -0.0028452971 -0.00011382842)
(0.11713646 -0.002484516 -0.00049753045)
(0.12080994 -0.0023090875 -0.0010344338)
(0.12463253 -0.0024301833 -0.0017464454)
(0.12878148 -0.0031162708 -0.0026068203)
(0.13369064 -0.0049057324 -0.0034439139)
(0.14009633 -0.0084685222 -0.0037615382)
(0.14820348 -0.012766598 -0.0027213017)
(0.15704382 -0.012849568 -0.00075898307)
(0.16440722 -0.0096133666 0.0005371471)
(0.16895457 -0.0066876674 0.00027013397)
(0.17114878 -0.0057387727 -0.001494684)
(0.17175752 -0.0069409981 -0.0044959513)
(0.17129284 -0.0095523146 -0.0083675174)
(0.17020416 -0.012782959 -0.012320066)
(0.1686825 -0.015933982 -0.015371057)
(0.16655371 -0.018643488 -0.016833194)
(0.16342211 -0.021196359 -0.016613869)
(0.15962092 -0.023946094 -0.015216427)
(0.15678822 -0.026037301 -0.014139694)
(0.15782353 -0.024536899 -0.016258757)
(0.16433753 -0.015035328 -0.023581795)
(0.1779675 0.00695007 -0.036317306)
(0.18397773 0.045041946 -0.052813157)
(0.099966168 -0.002953572 0.00017977912)
(0.099737901 -0.0042779806 0.00032496361)
(0.099277376 -0.0046991624 0.00040061972)
(0.0987753 -0.0048138038 0.00039771181)
(0.098372687 -0.0048135529 0.00031281673)
(0.098118129 -0.0047714672 0.00013319757)
(0.097985006 -0.0047464222 -0.00016556104)
(0.097919095 -0.0048053374 -0.00062248564)
(0.097863289 -0.0050602978 -0.0012928652)
(0.0977723 -0.0057447827 -0.0022624591)
(0.097673121 -0.0073735337 -0.003597436)
(0.097882947 -0.011023072 -0.0052674308)
(0.099181046 -0.018417114 -0.006836637)
(0.10126078 -0.026585732 -0.0069547715)
(0.10393431 -0.026413403 -0.0050249465)
(0.1053006 -0.020668776 -0.0029907329)
(0.10073567 -0.015398051 -0.0039530114)
(0.093484455 -0.012357082 -0.0080622025)
(0.085111643 -0.013266328 -0.014346663)
(0.077383032 -0.016965947 -0.020790487)
(0.07018049 -0.0217672 -0.025370745)
(0.062908456 -0.026351106 -0.026124433)
(0.056204547 -0.030026962 -0.022580775)
(0.049768368 -0.033228171 -0.01638697)
(0.044843491 -0.036354087 -0.010312409)
(0.043291357 -0.039045582 -0.010178517)
(0.050663463 -0.037394799 -0.022674055)
(0.06987053 -0.025824737 -0.041917951)
(0.093867066 -0.0041308292 -0.06271294)
(0.10677769 0.030614731 -0.085728722)
(0.097957269 -0.0015838443 0.00017494092)
(0.096313563 -0.0023545756 0.00031352365)
(0.093707479 -0.0026049549 0.00038228369)
(0.090625621 -0.0026666564 0.00037167076)
(0.087570409 -0.0026438129 0.00027689585)
(0.084660685 -0.0025664494 8.2705912e-05)
(0.081842173 -0.0024716063 -0.0002424409)
(0.079021254 -0.0024104484 -0.0007533925)
(0.076053022 -0.0024637375 -0.0015444112)
(0.072668374 -0.002801113 -0.0027961735)
(0.068350271 -0.003846799 -0.0048107807)
(0.062023078 -0.0067713054 -0.0082150933)
(0.052111476 -0.014556674 -0.014480322)
(0.033521055 -0.023417936 -0.024765669)
(0.0059399495 -0.015500595 -0.032434522)
(-0.019376113 0.0010559832 -0.029251603)
(-0.033569344 0.0034971905 -0.022717648)
(-0.039031714 0.0023389939 -0.011368118)
(-0.026457761 -0.00077244056 0.010607858)
(-0.017974928 -2.6643188e-05 0.029254756)
(-0.0081047894 0.0010436726 0.040693733)
(-0.00012392991 0.00070278057 0.046862467)
(0.0047107615 -0.0013631727 0.049067909)
(0.0059236649 -0.0050958856 0.048748467)
(0.0030616909 -0.011277547 0.045911141)
(-0.0084720455 -0.021546347 0.029909418)
(-0.02053552 -0.024465777 -0.0080243545)
(-0.023640661 -0.0061692892 -0.05262307)
(-0.00024477238 0.021628451 -0.082833099)
(0.038542392 0.049062345 -0.10653545)
(0.10581552 -0.0025141761 3.3350118e-05)
(0.1203183 -0.0025894618 4.898261e-05)
(0.13333026 -0.0024090683 3.9467918e-05)
(0.14393025 -0.0019457699 4.6463006e-06)
(0.15323138 -0.001269893 -5.4001819e-05)
(0.16174595 -0.00056026207 -0.00013712368)
(0.16952031 8.2054337e-05 -0.00024751258)
(0.17655433 0.00063282064 -0.00039172531)
(0.18291226 0.0010876184 -0.00057925531)
(0.18870319 0.0014196054 -0.00081205161)
(0.19411219 0.0015487693 -0.0010665698)
(0.19952461 0.0013139632 -0.0012464942)
(0.20497381 0.00066704297 -0.00107061)
(0.21065059 0.00012330208 -0.00013320279)
(0.21697769 0.00095492981 0.0013017548)
(0.22305236 0.0022421627 0.0027088621)
(0.22803835 0.0034921734 0.0039441247)
(0.2321736 0.0049564128 0.0052999191)
(0.23628968 0.0067734 0.0071193119)
(0.24106818 0.0087979611 0.0096470922)
(0.24681323 0.011062647 0.013076181)
(0.25311325 0.013761152 0.017565309)
(0.25888771 0.016907005 0.023136097)
(0.26290242 0.020370876 0.029497412)
(0.26419343 0.023977236 0.03594691)
(0.26192835 0.02780703 0.041391392)
(0.25464577 0.032433749 0.044518309)
(0.23942043 0.038922095 0.043817757)
(0.21261389 0.049291219 0.037040375)
(0.12136582 0.071694744 0.022363701)
(0.09980431 -0.0039639497 3.5956222e-05)
(0.10013271 -0.0047939868 5.5912802e-05)
(0.10162984 -0.0049091539 4.7661988e-05)
(0.10388874 -0.0045704097 8.0730085e-06)
(0.10664017 -0.0039700895 -6.3089219e-05)
(0.10974276 -0.003348066 -0.00016859108)
(0.11306003 -0.002834432 -0.00031476908)
(0.11648837 -0.0024773631 -0.00051324091)
(0.11999794 -0.0023383191 -0.00077553999)
(0.12366907 -0.0025830346 -0.00110655)
(0.12779828 -0.0035994563 -0.0014707018)
(0.13310357 -0.0061075391 -0.0017194343)
(0.1405955 -0.010401653 -0.0014447752)
(0.15029417 -0.011548438 -1.2278949e-05)
(0.1598332 -0.0078752373 0.001344718)
(0.1669602 -0.0036115103 0.0016267465)
(0.17260257 -0.00066355433 0.0011386756)
(0.17805708 0.0010127458 0.00046000785)
(0.18382204 0.0017958327 -0.00021180047)
(0.19000812 0.0025279626 -0.0008853292)
(0.19741864 0.0043622136 -0.0014174159)
(0.20746077 0.0088534935 -0.0011981529)
(0.21831349 0.01656477 0.00017824688)
(0.22889501 0.026755887 0.0028367446)
(0.23808686 0.038204739 0.0063617557)
(0.24440392 0.050331053 0.0097734076)
(0.24520677 0.063715877 0.011712344)
(0.2364336 0.078768298 0.010652747)
(0.21599616 0.097510804 0.0045348724)
(0.14101564 0.12575883 -0.0099194138)
(0.099947172 -0.0029545003 3.5505475e-05)
(0.099662432 -0.0042809218 5.4692324e-05)
(0.099120723 -0.0047030802 4.5581488e-05)
(0.098527011 -0.0048170464 3.3122661e-06)
(0.098022697 -0.0048146967 -7.5083778e-05)
(0.097647106 -0.0047690064 -0.00019601099)
(0.097354099 -0.0047438146 -0.00037215055)
(0.097059687 -0.0048166159 -0.00062568881)
(0.096679417 -0.0051299834 -0.00099080319)
(0.096152335 -0.0060027569 -0.0015148815)
(0.095568268 -0.0081719544 -0.0022422728)
(0.0956593 -0.01323886 -0.0031473905)
(0.097145409 -0.023400991 -0.0038976441)
(0.099677199 -0.025514003 -0.0025515443)
(0.10483621 -0.018983054 -7.4004563e-05)
(0.10381358 -0.012434627 -0.0005056801)
(0.10046048 -0.0068689607 -0.0027605228)
(0.094188104 -0.0026058958 -0.0060003675)
(0.087396022 -0.0011489671 -0.01004799)
(0.079250766 -0.0028808765 -0.014937614)
(0.070267713 -0.0062626875 -0.019320169)
(0.062503604 -0.0084002764 -0.020838107)
(0.065630667 -0.0064148841 -0.0186106)
(0.080052777 0.00023283433 -0.015000534)
(0.10513632 0.012178596 -0.012689491)
(0.13149016 0.028363391 -0.011361977)
(0.15102462 0.046063966 -0.011096277)
(0.15999121 0.065892804 -0.01387612)
(0.15893485 0.091231418 -0.020927585)
(0.11648728 0.12656592 -0.032261418)
(0.097938273 -0.0015840049 3.430616e-05)
(0.096238139 -0.0023551274 5.1820967e-05)
(0.093549842 -0.0026054729 4.0599981e-05)
(0.090372366 -0.0026667393 -4.8993878e-06)
(0.087207798 -0.0026434001 -8.9002411e-05)
(0.084160603 -0.002565272 -0.00022053084)
(0.081144342 -0.0024722657 -0.00041861328)
(0.078011896 -0.0024225876 -0.00071854733)
(0.074533386 -0.0025183953 -0.0011887273)
(0.070272674 -0.0029961703 -0.0019602306)
(0.06432003 -0.0044976211 -0.0032974588)
(0.054608159 -0.0089812876 -0.0058049747)
(0.039179568 -0.021155448 -0.011078646)
(0.00054175571 -0.018301354 -0.020189249)
(-0.0369442 0.0027623471 -0.017710555)
(-0.056563662 0.0060758422 -0.01495955)
(-0.072315814 0.0064552721 -0.013310877)
(-0.079866929 0.0038760191 -0.0098143612)
(-0.08079957 -0.00083543246 -0.0039726776)
(-0.072294404 -0.0061584814 0.0040160218)
(-0.062698034 -0.010912762 0.01043258)
(-0.0540773 -0.015424839 0.014603877)
(-0.046930964 -0.019550708 0.016538417)
(-0.039411108 -0.021507178 0.016796452)
(-0.030158188 -0.018740531 0.015223718)
(-0.015083637 -0.005159228 0.0063675034)
(0.016006199 0.026083314 -0.0074445349)
(0.023416596 0.045400972 -0.020171542)
(0.036192118 0.072314215 -0.03654488)
(0.049838507 0.10749452 -0.051493134)
(0.10581369 -0.0025140349 -6.891747e-05)
(0.12031218 -0.0025898671 -0.00012979578)
(0.13331855 -0.0024101646 -0.00017427646)
(0.1439112 -0.0019477091 -0.00020237631)
(0.15320175 -0.0012730722 -0.00021691877)
(0.16169851 -0.00056577101 -0.00021981508)
(0.16944546 7.2224545e-05 -0.00021186393)
(0.17644001 0.00061521654 -0.00018993027)
(0.18274556 0.0010588528 -0.00015133592)
(0.18847654 0.0013671483 -9.9230746e-05)
(0.19383811 0.0014419252 -4.5082651e-05)
(0.19930939 0.0011111368 -3.1342139e-05)
(0.20514575 0.00045885603 -0.00018620978)
(0.21151372 0.00038209466 -0.00068343368)
(0.21819053 0.0013969156 -0.0014911001)
(0.22433453 0.0026410054 -0.0024009341)
(0.22917264 0.0039743597 -0.0033758682)
(0.23327625 0.0056788032 -0.0046625186)
(0.23727963 0.0077425789 -0.0065542477)
(0.24164935 0.010024254 -0.0093399948)
(0.24662288 0.012417667 -0.013316184)
(0.25192317 0.014974406 -0.018657428)
(0.25660669 0.01785612 -0.025319855)
(0.25948301 0.020818643 -0.03296333)
(0.25964713 0.023590689 -0.040857006)
(0.25649145 0.026243863 -0.047799965)
(0.24885036 0.029574726 -0.052196339)
(0.23401864 0.034970397 -0.052103909)
(0.20852291 0.044760955 -0.044928198)
(0.12131969 0.067315187 -0.028217086)
(0.099804052 -0.003963873 -6.4615069e-05)
(0.10013105 -0.0047947113 -0.00012395879)
(0.10162484 -0.0049110257 -0.00016511451)
(0.10387768 -0.0045738544 -0.00018586629)
(0.10661858 -0.0039760535 -0.00018714419)
(0.10970219 -0.0033590885 -0.00016789153)
(0.11299054 -0.0028549771 -0.00012459497)
(0.11638282 -0.0025158074 -4.9734148e-05)
(0.11984655 -0.0024124817 6.1571542e-05)
(0.12346903 -0.0027383106 0.00021666718)
(0.12759691 -0.0039402925 0.00040598821)
(0.13311052 -0.006794095 0.00057006966)
(0.14106236 -0.011156129 0.00055467747)
(0.15143278 -0.010260023 1.7452069e-05)
(0.1607686 -0.0059732306 -0.00051551166)
(0.1678186 -0.0019742972 -0.0005457898)
(0.17402743 0.0009049899 -0.00020278278)
(0.18011616 0.0029887175 0.00014612872)
(0.18611786 0.0045675686 0.00032969907)
(0.19271415 0.0060432132 0.00033566719)
(0.2005712 0.0083500114 8.3669842e-06)
(0.20998122 0.012856444 -0.00095485321)
(0.22013453 0.020240379 -0.0029118626)
(0.22963416 0.029750879 -0.0061196221)
(0.23744354 0.040090179 -0.010348481)
(0.2422537 0.050382297 -0.014484642)
(0.24255004 0.061878371 -0.016900228)
(0.23459179 0.075383884 -0.015463832)
(0.21612805 0.092908855 -0.0076193862)
(0.14873451 0.12055881 0.0093972007)
(0.099946892 -0.0029546741 -6.4063618e-05)
(0.099660755 -0.0042815452 -0.00012238097)
(0.09911557 -0.0047044987 -0.00016314645)
(0.098514898 -0.0048197702 -0.00018310414)
(0.09799704 -0.004819816 -0.00018150662)
(0.097595797 -0.0047794803 -0.00015522242)
(0.097261484 -0.0047647057 -9.7438809e-05)
(0.096904258 -0.0048578923 3.7484993e-06)
(0.096420406 -0.0052220958 0.00016504897)
(0.095727192 -0.0062218243 0.00041316667)
(0.094946987 -0.0087110734 0.00077826834)
(0.095137102 -0.014546164 0.0012855698)
(0.096493717 -0.025978136 0.0020395466)
(0.101203 -0.023220175 0.0019630899)
(0.1052589 -0.016241087 0.00091810591)
(0.10441222 -0.0099583459 0.0010447607)
(0.10048969 -0.0042987275 0.0021936382)
(0.094227179 0.00018115047 0.0040266554)
(0.087729556 0.0021135427 0.0066339762)
(0.079995342 0.00086765207 0.010055059)
(0.069907067 -0.0025647544 0.013265721)
(0.0603182 -0.004872299 0.014243967)
(0.061249129 -0.0027637963 0.012067494)
(0.074502112 0.0039914405 0.0084955694)
(0.098328258 0.01525874 0.0058997592)
(0.12453084 0.030162401 0.0049700761)
(0.14508782 0.045891647 0.0062229947)
(0.15601983 0.063683357 0.011688631)
(0.15818488 0.086948501 0.022357746)
(0.12735425 0.12076116 0.037380079)
(0.097937954 -0.0015841225 -6.2110507e-05)
(0.09623623 -0.0023554429 -0.00011759145)
(0.093543988 -0.0026061484 -0.00015516658)
(0.090358411 -0.0026679919 -0.00017133326)
(0.087176998 -0.0026456933 -0.00016470436)
(0.084097026 -0.0025701611 -0.00013129474)
(0.081026183 -0.002482467 -6.1566544e-05)
(0.077798456 -0.0024435547 6.0568638e-05)
(0.074131387 -0.0025686683 0.00026726613)
(0.069479636 -0.0031305461 0.00062187447)
(0.062700075 -0.0048947849 0.0012563274)
(0.051188682 -0.010293437 0.0025277191)
(0.032634984 -0.025011958 0.0058024893)
(-0.019005294 -0.0082113998 0.014816208)
(-0.043898065 0.0053961585 0.013505931)
(-0.063639482 0.007642066 0.010768473)
(-0.076679295 0.0070683169 0.0074762828)
(-0.083884623 0.0038716634 0.0027356676)
(-0.084810473 -0.00092734978 -0.0030246994)
(-0.078716608 -0.0058916158 -0.0088985642)
(-0.06964121 -0.01056959 -0.012582088)
(-0.061342314 -0.015068413 -0.014661142)
(-0.053922573 -0.019113057 -0.015390975)
(-0.045682272 -0.021218604 -0.015005228)
(-0.035281934 -0.018723086 -0.013252817)
(-0.021993926 -0.0068727675 -0.0059249331)
(0.0091169198 0.021135877 0.011148236)
(0.023620686 0.041621833 0.027373134)
(0.042010336 0.066143359 0.046347612)
(0.072254663 0.098373146 0.062935626)
(0.10582901 -0.0025099893 -0.00020586063)
(0.12036622 -0.0025831592 -0.00037606823)
(0.13341926 -0.002402057 -0.00048636725)
(0.14405408 -0.0019401939 -0.00053838223)
(0.15338001 -0.0012689091 -0.00053859605)
(0.16191047 -0.00056686837 -0.0004884136)
(0.16969864 6.6792407e-05 -0.00038763479)
(0.17674913 0.00061002837 -0.00024322073)
(0.1831174 0.0010589671 -5.1856371e-05)
(0.18890046 0.0014046885 0.0001748644)
(0.19424994 0.0015947587 0.00037212005)
(0.19942521 0.0014979679 0.00035060067)