/*--------------------------------*- C++ -*----------------------------------*\
| =========                 |                                                 |
| \\      /  F ield         | OpenFOAM: The Open Source CFD Toolbox           |
|  \\    /   O peration     | Version:  v2012                                 |
|   \\  /    A nd           | Website:  www.openfoam.com                      |
|    \\/     M anipulation  |                                                 |
\*---------------------------------------------------------------------------*/
FoamFile
{
    version     2.0;
    format      ascii;
    class       volScalarField;
    location    "310/leftSolid";
    object      T;
}
// * * * * * * * * * * * * * * * * * * * * * * * * * * * * * * * * * * * * * //

dimensions      [0 0 0 1 0 0 0];


internalField   nonuniform List<scalar> 
130
(
845.16482
845.08924
844.9589
844.77721
844.59756
844.41791
844.22929
844.02753
843.81228
843.59223
843.38127
843.2021
843.08765
845.10776
845.03936
844.91436
844.73689
844.53295
844.32846
844.1177
843.89522
843.65966
843.41086
843.16882
842.95556
842.82598
844.98189
844.92233
844.80209
844.62643
844.39836
844.14042
843.88626
843.6222
843.33793
843.0424
842.75065
842.49627
842.37398
844.78723
844.7257
844.60167
844.41305
844.16384
843.86495
843.55228
843.2368
842.89105
842.51065
842.15663
841.90411
841.75812
844.5225
844.45707
844.31936
844.11038
843.84276
843.52899
843.18334
842.81874
842.40424
841.96688
841.60276
841.32278
841.15618
844.20741
844.1366
843.9878
843.77409
843.51534
843.20504
842.85926
842.48082
842.05923
841.6394
841.29321
841.02485
840.84697
843.90531
843.82879
843.67727
843.48191
843.23565
842.94132
842.62684
842.29769
841.96267
841.63345
841.33344
841.10105
840.94904
843.66697
843.59247
843.4555
843.27042
843.03837
842.77324
842.49641
842.22411
841.9662
841.73771
841.5451
841.39147
841.29789
843.49922
843.43873
843.31435
843.12715
842.89649
842.65826
842.42027
842.20258
842.00832
841.8437
841.70232
841.58104
841.50599
843.40542
843.3486
843.23084
843.0485
842.82204
842.60275
842.39712
842.2153
842.05687
841.92112
841.79831
841.6874
841.61062
)
;

boundaryField
{
    minX
    {
        type            zeroGradient;
    }
    minZ
    {
        type            zeroGradient;
    }
    maxZ
    {
        type            zeroGradient;
    }
    leftSolid_to_bottomWater
    {
        type            compressible::turbulentTemperatureCoupledBaffleMixed;
        refValue        nonuniform List<scalar> 
130
(
990.53044
987.26087
985.51834
978.4368
977.41856
977.78582
978.23195
978.68236
978.64808
978.46343
977.63108
976.05816
972.74604
990.04419
988.03069
986.4773
982.68944
977.71981
977.69892
978.15671
978.7541
979.85014
978.5344
977.15021
972.1435
967.9103
988.22301
987.89795
986.69582
985.73091
981.97968
975.98303
976.50675
977.23428
976.28587
976.1382
973.40241
961.65535
964.87064
987.05926
986.29344
985.98331
984.85909
982.34886
976.10157
972.02325
973.36178
972.78541
964.85089
954.04651
954.37313
950.90302
984.53248
984.38834
983.32795
980.28104
976.51095
972.9308
968.9394
969.02489
961.86099
948.10763
944.94788
939.83925
934.42293
980.08164
979.69861
976.94698
973.01052
972.86621
970.38486
968.27825
965.68473
956.03403
943.42286
940.80881
937.85051
926.99352
976.18394
974.26669
970.44007
971.3445
970.71247
967.13376
965.8595
964.02787
962.48853
958.55431
950.81807
946.35455
937.54311
975.11777
972.43938
970.56139
970.75719
969.92432
967.43557
965.31291
963.969
962.38089
962.2047
962.82511
961.01585
959.54346
972.98282
972.81646
972.31325
969.944
966.45202
965.40582
962.92861
962.72669
962.45121
963.70304
964.29487
961.37312
959.53927
971.75445
971.42509
971.33455
969.0658
964.1015
963.52313
962.98889
963.66515
964.38357
965.67856
965.66557
962.53298
958.26999
)
;
        refGradient     uniform 0;
        valueFraction   nonuniform List<scalar> 
130
(
0.0075140686
0.0075140686
0.0075140686
0.0075140686
0.0075140686
0.0075140686
0.0075140686
0.0075140686
0.0075140686
0.0075140686
0.0075140686
0.0075140686
0.0075140686
0.0075140686
0.0075140686
0.0075140686
0.0075140686
0.0075140686
0.0075140686
0.0075140686
0.0075140686
0.0075140686
0.0075140686
0.0075140686
0.0075140686
0.0075140686
0.0075140686
0.0075140686
0.0075140686
0.0075140686
0.0075140686
0.0075140686
0.0075140686
0.0075140686
0.0075140686
0.0075140686
0.0075140686
0.0075140686
0.0075140686
0.0075140686
0.0075140686
0.0075140686
0.0075140686
0.0075140686
0.0075140686
0.0075140686
0.0075140686
0.0075140686
0.0075140686
0.0075140686
0.0075140686
0.0075140686
0.0075140686
0.0075140686
0.0075140686
0.0075140686
0.0075140686
0.0075140686
0.0075140686
0.0075140686
0.0075140686
0.0075140686
0.0075140686
0.0075140686
0.0075140686
0.0075140686
0.0075140686
0.0075140686
0.0075140686
0.0075140686
0.0075140686
0.0075140686
0.0075140686
0.0075140686
0.0075140686
0.0075140686
0.0075140686
0.0075140686
0.0075140686
0.0075140686
0.0075140686
0.0075140686
0.0075140686
0.0075140686
0.0075140686
0.0075140686
0.0075140686
0.0075140686
0.0075140686
0.0075140686
0.0075140686
0.0075140686
0.0075140686
0.0075140686
0.0075140686
0.0075140686
0.0075140686
0.0075140686
0.0075140686
0.0075140686
0.0075140686
0.0075140686
0.0075140686
0.0075140686
0.0075140686
0.0075140686
0.0075140686
0.0075140686
0.0075140686
0.0075140686
0.0075140686
0.0075140686
0.0075140686
0.0075140686
0.0075140686
0.0075140686
0.0075140686
0.0075140686
0.0075140686
0.0075140686
0.0075140686
0.0075140686
0.0075140686
0.0075140686
0.0075140686
0.0075140686
0.0075140686
0.0075140686
0.0075140686
0.0075140686
)
;
        value           nonuniform List<scalar> 
130
(
846.24904
846.14947
846.00703
845.77355
845.5877
845.4122
845.22836
845.03148
844.81753
844.5977
844.38202
844.19233
844.05379
846.18878
846.10575
845.97004
845.76547
845.52584
845.32279
845.11708
844.90073
844.67513
844.41828
844.16762
843.91831
843.75783
846.05022
845.98867
845.86031
845.67874
845.42424
845.12328
844.875
844.61839
844.32912
844.03466
843.7245
843.38379
843.28652
845.84837
845.78155
845.65611
845.46048
845.19431
844.85078
844.50988
844.20685
843.8594
843.42224
842.98974
842.74155
842.57056
845.56677
845.50074
845.3561
845.12581
844.83191
844.49362
844.1206
843.75942
843.29427
842.75688
842.37176
842.05549
841.84947
845.22074
845.14759
844.97925
844.73757
844.47966
844.15301
843.79397
843.39888
842.90797
842.39665
842.03343
841.74486
841.48683
844.89176
844.80144
844.62225
844.4351
844.18589
843.86684
843.54512
843.20466
842.86059
842.50431
842.14847
841.88435
841.66731
844.64723
844.55316
844.40309
844.22082
843.98419
843.70233
843.41161
843.13124
842.86333
842.63526
842.44882
842.28284
842.17891
844.46473
844.40344
844.2762
844.07255
843.81732
843.57301
843.31819
843.10061
842.90575
842.7518
842.61597
842.47372
842.38547
844.3624
844.30353
844.18596
843.98791
843.7258
843.5038
843.29571
843.12034
842.96851
842.84353
842.72157
842.58801
842.47979
)
;
        Tnbr            T;
        thicknessLayers List<scalar> 0();
        kappaLayers     List<scalar> 0();
        kappaMethod     solidThermo;
        kappa           none;
        alphaAni        none;
        alpha           none;
        field           T;
    }
    leftSolid_to_heater
    {
        type            compressible::turbulentTemperatureCoupledBaffleMixed;
        refValue        nonuniform List<scalar> 10(716.16828 707.32152 688.68469 658.1903 613.4912 613.35981 657.7442 688.17707 706.77006 715.56955);
        refGradient     uniform 0;
        valueFraction   nonuniform List<scalar> 10(2.08329e-05 2.08329e-05 2.08329e-05 2.08329e-05 2.08329e-05 2.08329e-05 2.08329e-05 2.08329e-05 2.08329e-05 2.08329e-05);
        value           nonuniform List<scalar> 10(843.07683 842.81506 842.36281 841.74656 841.14385 840.83472 840.93763 841.28716 841.4957 841.60052);
        Tnbr            T;
        thicknessLayers List<scalar> 1(0.001);
        kappaLayers     List<scalar> 1(0.0005);
        kappaMethod     solidThermo;
        kappa           none;
        alphaAni        none;
        alpha           none;
        field           T;
    }
    leftSolid_to_topAir
    {
        type            compressible::turbulentTemperatureCoupledBaffleMixed;
        refValue        nonuniform List<scalar> 
130
(
322.20609
342.77577
361.38993
378.56031
394.72215
410.14755
424.96392
439.11103
452.24567
464.34345
475.31018
484.96828
492.93517
322.1986
342.54385
360.72325
377.25036
392.52819
406.77517
420.06425
432.35423
443.4941
453.21439
461.14771
466.85528
469.80986
322.19131
342.57089
360.80144
377.39482
392.76042
407.12561
420.59648
433.21796
444.9542
455.67591
465.14668
472.9954
478.52379
322.18343
342.56918
360.82641
377.47169
392.92947
407.4553
421.20039
434.26085
446.68989
458.50209
469.63926
479.90634
488.64855
322.17223
342.55205
360.80876
377.45804
392.9253
407.46847
421.2406
434.3393
446.81946
458.67983
469.82725
479.95701
488.16364
322.15954
342.52726
360.77192
377.40882
392.86329
407.39259
421.15014
434.23542
446.70815
458.58199
469.7978
480.13296
488.81117
322.14806
342.50045
360.72528
377.33861
392.76411
407.25672
420.96708
433.9909
446.38707
458.18216
469.34098
479.71722
488.74616
322.13853
342.46877
360.65261
377.20023
392.5196
406.83685
420.25689
432.82553
444.51039
455.18955
464.64825
472.55305
478.26738
322.13418
342.42087
360.54667
377.02259
392.24956
406.44532
419.6833
431.92458
443.02124
452.71484
460.64875
466.40454
469.48955
322.13559
342.64082
361.19564
378.30896
394.41237
409.77778
424.53504
438.6314
451.72067
463.78124
474.72251
484.37301
492.36236
)
;
        refGradient     uniform 0;
        valueFraction   nonuniform List<scalar> 
130
(
0.00032132529
0.00032132529
0.00032132529
0.00032132529
0.00032132529
0.00032132529
0.00032132529
0.00032132529
0.00032132529
0.00032132529
0.00032132529
0.00032132529
0.00032132529
0.00032132529
0.00032132529
0.00032132529
0.00032132529
0.00032132529
0.00032132529
0.00032132529
0.00032132529
0.00032132529
0.00032132529
0.00032132529
0.00032132529
0.00032132529
0.00032132529
0.00032132529
0.00032132529
0.00032132529
0.00032132529
0.00032132529
0.00032132529
0.00032132529
0.00032132529
0.00032132529
0.00032132529
0.00032132529
0.00032132529
0.00032132529
0.00032132529
0.00032132529
0.00032132529
0.00032132529
0.00032132529
0.00032132529
0.00032132529
0.00032132529
0.00032132529
0.00032132529
0.00032132529
0.00032132529
0.00032132529
0.00032132529
0.00032132529
0.00032132529
0.00032132529
0.00032132529
0.00032132529
0.00032132529
0.00032132529
0.00032132529
0.00032132529
0.00032132529
0.00032132529
0.00032132529
0.00032132529
0.00032132529
0.00032132529
0.00032132529
0.00032132529
0.00032132529
0.00032132529
0.00032132529
0.00032132529
0.00032132529
0.00032132529
0.00032132529
0.00032132529
0.00032132529
0.00032132529
0.00032132529
0.00032132529
0.00032132529
0.00032132529
0.00032132529
0.00032132529
0.00032132529
0.00032132529
0.00032132529
0.00032132529
0.00032132529
0.00032132529
0.00032132529
0.00032132529
0.00032132529
0.00032132529
0.00032132529
0.00032132529
0.00032132529
0.00032132529
0.00032132529
0.00032132529
0.00032132529
0.00032132529
0.00032132529
0.00032132529
0.00032132529
0.00032132529
0.00032132529
0.00032132529
0.00032132529
0.00032132529
0.00032132529
0.00032132529
0.00032132529
0.00032132529
0.00032132529
0.00032132529
0.00032132529
0.00032132529
0.00032132529
0.00032132529
0.00032132529
0.00032132529
0.00032132529
0.00032132529
0.00032132529
0.00032132529
0.00032132529
)
;
        value           nonuniform List<scalar> 
130
(
844.98865
844.91971
844.79542
844.61935
844.44506
844.27047
844.08667
843.88951
843.67849
843.46235
843.25493
843.07887
842.96696
844.93163
844.86978
844.75068
844.57861
844.37977
844.17998
843.97358
843.75509
843.52315
843.27752
843.03806
842.82668
842.69802
844.80586
844.75286
844.63853
844.46828
844.24527
843.99213
843.74241
843.48249
843.20207
842.91005
842.62138
842.36963
842.2491
844.61134
844.55638
844.43826
844.25506
844.01093
843.71685
843.40878
843.09762
842.756
842.37952
842.02924
841.78007
841.63692
844.34682
844.28796
844.15616
843.95261
843.69008
843.38112
843.04003
842.67978
842.2695
841.83612
841.4757
841.19906
841.03517
844.03197
843.96774
843.82487
843.61657
843.36285
843.05728
842.716
842.34188
841.92447
841.5087
841.16624
840.90129
840.72634
843.7301
843.66018
843.51451
843.32449
843.08322
842.7936
842.48359
842.15872
841.82779
841.50249
841.20621
840.97729
840.82827
843.49186
843.42392
843.29282
843.11306
842.88595
842.62548
842.35303
842.08483
841.83075
841.6058
841.41635
841.26541
841.1737
843.32419
843.27025
843.15171
842.96981
842.74405
842.51045
842.27679
842.0631
841.87248
841.71105
841.5723
841.45298
841.37897
843.23042
843.18021
843.06843
842.89162
842.67036
842.45607
842.25525
842.07802
841.92386
841.79204
841.67282
841.5651
841.49093
)
;
        Tnbr            T;
        thicknessLayers List<scalar> 0();
        kappaLayers     List<scalar> 0();
        kappaMethod     solidThermo;
        kappa           none;
        alphaAni        none;
        alpha           none;
        field           T;
    }
}


// ************************************************************************* //
