/*--------------------------------*- C++ -*----------------------------------*\
| =========                 |                                                 |
| \\      /  F ield         | OpenFOAM: The Open Source CFD Toolbox           |
|  \\    /   O peration     | Version:  v2012                                 |
|   \\  /    A nd           | Website:  www.openfoam.com                      |
|    \\/     M anipulation  |                                                 |
\*---------------------------------------------------------------------------*/
FoamFile
{
    version     2.0;
    format      ascii;
    class       volScalarField;
    location    "330/heater";
    object      T;
}
// * * * * * * * * * * * * * * * * * * * * * * * * * * * * * * * * * * * * * //

dimensions      [0 0 0 1 0 0 0];


internalField   nonuniform List<scalar> 
80
(
720.88537
722.82634
726.64283
732.13478
711.83212
714.1301
718.70176
725.28315
692.79287
695.81873
701.91569
710.92251
661.77376
665.57358
673.80749
687.10343
345.10902
342.30313
342.32456
345.08269
420.60284
417.12374
417.32823
420.99583
484.68566
481.7447
482.45722
486.33592
538.75216
536.91597
538.81691
543.44819
583.05811
583.13054
587.64612
595.2163
616.4771
619.94306
629.09671
647.57519
345.08548
342.29411
342.30988
345.04106
420.51808
417.07712
417.27488
420.89781
484.57791
481.67458
482.37931
486.23607
538.63495
536.83122
538.73779
543.37345
582.94549
583.04251
587.57713
595.15916
616.33
619.80613
628.97277
647.45809
661.24424
665.0693
673.34659
686.67611
691.93339
694.98746
701.12014
710.15873
710.73208
713.09464
717.72842
724.36091
719.61957
721.63091
725.55701
731.1439
)
;

boundaryField
{
    minY
    {
        type            fixedValue;
        value           uniform 300;
    }
    minZ
    {
        type            zeroGradient;
    }
    maxZ
    {
        type            zeroGradient;
    }
    heater_to_topAir
    {
        type            compressible::turbulentTemperatureCoupledBaffleMixed;
        refValue        nonuniform List<scalar> 
40
(
497.91373
497.16077
494.19152
489.46203
467.65634
459.74705
450.3996
441.36265
478.10445
470.94038
461.35236
451.1007
491.52223
489.26439
487.88332
488.4111
488.57023
485.65449
485.47289
488.19273
488.62594
485.16268
484.10961
486.01743
490.81492
487.81186
484.97856
483.81381
477.24572
469.78503
459.46775
448.31262
466.98431
459.16942
449.88372
440.76243
497.30734
496.54792
493.55545
488.75635
)
;
        refGradient     uniform 0;
        valueFraction   nonuniform List<scalar> 
40
(
0.00032132529
0.00032132529
0.00032132529
0.00032132529
0.00032132529
0.00032132529
0.00032132529
0.00032132529
0.00032132529
0.00032132529
0.00032132529
0.00032132529
0.00032132529
0.00032132529
0.00032132529
0.00032132529
0.00032132529
0.00032132529
0.00032132529
0.00032132529
0.00032132529
0.00032132529
0.00032132529
0.00032132529
0.00032132529
0.00032132529
0.00032132529
0.00032132529
0.00032132529
0.00032132529
0.00032132529
0.00032132529
0.00032132529
0.00032132529
0.00032132529
0.00032132529
0.00032132529
0.00032132529
0.00032132529
0.00032132529
)
;
        value           nonuniform List<scalar> 
40
(
720.81074
722.7508
726.56511
732.05393
711.75079
714.04545
718.61268
725.18911
692.72129
695.74384
701.83573
710.83634
661.71682
665.51465
673.7454
687.03714
616.43417
619.89804
629.04863
647.52193
616.28716
619.76102
628.92434
647.40425
661.18746
665.01021
673.28391
686.60874
691.86217
694.9128
701.04011
710.07217
710.65133
713.01059
717.63982
724.26717
719.5456
721.556
725.47985
731.06336
)
;
        Tnbr            T;
        thicknessLayers List<scalar> 0();
        kappaLayers     List<scalar> 0();
        kappaMethod     solidThermo;
        kappa           none;
        alphaAni        none;
        alpha           none;
        field           T;
    }
    heater_to_rightSolid
    {
        type            compressible::turbulentTemperatureCoupledBaffleMixed;
        refValue        nonuniform List<scalar> 10(738.95329 733.39189 722.14255 705.23122 685.27871 685.14948 704.80545 721.40978 732.51507 738.0162);
        refGradient     uniform 0;
        valueFraction   nonuniform List<scalar> 10(0.49999997 0.49999997 0.49999997 0.49999997 0.49999997 0.49999997 0.49999997 0.49999997 0.49999997 0.49999997);
        value           nonuniform List<scalar> 10(735.5426 729.33611 716.53118 696.1661 666.42593 666.3028 695.73968 715.78304 728.43669 734.57872);
        Tnbr            T;
        thicknessLayers List<scalar> 0();
        kappaLayers     List<scalar> 0();
        kappaMethod     solidThermo;
        kappa           none;
        alphaAni        none;
        alpha           none;
        field           T;
    }
    heater_to_leftSolid
    {
        type            compressible::turbulentTemperatureCoupledBaffleMixed;
        refValue        nonuniform List<scalar> 10(854.12694 853.84438 853.3015 852.4794 851.79567 851.37884 851.27507 851.45766 851.65367 851.74761);
        refGradient     uniform 0;
        valueFraction   nonuniform List<scalar> 10(2.0832898e-05 2.0832898e-05 2.0832898e-05 2.0832898e-05 2.0832898e-05 2.0832898e-05 2.0832898e-05 2.0832898e-05 2.0832898e-05 2.0832898e-05);
        value           nonuniform List<scalar> 10(720.88517 711.8322 692.79362 661.7755 616.48017 616.33309 661.24618 691.93448 710.73259 719.61979);
        Tnbr            T;
        thicknessLayers List<scalar> 1(0.001);
        kappaLayers     List<scalar> 1(0.0005);
        kappaMethod     solidThermo;
        kappa           none;
        alphaAni        none;
        alpha           none;
        field           T;
    }
    heater_to_bottomWater
    {
        type            compressible::turbulentTemperatureCoupledBaffleMixed;
        refValue        nonuniform List<scalar> 
92
(
972.65351
966.94779
958.05997
948.89601
968.37674
958.77306
955.85898
951.48723
959.18334
957.53692
954.00566
951.58861
947.04312
940.94233
940.29124
941.14655
951.67085
941.53226
941.17409
943.13384
949.42381
942.19274
945.4784
945.19051
948.18303
942.02674
946.13241
942.83094
944.44026
944.44026
936.42417
936.42417
937.77281
937.77281
937.06184
937.06184
946.75317
924.90827
951.27593
929.58614
948.81937
932.45624
945.67696
935.63361
939.28486
937.47008
944.21094
949.2667
944.5859
942.00563
919.91415
939.28743
944.91373
945.7403
940.46365
937.76109
921.18262
935.75144
942.82153
942.45501
938.71681
934.22776
928.81201
933.29623
940.52337
938.78858
933.67987
933.71344
934.84861
933.97586
936.49262
936.24855
930.4137
935.37643
937.30456
937.25609
936.24855
930.4137
935.37643
937.25609
946.46324
945.82052
942.88389
939.55182
951.36617
949.49044
948.36213
944.40822
951.04481
948.70684
947.5293
945.65566
)
;
        refGradient     uniform 0;
        valueFraction   nonuniform List<scalar> 
92
(
0.0075140686
0.0075140686
0.0075140686
0.0075140686
0.0075140686
0.0075140686
0.0075140686
0.0075140686
0.0075140686
0.0075140686
0.0075140686
0.0075140686
0.0075140686
0.0075140686
0.0075140686
0.0075140686
0.0075140686
0.0075140686
0.0075140686
0.0075140686
0.0075140686
0.0075140686
0.0075140686
0.0075140686
0.0075140686
0.0075140686
0.0075140686
0.0075140686
0.0075140686
0.0075140686
0.0075140686
0.0075140686
0.0075140686
0.0075140686
0.0075140686
0.0075140686
0.0075140679
0.0075140679
0.0075140679
0.0075140679
0.0075140679
0.0075140679
0.0075140679
0.0075140679
0.0075140679
0.0075140679
0.0075140679
0.0075140686
0.0075140686
0.0075140686
0.0075140679
0.0075140686
0.0075140679
0.0075140686
0.0075140686
0.0075140686
0.0075140679
0.0075140686
0.0075140679
0.0075140686
0.0075140686
0.0075140686
0.0075140679
0.0075140686
0.0075140679
0.0075140686
0.0075140686
0.0075140686
0.0075140679
0.0075140686
0.0075140679
0.0075140686
0.0075140686
0.0075140686
0.0075140679
0.0075140686
0.0075140686
0.0075140686
0.0075140686
0.0075140686
0.0075140686
0.0075140686
0.0075140686
0.0075140686
0.0075140686
0.0075140686
0.0075140686
0.0075140686
0.0075140686
0.0075140686
0.0075140686
0.0075140686
)
;
        value           nonuniform List<scalar> 
92
(
722.77422
724.65768
728.3787
733.76068
713.75696
715.96548
720.48093
726.98007
694.79197
697.78268
703.80727
712.72823
349.63186
346.80118
346.81756
349.56141
424.59279
421.06364
421.26391
424.9187
488.17685
485.20364
485.93551
489.78292
541.82745
539.95878
541.87628
546.44796
663.89552
585.77205
667.60651
585.78367
675.78861
590.27543
688.9792
597.78336
349.62968
349.4394
424.58982
424.81691
488.17231
489.68723
541.80861
546.39388
585.73331
597.78643
349.5872
349.62519
346.81961
346.81588
349.36058
349.50616
424.45785
424.46406
421.00934
421.18534
424.65651
424.76598
488.02024
488.01749
485.10794
485.77367
489.56076
489.59445
541.6535
541.64047
539.81194
541.70447
546.31388
546.30732
585.60054
585.5987
585.65113
590.189
597.72858
597.72822
663.30864
667.061
675.31336
688.55681
693.84373
696.86996
702.93441
711.88
712.53781
714.8685
719.4589
726.01177
721.356
723.33461
727.22233
732.75312
)
;
        Tnbr            T;
        thicknessLayers List<scalar> 0();
        kappaLayers     List<scalar> 0();
        kappaMethod     solidThermo;
        kappa           none;
        alphaAni        none;
        alpha           none;
        field           T;
    }
}


// ************************************************************************* //
