/*--------------------------------*- C++ -*----------------------------------*\
| =========                 |                                                 |
| \\      /  F ield         | OpenFOAM: The Open Source CFD Toolbox           |
|  \\    /   O peration     | Version:  v2012                                 |
|   \\  /    A nd           | Website:  www.openfoam.com                      |
|    \\/     M anipulation  |                                                 |
\*---------------------------------------------------------------------------*/
FoamFile
{
    version     2.0;
    format      ascii;
    class       volScalarField;
    location    "440/bottomWater";
    object      p;
}
// * * * * * * * * * * * * * * * * * * * * * * * * * * * * * * * * * * * * * //

dimensions      [1 -1 -2 0 0 0 0];


internalField   nonuniform List<scalar> 
1460
(
353.47565
353.4743
353.47339
353.47566
353.48858
353.47606
353.46751
353.45815
353.46134
353.46661
353.46745
353.4631
353.46063
353.46142
353.46486
353.47484
353.47967
353.48186
353.46879
353.47462
353.47728
353.48569
353.48805
353.48061
353.48635
353.48831
353.48189
353.50021
353.49501
353.4948
274.39895
274.38898
274.39493
274.42309
274.48284
274.4834
274.45259
274.41636
274.39845
274.40489
274.40354
274.39736
274.42289
274.41748
274.39988
274.44716
274.46685
274.44443
274.41455
274.42059
274.44091
274.47083
274.43524
274.40481
274.38799
274.40612
274.42455
274.44582
274.40299
274.37912
196.34289
196.31174
196.28159
196.26321
196.24983
196.274
196.24615
196.27017
196.29181
196.32795
196.32176
196.29909
196.27661
196.3039
196.26589
196.25976
196.25238
196.26767
196.33264
196.31596
196.27608
196.26182
196.24771
196.28045
196.27754
196.3058
196.27058
196.26232
196.25907
196.29168
117.68162
117.67341
117.67126
117.64455
117.67828
117.66521
117.64054
117.64263
117.67316
117.67968
117.68113
117.66768
117.64078
117.67315
117.67085
117.64505
117.66632
117.6677
117.69027
117.70715
117.68232
117.66216
117.66161
117.63925
117.67991
117.65855
117.64419
117.63564
117.59842
117.67219
39.263685
39.250788
39.230147
39.248677
39.236734
39.223604
39.245685
39.265254
39.263882
39.273192
39.271067
39.259403
39.264283
39.251796
39.235941
39.255599
39.232062
39.225531
39.239452
39.239372
39.229764
39.241799
39.258755
39.262727
39.250142
39.24615
39.228443
39.23264
39.256873
39.261854
353.47251
353.4682
353.48143
353.47604
353.47991
353.4774
353.46672
353.46624
353.47044
353.47259
353.46579
353.46017
353.4752
353.48152
353.47271
353.47621
353.47405
353.46683
353.46732
353.46498
353.49424
353.4869
353.49079
353.49458
353.49335
353.49107
353.48075
353.50802
353.49726
353.5001
274.40076
274.40273
274.41456
274.45475
274.48055
274.45948
274.41599
274.38931
274.40047
274.39659
274.39828
274.40828
274.45669
274.45834
274.40812
274.39329
274.39924
274.4136
274.42325
274.41161
274.44961
274.42554
274.37172
274.37973
274.37693
274.3914
274.39667
274.42559
274.39594
274.37598
196.29562
196.26024
196.26997
196.2605
196.24771
196.2459
196.25822
196.28243
196.32589
196.30046
196.26637
196.24916
196.24045
196.22985
196.25256
196.28867
196.29976
196.3046
196.31354
196.30626
196.2382
196.26532
196.26896
196.31841
196.30909
196.2761
196.29936
196.25652
196.26736
196.30086
117.65163
117.61905
117.65539
117.66995
117.65579
117.64785
117.6225
117.66991
117.68561
117.68464
117.66195
117.64726
117.66369
117.67417
117.65796
117.69934
117.68119
117.60874
117.63164
117.65132
117.64619
117.63645
117.66139
117.67553
117.66915
117.62371
117.64586
117.64068
117.58933
117.67357
39.254869
39.242879
39.217589
39.225997
39.222536
39.240437
39.253661
39.263414
39.276724
39.272978
39.260304
39.253284
39.242782
39.252816
39.244533
39.242066
39.242917
39.257167
39.264253
39.227069
39.254035
39.258732
39.263267
39.275788
39.264734
39.258473
39.241476
39.242786
39.258851
39.264963
353.4747
353.47467
353.47561
353.47512
353.4743
353.47686
353.46778
353.46638
353.46826
353.46299
353.46168
353.46539
353.47015
353.47589
353.47866
353.47602
353.47762
353.48273
353.47055
353.49092
353.48377
353.48784
353.49044
353.48399
353.47777
353.49114
353.48384
353.50099
353.48748
353.49109
274.41195
274.44339
274.4741
274.48183
274.47941
274.46396
274.42958
274.39517
274.39996
274.40749
274.4312
274.46225
274.48257
274.47158
274.44187
274.41471
274.39014
274.38481
274.39877
274.42615
274.40303
274.38129
274.38149
274.38289
274.38747
274.43132
274.44691
274.44327
274.39435
274.3837
196.29061
196.2381
196.26729
196.26519
196.27749
196.25831
196.2559
196.27337
196.28551
196.24274
196.24545
196.24115
196.26333
196.26912
196.25733
196.27391
196.29594
196.30834
196.31199
196.24287
196.30356
196.27648
196.33411
196.29165
196.26179
196.24289
196.25843
196.26152
196.2634
196.29122
117.6614
117.64065
117.64599
117.67593
117.68123
117.66852
117.61206
117.68009
117.673
117.63576
117.64022
117.65229
117.67465
117.67515
117.66349
117.62108
117.67343
117.68178
117.63682
117.65076
117.65094
117.67439
117.67937
117.66682
117.62569
117.63518
117.6519
117.67015
117.61954
117.66601
39.250502
39.253679
39.225351
39.22907
39.225024
39.220543
39.247247
39.254879
39.252019
39.253624
39.246243
39.230021
39.226516
39.234346
39.226754
39.264821
39.256418
39.275108
39.268326
39.259903
39.248754
39.262493
39.276582
39.265901
39.263933
39.253344
39.231478
39.225665
39.237209
39.24248
353.4677
353.46675
353.47272
353.46337
353.47298
353.47015
353.4647
353.46662
353.46178
353.48179
353.46817
353.47878
353.4848
353.48363
353.47792
353.47129
353.48226
353.47486
353.47543
353.48163
353.4897
353.48982
353.49108
353.4805
353.49394
353.4965
353.4937
353.50505
353.49988
353.50069
274.41176
274.44412
274.4822
274.45854
274.4732
274.46157
274.42904
274.40164
274.42528
274.47076
274.47861
274.47838
274.47069
274.43884
274.39899
274.42697
274.42617
274.39364
274.39952
274.44377
274.43965
274.40519
274.39206
274.39705
274.43521
274.48237
274.46541
274.46612
274.4165
274.3916
196.28278
196.2368
196.2537
196.26064
196.26127
196.24805
196.27365
196.24621
196.25599
196.22018
196.26225
196.25321
196.26724
196.28938
196.28804
196.32185
196.29065
196.31687
196.29827
196.24304
196.27535
196.28772
196.28712
196.25788
196.23285
196.24832
196.26206
196.27026
196.24844
196.28708
117.66175
117.6321
117.64428
117.64311
117.68075
117.67921
117.63358
117.6922
117.64003
117.66178
117.66787
117.68533
117.70341
117.67404
117.67513
117.64179
117.63105
117.67317
117.64991
117.64133
117.66673
117.65269
117.66773
117.6467
117.65361
117.65032
117.6766
117.6832
117.64466
117.65962
39.248688
39.250853
39.237455
39.213733
39.222503
39.222614
39.235498
39.24297
39.252749
39.249747
39.22891
39.224421
39.236665
39.232435
39.230485
39.2731
39.285596
39.262976
39.255718
39.249708
39.231556
39.249506
39.247813
39.256613
39.25327
39.236869
39.229404
39.233211
39.236548
39.241383
353.45316
353.44454
353.44696
353.44468
353.44779
353.46245
353.46715
353.4673
353.47001
353.47194
353.45872
353.45307
353.45218
353.47945
353.47667
353.48709
353.49291
353.49526
353.49149
353.49077
353.4861
353.4947
353.492
353.49596
353.48859
353.49244
274.4098
274.40531
274.43166
274.44156
274.42633
274.4408
274.4186
274.39631
274.42011
274.47917
274.456
274.43041
274.44053
274.39808
274.41099
274.457
274.47168
274.42971
274.39974
274.38482
274.4089
274.44667
274.45908
274.43592
274.39698
274.38425
196.32348
196.2825
196.28409
196.27057
196.3093
196.23865
196.28936
196.2546
196.23864
196.21621
196.25188
196.2857
196.30354
196.2874
196.25939
196.25511
196.27382
196.24686
196.29276
196.27991
196.25672
196.26189
196.26865
196.25938
196.25214
196.28884
117.66462
117.64495
117.632
117.63244
117.64401
117.64027
117.62916
117.66992
117.6411
117.64723
117.65004
117.66116
117.67209
117.68104
117.64843
117.66556
117.68633
117.67783
117.64451
117.68598
117.60458
117.67307
117.65456
117.63711
117.60204
117.66051
39.261956
39.253487
39.261721
39.251171
39.23182
39.238241
39.242763
39.247117
39.239782
39.240197
39.21283
39.216736
39.220113
39.246464
39.248071
39.228304
39.229255
39.230489
39.244956
39.256172
39.246399
39.234212
39.235263
39.228632
39.251695
39.253665
353.45552
353.4568
353.45152
353.44874
353.44673
353.45061
353.45273
353.45852
353.44679
353.45192
353.4417
353.44742
353.44738
353.47541
353.46249
353.49145
353.49082
353.47732
353.48995
353.48725
353.48473
353.48954
353.5
353.48379
353.49036
353.49345
274.41093
274.41294
274.41422
274.41215
274.41992
274.41614
274.40009
274.39643
274.39741
274.42543
274.43122
274.41493
274.42345
274.40424
274.39348
274.4548
274.44216
274.39762
274.38387
274.38241
274.37141
274.41324
274.44145
274.40161
274.3751
274.38708
196.32039
196.30057
196.29566
196.29822
196.29642
196.28954
196.30142
196.317
196.28678
196.26264
196.27659
196.28493
196.29798
196.31032
196.27963
196.24509
196.26467
196.28298
196.29855
196.32125
196.24238
196.28252
196.22973
196.26929
196.27038
196.34559
117.67042
117.65744
117.6655
117.66309
117.65029
117.62418
117.66281
117.6724
117.65821
117.64
117.63505
117.66006
117.67361
117.68522
117.65395
117.65203
117.67568
117.65891
117.68386
117.67255
117.65789
117.6441
117.63949
117.62223
117.66589
117.6828
39.255536
39.25307
39.246225
39.232425
39.246939
39.267999
39.256065
39.26954
39.25063
39.264494
39.256298
39.229608
39.232971
39.248176
39.240876
39.258542
39.236138
39.253283
39.26033
39.268779
39.256436
39.234356
39.250678
39.25595
39.263176
39.275528
353.4491
353.44876
353.44729
353.44442
353.45392
353.46059
353.45925
353.4653
353.45937
353.45612
353.45212
353.45892
353.46632
353.47212
353.46619
353.4792
353.46256
353.46981
353.46637
353.4667
353.47107
353.47628
353.47916
353.47993
353.48392
353.48647
353.49067
353.48661
353.49116
353.48874
274.42086
274.43105
274.43531
274.42481
274.45729
274.44539
274.39793
274.39782
274.40119
274.41697
274.42067
274.41825
274.43259
274.46011
274.48484
274.48589
274.41697
274.40033
274.39787
274.41045
274.42527
274.39534
274.38497
274.39611
274.43381
274.45502
274.44528
274.40258
274.37441
274.38319
196.30522
196.26999
196.31318
196.30599
196.26695
196.27154
196.29568
196.33421
196.32955
196.29346
196.3018
196.30309
196.31909
196.27436
196.2613
196.23613
196.24487
196.28133
196.29868
196.28697
196.29426
196.2876
196.28135
196.26589
196.24973
196.26789
196.25496
196.27351
196.28378
196.33857
117.65581
117.63848
117.66741
117.65028
117.62598
117.63063
117.62847
117.66951
117.66054
117.64851
117.64195
117.65791
117.66768
117.67936
117.66449
117.65855
117.65123
117.65193
117.66761
117.62306
117.62203
117.68986
117.65949
117.63415
117.63516
117.65894
117.6571
117.6195
117.66275
117.67285
39.240902
39.241234
39.234002
39.229241
39.243451
39.261138
39.26048
39.277205
39.268321
39.256913
39.288749
39.239251
39.238805
39.228085
39.225729
39.240973
39.241674
39.247142
39.256563
39.281179
39.254207
39.239465
39.247238
39.249766
39.248035
39.221685
39.228267
39.248144
39.261617
39.273129
353.46035
353.46979
353.45855
353.4691
353.46834
353.46599
353.46557
353.47117
353.464
353.47154
353.47809
353.44084
353.46098
353.46208
353.47443
353.47281
353.46558
353.48046
353.47256
353.47721
353.47264
353.4707
353.47802
353.49109
353.48125
353.48447
353.48873
353.49338
353.49722
353.48924
274.42173
274.45776
274.45296
274.46542
274.47672
274.44391
274.42459
274.40191
274.40086
274.41283
274.46353
274.45162
274.43356
274.46178
274.47112
274.42367
274.39166
274.38594
274.39035
274.38599
274.38424
274.39689
274.43093
274.46886
274.44993
274.45342
274.45322
274.44661
274.4225
274.40159
196.2856
196.23821
196.27344
196.25485
196.27341
196.26379
196.26967
196.29074
196.28228
196.25592
196.2412
196.279
196.29826
196.26677
196.23008
196.24274
196.25803
196.30652
196.31695
196.30866
196.28043
196.25469
196.24028
196.24774
196.25347
196.26235
196.25628
196.25903
196.27241
196.30501
117.65508
117.64702
117.65668
117.67378
117.67023
117.64108
117.61564
117.67041
117.66993
117.65283
117.65503
117.64166
117.66997
117.66951
117.63607
117.64514
117.64159
117.67986
117.68156
117.68147
117.67775
117.63431
117.63721
117.64469
117.63465
117.65867
117.67358
117.65077
117.65701
117.66951
39.241523
39.243348
39.216603
39.217744
39.233208
39.221997
39.255342
39.247458
39.251654
39.225684
39.263065
39.251728
39.234507
39.229682
39.251938
39.257638
39.255656
39.265485
39.270868
39.265508
39.254387
39.252348
39.25531
39.255386
39.230672
39.213445
39.220241
39.217033
39.219678
39.230077
353.47036
353.47168
353.47856
353.47129
353.45947
353.46476
353.46048
353.46392
353.4622
353.46564
353.46889
353.47309
353.47481
353.4797
353.46966
353.47096
353.46786
353.47378
353.46477
353.47157
353.46169
353.47252
353.48296
353.48436
353.47413
353.47041
353.46839
353.45791
353.4899
353.47386
274.40799
274.4117
274.48522
274.47218
274.41756
274.40731
274.40667
274.42198
274.41099
274.40582
274.44297
274.46633
274.45458
274.44791
274.41043
274.39135
274.38761
274.40114
274.40016
274.3959
274.39747
274.40844
274.48472
274.47038
274.41255
274.41995
274.41278
274.41851
274.43336
274.41517
196.29261
196.25383
196.25186
196.23647
196.29988
196.32222
196.31956
196.31136
196.31376
196.28702
196.26583
196.24036
196.26247
196.25813
196.24234
196.27257
196.2947
196.31881
196.2964
196.30685
196.26157
196.23337
196.22743
196.23374
196.27686
196.31306
196.28991
196.28769
196.24411
196.29372
117.66131
117.61253
117.63513
117.62716
117.661
117.67093
117.63921
117.61606
117.65836
117.65618
117.64039
117.64388
117.65961
117.6688
117.63746
117.66545
117.67904
117.65908
117.65497
117.66148
117.64567
117.63657
117.64656
117.6457
117.65908
117.66721
117.63651
117.61975
117.6312
117.63537
39.255685
39.257786
39.249331
39.233105
39.230764
39.245371
39.243598
39.274228
39.248191
39.246911
39.250325
39.237731
39.223185
39.222384
39.239509
39.238003
39.250643
39.257351
39.264256
39.25424
39.241161
39.235164
39.231254
39.228753
39.2254
39.227013
39.233727
39.254987
39.249115
39.244621
353.4748
353.4753
353.47714
353.4839
353.44636
353.47009
353.4454
353.47668
353.47004
353.46984
353.46945
353.46714
353.46955
353.46798
353.46772
353.47505
353.46296
353.48047
353.47703
353.47539
353.46844
353.46342
353.47581
353.48485
353.47248
353.47043
353.47102
353.46556
353.46022
353.46577
274.41061
274.38725
274.44956
274.46602
274.42911
274.42197
274.43063
274.45831
274.45624
274.40222
274.41093
274.43762
274.43951
274.40302
274.40038
274.39819
274.41315
274.44173
274.45568
274.41393
274.40788
274.41441
274.46047
274.45954
274.41636
274.39731
274.39767
274.39535
274.41382
274.40224
196.34377
196.26701
196.26475
196.23515
196.2759
196.2965
196.31778
196.2515
196.26307
196.28491
196.30744
196.25543
196.28274
196.27331
196.30188
196.29566
196.30149
196.26998
196.24013
196.30582
196.26772
196.27531
196.26133
196.26678
196.28296
196.29793
196.32535
196.32132
196.30184
196.32716
117.68247
117.66543
117.6204
117.65257
117.63219
117.6812
117.66162
117.6627
117.64246
117.67691
117.67434
117.65675
117.63955
117.65281
117.66493
117.68524
117.65798
117.67077
117.65362
117.64946
117.67163
117.64517
117.67803
117.68102
117.65303
117.67955
117.67746
117.67315
117.63185
117.6608
39.279962
39.268672
39.266213
39.262309
39.243463
39.237311
39.231608
39.240346
39.249599
39.241667
39.242799
39.223106
39.252634
39.246306
39.259612
39.25913
39.246698
39.241877
39.258804
39.251352
39.233092
39.2181
39.218763
39.226549
39.244263
39.250876
39.262352
39.260748
39.282696
39.266342
)
;

boundaryField
{
    minX
    {
        type            calculated;
        value           nonuniform List<scalar> 
50
(
353.47565
274.39895
196.34289
117.68162
39.263685
353.47251
274.40076
196.29562
117.65163
39.254869
353.4747
274.41195
196.29061
117.6614
39.250502
353.4677
274.41176
196.28278
117.66175
39.248688
353.45316
274.4098
196.32348
117.66462
39.261956
353.45552
274.41093
196.32039
117.67042
39.255536
353.4491
274.42086
196.30522
117.65581
39.240902
353.46035
274.42173
196.2856
117.65508
39.241523
353.47036
274.40799
196.29261
117.66131
39.255685
353.4748
274.41061
196.34377
117.68247
39.279962
)
;
    }
    maxX
    {
        type            calculated;
        value           nonuniform List<scalar> 
50
(
353.4948
274.37912
196.29168
117.67219
39.261854
353.5001
274.37598
196.30086
117.67357
39.264963
353.49109
274.3837
196.29122
117.66601
39.24248
353.50069
274.3916
196.28708
117.65962
39.241383
353.49244
274.38425
196.28884
117.66051
39.253665
353.49345
274.38708
196.34559
117.6828
39.275528
353.48874
274.38319
196.33857
117.67285
39.273129
353.48924
274.40159
196.30501
117.66951
39.230077
353.47386
274.41517
196.29372
117.63537
39.244621
353.46577
274.40224
196.32716
117.6608
39.266342
)
;
    }
    minY
    {
        type            calculated;
        value           nonuniform List<scalar> 
292
(
392.4
392.4
392.4
392.4
392.4
392.4
392.4
392.4
392.4
392.4
392.4
392.4
392.4
392.4
392.4
392.4
392.4
392.4
392.4
392.4
392.4
392.4
392.4
392.4
392.4
392.4
392.4
392.4
392.4
392.4
392.4
392.4
392.4
392.4
392.4
392.4
392.4
392.4
392.4
392.4
392.4
392.4
392.4
392.4
392.4
392.4
392.4
392.4
392.4
392.4
392.4
392.4
392.4
392.4
392.4
392.4
392.4
392.4
392.4
392.4
392.4
392.4
392.4
392.4
392.4
392.4
392.4
392.4
392.4
392.4
392.4
392.4
392.4
392.4
392.4
392.4
392.4
392.4
392.4
392.4
392.4
392.4
392.4
392.4
392.4
392.4
392.4
392.4
392.4
392.4
392.4
392.4
392.4
392.4
392.4
392.4
392.4
392.4
392.4
392.4
392.4
392.4
392.4
392.4
392.4
392.4
392.4
392.4
392.4
392.4
392.4
392.4
392.4
392.4
392.4
392.4
392.4
392.4
392.4
392.4
392.4
392.4
392.4
392.4
392.4
392.4
392.4
392.4
392.4
392.4
392.4
392.4
392.4
392.4
392.4
392.4
392.4
392.4
392.4
392.4
392.4
392.4
392.4
392.4
392.4
392.4
392.4
392.4
392.4
392.4
392.4
392.4
392.4
392.4
392.4
392.4
392.4
392.4
392.4
392.4
392.4
392.4
392.4
392.4
392.4
392.4
392.4
392.4
392.4
392.4
392.4
392.4
392.4
392.4
392.4
392.4
392.4
392.4
392.4
392.4
392.4
392.4
392.4
392.4
392.4
392.4
392.4
392.4
392.4
392.4
392.4
392.4
392.4
392.4
392.4
392.4
392.4
392.4
392.4
392.4
392.4
392.4
392.4
392.4
392.4
392.4
392.4
392.4
392.4
392.4
392.4
392.4
392.4
392.4
392.4
392.4
392.4
392.4
392.4
392.4
392.4
392.4
392.4
392.4
392.4
392.4
392.4
392.4
392.4
392.4
392.4
392.4
392.4
392.4
392.4
392.4
392.4
392.4
392.4
392.4
392.4
392.4
392.4
392.4
392.4
392.4
392.4
392.4
392.4
392.4
392.4
392.4
392.4
392.4
392.4
392.4
392.4
392.4
392.4
392.4
392.4
392.4
392.4
392.4
392.4
392.4
392.4
392.4
392.4
392.4
392.4
392.4
392.4
392.4
392.4
392.4
392.4
392.4
392.4
392.4
392.4
392.4
392.4
392.4
392.4
392.4
392.4
392.4
392.4
392.4
392.4
392.4
)
;
    }
    minZ
    {
        type            calculated;
        value           nonuniform List<scalar> 
150
(
353.47565
274.39895
196.34289
117.68162
39.263685
353.4743
274.38898
196.31174
117.67341
39.250788
353.47339
274.39493
196.28159
117.67126
39.230147
353.47566
274.42309
196.26321
117.64455
39.248677
353.48858
274.48284
196.24983
117.67828
39.236734
353.47606
274.4834
196.274
117.66521
39.223604
353.46751
274.45259
196.24615
117.64054
39.245685
353.45815
274.41636
196.27017
117.64263
39.265254
353.46134
274.39845
196.29181
117.67316
39.263882
353.46661
274.40489
196.32795
117.67968
39.273192
353.46745
274.40354
196.32176
117.68113
39.271067
353.4631
274.39736
196.29909
117.66768
39.259403
353.46063
274.42289
196.27661
117.64078
39.264283
353.46142
274.41748
196.3039
117.67315
39.251796
353.46486
274.39988
196.26589
117.67085
39.235941
353.47484
274.44716
196.25976
117.64505
39.255599
353.47967
274.46685
196.25238
117.66632
39.232062
353.48186
274.44443
196.26767
117.6677
39.225531
353.46879
274.41455
196.33264
117.69027
39.239452
353.47462
274.42059
196.31596
117.70715
39.239372
353.47728
274.44091
196.27608
117.68232
39.229764
353.48569
274.47083
196.26182
117.66216
39.241799
353.48805
274.43524
196.24771
117.66161
39.258755
353.48061
274.40481
196.28045
117.63925
39.262727
353.48635
274.38799
196.27754
117.67991
39.250142
353.48831
274.40612
196.3058
117.65855
39.24615
353.48189
274.42455
196.27058
117.64419
39.228443
353.50021
274.44582
196.26232
117.63564
39.23264
353.49501
274.40299
196.25907
117.59842
39.256873
353.4948
274.37912
196.29168
117.67219
39.261854
)
;
    }
    maxZ
    {
        type            calculated;
        value           nonuniform List<scalar> 
150
(
353.4748
274.41061
196.34377
117.68247
39.279962
353.4753
274.38725
196.26701
117.66543
39.268672
353.47714
274.44956
196.26475
117.6204
39.266213
353.4839
274.46602
196.23515
117.65257
39.262309
353.44636
274.42911
196.2759
117.63219
39.243463
353.47009
274.42197
196.2965
117.6812
39.237311
353.4454
274.43063
196.31778
117.66162
39.231608
353.47668
274.45831
196.2515
117.6627
39.240346
353.47004
274.45624
196.26307
117.64246
39.249599
353.46984
274.40222
196.28491
117.67691
39.241667
353.46945
274.41093
196.30744
117.67434
39.242799
353.46714
274.43762
196.25543
117.65675
39.223106
353.46955
274.43951
196.28274
117.63955
39.252634
353.46798
274.40302
196.27331
117.65281
39.246306
353.46772
274.40038
196.30188
117.66493
39.259612
353.47505
274.39819
196.29566
117.68524
39.25913
353.46296
274.41315
196.30149
117.65798
39.246698
353.48047
274.44173
196.26998
117.67077
39.241877
353.47703
274.45568
196.24013
117.65362
39.258804
353.47539
274.41393
196.30582
117.64946
39.251352
353.46844
274.40788
196.26772
117.67163
39.233092
353.46342
274.41441
196.27531
117.64517
39.2181
353.47581
274.46047
196.26133
117.67803
39.218763
353.48485
274.45954
196.26678
117.68102
39.226549
353.47248
274.41636
196.28296
117.65303
39.244263
353.47043
274.39731
196.29793
117.67955
39.250876
353.47102
274.39767
196.32535
117.67746
39.262352
353.46556
274.39535
196.32132
117.67315
39.260748
353.46022
274.41382
196.30184
117.63185
39.282696
353.46577
274.40224
196.32716
117.6608
39.266342
)
;
    }
    bottomWater_to_rightSolid
    {
        type            calculated;
        value           nonuniform List<scalar> 
130
(
-0.014469409
-0.00054829578
-0.00062772002
-0.010236311
0.0017994808
0.018754827
0.02272705
0.010142206
0.0061504637
-0.011557477
-0.0073602328
0.016872693
0.021854492
0.017166899
0.024253291
-0.012930737
0.014034817
0.018732153
0.023267149
0.035788397
0.024733954
0.018472592
0.0014758615
0.0027855774
0.018850534
0.024962562
0.03510767
0.028325776
0.019902879
0.0087541383
0.022492825
0.036582215
0.025900731
0.023933127
0.013344256
-0.0085215282
-0.014334638
-0.0027912874
0.0024797497
0.022976182
0.015718087
0.0097077564
-0.0084437199
0.009505983
0.0078128109
0.016613221
0.01326974
-0.0031314476
-0.010596226
-0.006788663
-0.0034523415
0.0013830574
0.0064641269
0.0080711932
-0.011696149
-0.01074516
-0.00951092
0.0049558823
0.016172152
0.0063993308
-0.0057879771
-0.0047372391
-0.011367563
0.011694872
0.013665371
0.0081762121
0.00087608621
0.018542102
-0.0038624212
0.01328308
0.020330103
0.028779365
0.016435698
-0.0056438474
0.010678283
0.015950169
0.023176463
0.035527962
0.0071420622
0.016562728
0.041179479
0.0142074
-0.00053496535
0.007237972
0.0097661509
0.0080352446
-0.018314817
-0.011733431
0.0081442788
0.021617068
0.03312896
0.025484613
0.030868409
0.025507928
0.014387448
0.012347957
0.015309703
0.015385634
-0.0093276675
-0.026555297
-0.019758917
-0.02296728
-0.020322015
-0.0099226607
0.017351349
0.024256167
0.014239678
0.0011607345
-0.0048360827
-0.0087457331
-0.011247084
-0.014599764
-0.012987143
-0.0062726522
0.014987137
0.0091150367
0.0046208706
0.0018774932
0.018803722
0.011351904
-0.0069075335
-0.021900104
-0.02123726
-0.01345106
0.0042632434
0.010876426
0.022352443
0.020747792
0.042695684
0.026341732
)
;
    }
    bottomWater_to_leftSolid
    {
        type            calculated;
        value           nonuniform List<scalar> 
130
(
0.023685456
0.010788349
-0.0098532574
0.0086765106
-0.003266105
-0.016396295
0.0056853524
0.025253519
0.023881729
0.033192457
0.031067236
0.019403301
0.024282943
0.014869045
0.0028787034
-0.022410816
-0.014002538
-0.01746428
0.0004371762
0.013661485
0.023414004
0.036724245
0.032977986
0.020303612
0.013284494
0.0027817757
0.010502398
0.013678627
-0.01464938
-0.010929913
-0.014975972
-0.019456886
0.0072473157
0.01487924
0.012018678
0.013624065
0.0062425353
-0.0099787202
-0.013483834
0.0086880912
0.010852596
-0.0025448037
-0.026267203
-0.017496504
-0.017386384
-0.0045018767
0.0029697705
0.0127492
0.0097470319
-0.011089553
-0.015579141
-0.0033351507
0.021955619
0.013486874
0.021721011
0.011170616
-0.0081804773
-0.0017589466
0.0027634519
0.0071166256
-0.00021795762
0.00019675918
-0.027169942
-0.023264309
-0.019887145
0.015535561
0.013069709
0.0062253617
-0.0075751928
0.0069387078
0.02799923
0.016065318
0.029539755
0.010630302
0.024494288
0.016298388
-0.010391941
-0.0070288837
0.00090242385
0.0012340832
-0.0059978427
-0.010758968
0.0034514813
0.021138068
0.020479897
0.037205137
0.028320851
0.016913218
0.048748858
-0.00074918487
-0.0011952354
0.0015233686
0.0033475769
-0.023396829
-0.022256347
-0.0067916989
-0.018003235
0.015341632
0.0074577754
0.011653599
-0.014316422
0.023064722
0.011728295
-0.0054925188
0.01568519
0.01778646
0.0093312226
-0.0068950393
-0.0092363148
0.0053714642
0.0035975997
0.034228125
0.0081910485
0.0069114882
0.010324859
-0.0022690019
-0.016814861
0.039961824
0.028671894
0.026213131
0.022308671
0.0034627844
-0.0026892647
-0.0083919956
0.00034606292
0.0095991186
0.0016670012
0.0027987748
-0.016893724
0.012633661
)
;
    }
    bottomWater_to_heater
    {
        type            calculated;
        value           nonuniform List<scalar> 
92
(
0.011795692
-0.0040593438
0.015598767
-0.0079376812
0.012815792
0.0045328647
0.0020660543
0.002917351
-0.0056541288
-0.013245517
0.024821438
0.016417518
353.48363
353.47792
353.47129
353.48226
274.43884
274.39899
274.42697
274.42617
196.28938
196.28804
196.32185
196.29065
117.67404
117.67513
117.64179
117.63105
-0.0075651006
39.232435
-0.0095154677
39.230485
0.033100208
39.2731
0.04559644
39.285596
353.45218
353.47945
274.44053
274.39808
196.30354
196.2874
117.67209
117.68104
39.220113
39.246464
353.44738
353.47212
353.46619
353.4792
353.47541
353.46256
274.42345
274.46011
274.48484
274.48589
274.40424
274.41697
196.29798
196.27436
196.2613
196.23613
196.31032
196.24487
117.67361
117.67936
117.66449
117.65855
117.68522
117.65123
39.232971
39.228085
39.225729
39.240973
39.248176
39.241674
-0.011915396
-0.014270552
0.0009727185
0.0016736966
-0.010318475
0.011937612
0.017638321
0.015655721
-0.017616172
-0.00049061594
-0.0019967742
0.010642726
0.0063062698
0.019611796
0.019130487
0.0066983528
)
;
    }
}


// ************************************************************************* //
