/*--------------------------------*- C++ -*----------------------------------*\
| =========                 |                                                 |
| \\      /  F ield         | OpenFOAM: The Open Source CFD Toolbox           |
|  \\    /   O peration     | Version:  v2012                                 |
|   \\  /    A nd           | Website:  www.openfoam.com                      |
|    \\/     M anipulation  |                                                 |
\*---------------------------------------------------------------------------*/
FoamFile
{
    version     2.0;
    format      ascii;
    class       volScalarField;
    location    "440/bottomWater";
    object      T;
}
// * * * * * * * * * * * * * * * * * * * * * * * * * * * * * * * * * * * * * //

dimensions      [0 0 0 1 0 0 0];


internalField   nonuniform List<scalar> 
1460
(
978.03681
974.505
972.62494
971.33742
969.9595
969.94094
971.0329
972.79885
974.35541
975.10602
966.76712
958.87767
954.57078
949.44934
946.17159
943.33018
941.86587
940.11345
940.53572
939.63909
937.43458
937.22708
937.88645
939.06786
940.28284
940.73331
940.20188
938.90919
938.57918
938.3601
974.11903
971.40511
970.15253
969.51422
969.70922
968.72717
968.93884
969.89119
970.84226
970.65897
961.96621
957.59209
954.74639
947.7282
944.7801
943.76557
941.43649
939.28505
938.20167
938.41711
936.49141
936.91352
938.06664
938.47402
939.69995
940.13771
939.51155
940.20171
940.56846
940.28263
974.40516
971.69962
970.5438
970.73006
969.84562
968.34731
968.65432
969.22173
970.21743
970.3761
962.68857
958.32324
958.50477
948.84753
945.01032
946.82832
941.75098
939.30687
936.94462
936.41974
936.04634
936.67851
938.68952
939.23976
940.01355
939.60389
939.42746
940.23668
941.53678
940.50375
974.71087
972.18081
970.94873
970.74706
969.05182
967.87718
969.17999
968.98156
969.80671
970.01327
963.82915
960.8754
959.63012
949.12621
945.34578
946.49719
943.99165
940.81844
937.0074
934.29392
935.24096
936.67469
938.79062
939.76654
940.29128
938.83814
939.26887
939.96943
941.19941
940.71591
974.20859
972.73985
970.55267
969.42296
967.90869
967.2957
967.85156
968.38037
968.89388
968.6965
964.96102
963.02846
961.0448
955.88115
951.03281
946.98038
944.152
941.79358
938.27458
934.24396
934.825
935.73485
936.70278
937.86199
938.12518
937.52985
939.34561
939.9235
940.32392
940.1368
975.51155
972.67109
970.75325
969.26659
967.21787
967.95315
969.61022
971.02226
970.95522
967.17626
962.9248
961.09116
958.94633
951.10377
950.84094
945.75056
942.77628
942.49123
939.37408
938.7359
934.88577
936.22469
937.34377
938.13457
940.95325
940.9933
940.91835
939.50118
939.21085
938.5706
973.23831
971.00741
969.83326
968.19868
966.33073
965.8917
966.39164
967.28848
966.32355
962.30951
961.44129
960.86801
960.59971
949.24669
948.9631
947.40138
941.7864
940.18136
939.17831
939.00983
935.77747
936.30019
936.99964
938.17928
941.10261
941.03323
940.83647
941.36067
941.51622
941.26132
973.95755
972.34112
971.25668
968.3666
966.44237
965.69032
966.17218
967.05844
966.02901
963.54814
962.20417
961.35471
960.88143
948.15295
946.03378
946.71069
941.86822
942.75141
939.68592
936.40584
935.72229
936.29437
937.5267
938.59862
941.19688
940.83427
940.18606
941.25743
942.46676
941.61754
974.01867
972.09474
971.34929
967.50541
966.68705
966.09668
966.71516
966.70148
966.00549
964.82044
963.98632
963.42091
962.38098
949.16858
946.44061
946.86943
943.21125
943.04891
941.18792
935.65855
936.02056
936.87426
938.18504
938.88162
941.03973
940.78641
940.01982
941.01
942.50023
941.88859
973.54029
972.85643
972.10315
967.7353
966.41344
966.08127
966.24215
966.22445
965.7913
965.62133
964.8854
963.88989
962.28434
955.00061
948.24851
944.16152
939.82789
940.01725
938.74976
936.06492
935.03273
936.03064
937.32695
938.30196
939.70524
939.3523
939.4681
940.93141
941.46192
941.20798
973.48547
971.15891
970.05887
968.66271
967.10552
966.25494
968.07742
969.0856
965.4715
961.93022
962.43935
961.54745
958.5163
951.32119
948.45324
946.44753
941.57839
939.41607
939.06687
936.25859
934.3074
933.49245
938.32831
942.12785
941.08477
940.08591
940.16087
940.57671
941.47094
942.13129
971.79398
971.37287
970.09807
968.30621
965.24179
964.26824
965.03063
965.27637
960.56096
959.94533
961.43059
961.98693
959.40694
949.11618
944.6394
943.19553
940.69993
939.81654
938.51542
937.25288
935.46595
934.44228
938.07372
941.17469
940.70955
940.64547
939.93247
941.36314
942.12609
942.4949
972.44694
972.60992
970.83128
968.68279
965.03471
963.52657
965.45266
965.00202
961.26644
961.79963
962.41632
962.53765
960.36807
945.83885
941.46401
941.96479
940.46108
939.90563
939.08944
937.19952
934.17378
934.20128
937.86677
941.01528
941.24845
941.18469
939.88929
941.23705
943.3579
942.92448
973.05441
972.82063
971.43258
969.62609
964.4807
962.42939
963.86391
964.67639
962.1088
963.14536
963.67641
963.55179
961.37345
946.97083
940.98028
943.50227
941.00141
939.46838
939.76854
938.95711
934.39667
934.36424
938.05101
940.28274
940.68521
940.85881
939.36903
940.25335
942.89799
943.40672
972.97961
972.73225
972.53696
971.19514
964.14577
962.32064
962.84777
963.55252
963.27574
963.9129
964.00708
963.67766
962.11096
945.98313
940.33942
939.06415
938.15891
938.66466
938.51524
937.53169
934.91789
934.82557
937.51014
938.50828
938.92691
939.04111
938.62936
939.77262
940.75031
941.46503
973.58979
971.44954
970.38831
969.05395
967.02577
966.24603
968.46191
964.38029
958.85285
956.54649
956.89911
954.96899
948.61517
942.61505
938.29878
932.41066
927.04229
931.53874
934.79346
932.73345
928.8005
929.60577
937.72266
940.00529
938.89897
938.49952
937.86971
939.24926
939.72107
939.16613
971.74064
971.36472
970.65593
969.02421
966.90209
964.80087
965.9835
960.80425
955.13953
956.06205
957.92644
956.09619
947.31426
944.04427
942.14758
935.33629
930.96402
931.17955
934.10179
933.82248
930.92856
930.93492
936.43176
940.00265
939.54196
939.53788
938.44735
940.51771
941.97199
941.74664
971.86643
972.37818
971.2519
969.97367
967.36208
963.78177
966.4054
960.70911
958.4076
957.6144
958.99232
956.65654
945.90582
932.96196
939.45281
935.26054
931.47382
930.86119
934.54676
934.80068
932.53932
931.67096
935.70929
937.84584
939.23014
939.5148
938.31979
940.72733
942.91836
942.22584
972.08912
972.49865
970.5659
970.31055
967.47402
960.80588
961.97276
961.3427
959.56642
960.86248
959.71143
959.04322
949.51733
932.25733
934.75055
934.27331
933.37315
930.17885
933.23614
934.46842
932.49642
933.31918
936.10072
937.60558
938.90535
938.6952
937.87984
940.16843
942.55346
942.86475
972.17759
972.41127
972.2795
972.04949
969.10069
959.7908
958.28766
957.90045
957.09902
958.05053
958.46208
959.10654
948.65712
928.00545
925.99012
928.75505
929.50928
929.64373
931.63262
932.16377
932.36354
934.3537
935.85459
936.94281
937.54871
937.59274
937.48659
940.12667
941.38237
941.57129
977.51059
974.23634
973.06754
972.42108
972.19114
971.94648
974.31209
960.22429
949.30682
944.62606
949.13639
954.99758
945.06197
920.6382
926.99308
924.62142
926.23684
928.58313
929.11721
937.61141
939.12604
938.56599
939.95155
940.48095
940.77785
940.62715
973.1323
971.49173
970.67023
969.53744
968.77391
969.76466
970.24449
953.76919
944.98022
942.27575
941.78182
949.86368
941.88014
920.18086
923.98402
923.51345
926.70709
931.27455
931.20663
938.35133
939.15647
938.72325
940.61974
941.82042
942.10314
942.00147
973.23444
971.45113
972.93169
971.08293
969.23029
968.98646
970.29801
956.32268
951.53032
942.39149
940.52219
936.56644
929.88291
917.14751
923.12247
922.97889
926.51164
933.23086
932.08855
938.69376
939.83374
938.33341
940.83695
942.32372
943.26283
942.31259
973.48497
972.63319
972.35483
968.51621
967.59167
964.05982
964.48168
958.91589
952.21909
948.97879
944.77403
941.40658
931.41504
913.09401
914.74299
921.36267
925.71961
932.73705
933.43747
938.56675
939.32135
937.28278
941.22355
941.92521
943.18957
942.67139
973.75017
973.57553
972.83481
971.45262
968.92641
962.62661
960.53826
958.63653
947.02685
945.25321
942.46506
940.24945
931.14148
916.27583
921.43448
923.96084
926.32178
933.41642
934.0491
937.2184
936.88451
936.44979
941.37357
942.13769
942.40519
942.29466
982.84718
979.40555
977.65494
978.8896
980.53176
981.56254
977.29068
965.1438
955.87276
952.19889
953.70297
956.95414
941.0222
918.71268
927.68111
924.34951
931.68567
932.75674
935.35059
941.39822
941.58634
941.09138
941.30734
941.80399
941.81098
941.46416
978.78396
976.32923
974.18933
974.07629
974.76107
977.16569
976.21468
958.92406
947.73307
944.13981
946.59482
951.17159
939.08354
919.52246
924.98886
924.13261
932.97214
932.98993
934.92188
941.02964
941.4618
941.78564
942.79426
942.58626
942.52801
942.53014
978.55474
976.15312
974.48758
973.88439
974.61409
972.91566
975.50252
960.37276
946.59798
940.2187
944.14909
946.53471
934.87073
916.56383
918.614
924.26619
933.81611
936.07345
935.37918
941.03126
941.76684
940.69946
943.01369
943.42954
942.85947
942.84117
978.14781
975.49298
971.8448
970.24882
973.18019
970.54206
970.28188
961.29586
947.55304
942.73582
940.04342
939.43
930.7529
914.00215
918.2372
919.68389
931.10347
935.84919
936.39894
940.81911
941.81259
940.47413
943.32871
943.34925
943.21087
943.13132
976.55862
975.09719
973.75009
968.80375
967.27969
966.76008
963.50536
960.70375
945.04515
942.45133
938.91374
937.6336
928.58263
919.00892
927.0933
927.21908
930.65127
934.65576
936.76809
939.78701
939.30846
940.17457
942.23364
942.62203
942.65061
942.77191
980.98821
979.51833
979.28122
978.71176
976.0387
976.6441
977.30549
963.20875
949.17296
944.60222
941.17369
938.07562
930.51967
923.97018
927.33322
928.39245
927.6041
926.01084
930.10619
933.33355
936.5849
939.39715
940.81273
941.16425
941.17887
941.13424
941.79321
942.46566
942.65573
942.88062
976.15469
974.59942
974.10593
974.64256
971.37729
971.41905
972.44259
965.86251
941.52688
937.86036
936.18157
934.68819
930.06743
925.34182
928.40839
930.20955
928.30443
927.18093
928.82864
931.12195
934.78764
939.16448
940.08001
940.35153
940.72851
940.94319
942.26957
942.45007
942.74935
943.12558
976.57459
975.19227
973.34829
968.61869
970.26283
970.97959
972.44571
964.62943
941.01527
935.35786
934.23058
934.30766
930.71238
926.75756
929.43356
930.81927
927.24981
926.23499
929.2778
936.33622
938.06099
939.03817
940.19287
940.62051
940.96359
940.70916
942.43099
943.21599
943.048
943.33019
977.40821
976.45517
973.50539
967.24887
969.87797
968.46388
968.09175
962.7244
941.74581
939.39056
935.577
932.95018
929.84391
927.90855
929.03251
927.39827
925.01852
925.21107
929.47532
936.29281
937.64187
938.60599
940.02767
940.43837
940.94507
940.11949
942.27412
943.21971
943.38668
943.49401
976.12259
974.83603
972.9574
966.10083
965.32689
964.71885
963.1314
961.34282
941.56267
940.18315
935.81945
934.24703
933.6291
927.89049
928.34677
927.44885
927.5075
928.48547
930.14506
934.40488
934.32263
931.68924
936.84326
938.36634
938.05543
939.53728
941.7345
942.12773
942.43227
942.79007
978.46107
976.51406
976.86571
974.39859
972.85341
973.13951
975.35577
971.19241
953.10924
948.50889
946.33295
945.18417
946.98774
939.8962
939.15383
936.86799
935.97199
932.18263
937.12214
939.09078
940.76485
940.70502
939.43983
938.84897
939.93225
940.13488
940.77242
942.03314
942.10016
942.73634
975.56172
975.03096
973.80634
972.90162
971.06213
970.53282
971.35576
971.51813
952.01049
948.70135
945.27851
939.973
944.4534
940.644
941.85465
939.39122
936.82047
934.69734
936.32311
936.99503
939.03059
939.29831
939.04947
938.93363
938.80626
938.97484
940.34233
942.06797
942.75758
943.16099
975.79335
975.53504
973.91181
972.78375
970.69448
970.07892
971.56792
971.5902
956.65522
953.80716
945.01918
938.80731
940.99187
940.35044
943.46174
939.58011
937.21749
934.99048
936.37656
937.49503
939.24698
939.21699
939.53022
939.40322
938.49786
938.46422
939.92137
941.78221
943.04994
943.48103
976.77304
976.56937
974.61709
973.96099
969.89034
968.61475
970.5123
971.60933
957.46664
956.75889
957.35738
942.38652
942.98963
939.48801
943.34113
938.87812
937.1134
935.50229
936.50304
937.72509
939.15147
939.01258
939.30325
939.49948
939.38624
938.12548
939.71278
941.50767
942.17837
943.04257
974.9666
974.65944
974.15081
973.77594
968.31488
967.17991
968.53865
968.36331
956.18474
951.88458
951.45616
946.54258
944.87086
937.8677
937.67105
935.53089
934.54447
934.5051
935.37226
936.08638
936.18834
935.83083
936.67652
937.68406
937.28955
937.36028
939.10983
940.09707
940.25944
940.57118
977.60354
976.39
975.01776
975.06088
976.9644
978.54699
977.81774
970.37308
962.96432
957.09251
952.9597
953.75677
952.59915
948.41459
947.0631
944.40533
943.04401
942.29126
943.41422
942.54706
941.64414
939.97234
938.62114
937.01099
939.63554
940.87358
942.84382
945.18906
942.56285
944.77961
975.39821
974.71772
974.41957
973.50122
973.54217
974.55962
974.35981
971.584
960.23042
952.73144
952.83572
953.33344
951.07188
947.92934
946.41661
944.20945
942.10542
940.4519
940.85085
940.37899
939.53688
938.83601
938.62849
937.04737
938.0859
938.65794
940.6263
942.5615
941.96041
943.1696
975.39399
975.19667
974.575
973.48883
973.18749
972.24342
972.74498
970.92016
963.89067
954.89353
957.82965
953.78462
950.55853
947.16619
947.99711
943.61713
941.9236
940.27904
939.9383
940.28351
939.62599
939.31318
938.80299
937.08518
937.0947
936.98264
938.38555
939.52163
941.69503
943.55748
975.46073
975.52535
975.18014
974.71007
973.4056
967.7992
969.14612
967.24155
963.84909
957.50484
959.28509
958.95151
953.23825
946.09046
946.01384
941.58936
941.68787
940.7172
939.14162
940.27397
939.77742
939.62828
939.21779
937.95439
936.69309
936.50322
937.94605
940.79474
942.96565
942.64828
974.56441
974.34579
974.12645
973.77361
973.29442
967.08215
967.33163
966.91726
961.5793
957.87321
957.36981
955.67427
954.23697
943.96129
939.92699
935.78752
936.80993
937.77369
936.8814
937.51238
936.79551
935.77856
935.64479
936.07251
935.96625
936.13291
939.08012
940.32539
940.54081
940.82022
978.14182
976.84013
975.81723
974.51956
977.39235
976.98939
974.52552
970.72434
972.07526
971.32239
962.23677
959.58184
960.21119
957.32624
956.50916
946.72528
942.17395
938.01242
939.47937
941.40219
941.3773
939.34127
937.1633
936.12356
938.33565
940.2592
942.3847
944.71823
946.20314
947.03934
975.29298
974.50183
973.90935
973.68197
974.03823
974.61421
970.28062
969.30731
968.81364
966.45067
957.26052
957.92309
955.22783
954.23988
952.83742
943.7926
939.44031
937.46282
938.61034
939.09409
938.37857
936.61295
936.02522
935.99008
936.4741
937.59376
939.51564
941.92395
944.08581
944.76607
975.22518
974.48167
974.21944
973.70961
973.63615
974.15162
969.49032
969.1523
967.33011
966.46484
958.68564
958.05895
954.90112
954.45899
953.17121
943.35759
938.7862
937.56932
938.8871
939.16316
938.42759
937.02885
935.94832
935.97599
937.46045
937.4457
939.07155
941.02968
942.02439
944.19836
975.16165
974.66114
974.66944
974.34566
972.86149
972.18665
968.64726
967.4301
967.72178
967.15218
961.44125
957.84375
955.49037
954.09039
952.0776
942.386
938.31072
936.26385
939.04915
939.12852
938.51626
936.56052
935.3946
935.391
937.30939
937.56245
938.93354
940.2254
940.63551
943.79913
974.65103
974.25014
974.02188
973.84581
973.35121
972.61227
968.53656
965.6931
964.75303
962.27395
959.68649
954.29965
951.99299
950.7095
950.37997
940.78065
937.5589
935.54106
936.24232
936.73669
935.92449
935.31006
934.93837
935.37311
936.66637
937.38748
938.30388
939.26502
940.28227
941.50871
)
;

boundaryField
{
    minX
    {
        type            zeroGradient;
    }
    maxX
    {
        type            zeroGradient;
    }
    minY
    {
        type            fixedValue;
        value           uniform 1073;
    }
    minZ
    {
        type            zeroGradient;
    }
    maxZ
    {
        type            zeroGradient;
    }
    bottomWater_to_rightSolid
    {
        type            compressible::turbulentTemperatureCoupledBaffleMixed;
        refValue        nonuniform List<scalar> 
130
(
752.66375
760.63884
768.97367
777.27592
785.21262
792.54543
799.11523
804.82009
809.60803
813.46413
816.3653
818.30275
819.27147
746.78827
756.12107
765.64017
774.88184
783.53094
791.3833
798.31951
804.28103
809.24156
813.20749
816.18507
818.16894
819.15968
734.97301
747.39997
759.45144
770.58849
780.5978
789.40365
796.98935
803.38679
808.64143
812.79969
815.90231
817.96341
818.99295
717.25864
735.50801
751.64208
765.50266
777.29312
787.24911
795.58398
802.47045
808.04651
812.41873
815.66125
817.80329
818.86827
696.33241
724.15415
745.12584
761.60021
774.89195
785.73312
794.61813
801.84855
807.65108
812.18486
815.51546
817.70518
818.7916
696.13862
723.97801
744.9616
761.45239
774.75057
785.61121
794.51336
801.76131
807.58317
812.12412
815.46151
817.65633
818.74655
716.62875
734.91897
751.11312
765.02108
776.84201
786.85051
795.23411
802.16852
807.80083
812.22716
815.49772
817.65736
818.73279
734.00281
746.49773
758.63295
769.85077
779.92068
788.78055
796.42731
802.89086
808.22152
812.46044
815.61913
817.71353
818.75934
745.60956
755.03036
764.65198
773.97653
782.68872
790.60258
797.60915
803.65008
808.70453
812.76746
815.81613
817.84676
818.86325
751.36007
759.44378
767.89444
776.28086
784.28609
791.68759
798.33821
804.1422
809.03476
812.98182
815.9597
817.95466
818.95729
)
;
        refGradient     uniform 0;
        valueFraction   uniform 0.99248593;
        value           nonuniform List<scalar> 
130
(
754.08491
761.97358
770.21551
778.45975
786.34366
793.62864
800.15779
805.82177
810.56925
814.41002
817.29374
819.21964
820.17968
748.24021
757.49334
766.92072
776.08524
784.67685
792.47995
799.37137
805.29863
810.21923
814.15623
817.12244
819.09539
820.07678
736.5036
748.83604
760.78955
771.82326
781.75669
790.51656
798.05275
804.40526
809.62127
813.74519
816.83309
818.88604
819.91321
718.85459
736.98177
752.99858
766.7565
778.47331
788.36578
796.64619
803.48546
809.01994
813.35851
816.59651
818.73189
819.79029
697.98514
725.63658
746.46964
762.8379
776.08312
786.84759
795.68964
802.86322
808.61889
813.1556
816.46693
818.64221
819.71963
697.81318
725.50422
746.33105
762.72369
775.95211
786.74704
795.60494
802.79485
808.57946
813.10179
816.41702
818.59557
819.67851
718.22064
736.38588
752.49034
766.29319
778.00554
787.9776
796.30958
803.18959
808.79067
813.2003
816.44924
818.59494
819.66498
735.50941
747.91695
759.96635
771.10063
781.0922
789.89187
797.48872
803.90073
809.19186
813.41213
816.55451
818.63438
819.67466
747.05348
756.39682
765.95089
775.19996
783.83904
791.69245
798.64958
804.64432
809.66204
813.71662
816.75176
818.76872
819.77967
752.74402
760.77228
769.16313
777.48043
785.42089
792.76399
799.3679
805.13803
809.99924
813.92351
816.88624
818.87388
819.87819
)
;
        Tnbr            T;
        thicknessLayers List<scalar> 0();
        kappaLayers     List<scalar> 0();
        kappaMethod     fluidThermo;
        kappa           none;
        alphaAni        none;
        alpha           none;
        field           T;
    }
    bottomWater_to_leftSolid
    {
        type            compressible::turbulentTemperatureCoupledBaffleMixed;
        refValue        nonuniform List<scalar> 
130
(
893.70356
893.65191
893.55476
893.4295
893.28185
893.12066
892.95315
892.77604
892.58823
892.3913
892.19585
892.04046
891.94757
893.74232
893.6917
893.58917
893.43611
893.26371
893.08124
892.89306
892.69683
892.49276
892.28965
892.09831
891.94107
891.84324
893.80742
893.75457
893.64418
893.47295
893.24791
893.01596
892.78946
892.56342
892.33485
892.11515
891.91113
891.73969
891.62579
893.88302
893.82672
893.70659
893.52079
893.26791
892.96519
892.6756
892.39466
892.1177
891.85922
891.62148
891.41713
891.25339
893.97425
893.90898
893.77358
893.56896
893.3013
892.9786
892.64361
892.29511
891.9196
891.59147
891.30339
891.06985
890.90175
894.06632
893.99163
893.84408
893.62178
893.35672
893.04997
892.69852
892.31141
891.87539
891.50676
891.1966
890.9605
890.7981
894.14361
894.07243
893.92854
893.70869
893.45403
893.16087
892.8242
892.43976
891.99074
891.62412
891.31917
891.09851
890.97537
894.21932
894.16357
894.04758
893.86903
893.62581
893.35278
893.05505
892.71543
892.32588
891.98587
891.71023
891.49699
891.37976
894.28287
894.23789
894.14245
893.99256
893.78586
893.52115
893.2404
892.93421
892.60317
892.29523
892.04805
891.86314
891.75855
894.32191
894.28141
894.1959
894.06157
893.87558
893.63917
893.35876
893.06062
892.76262
892.47688
892.23486
892.04586
891.93877
)
;
        refGradient     uniform 0;
        valueFraction   uniform 0.99248593;
        value           nonuniform List<scalar> 
130
(
894.30849
894.24618
894.13325
894.0005
893.84263
893.67801
893.51595
893.34416
893.16163
892.96463
892.7426
892.57386
892.46677
894.34193
894.28656
894.17913
893.99436
893.81339
893.62978
893.44424
893.24935
893.04355
892.84069
892.64524
892.48169
892.37251
894.40234
894.34804
894.23701
894.05693
893.78064
893.53677
893.31592
893.09688
892.86794
892.65467
892.45288
892.28023
892.15533
894.47136
894.41725
894.29703
894.1109
893.83773
893.4673
893.16857
892.88684
892.60603
892.35664
892.12372
891.92569
891.68434
894.57374
894.50764
894.36767
894.1542
893.86959
893.50189
893.15368
892.79354
892.3337
891.99473
891.68784
891.43941
891.20409
894.68619
894.60107
894.4445
894.1867
893.91215
893.60378
893.23047
892.8253
892.27485
891.88954
891.55514
891.31121
891.08195
894.75963
894.67929
894.52237
894.25266
893.99409
893.69854
893.35245
892.95743
892.36318
891.98904
891.65358
891.42275
891.2959
894.82609
894.76844
894.64949
894.46946
894.18701
893.9075
893.62222
893.28379
892.80572
892.43616
892.15927
891.91077
891.7818
894.88611
894.83983
894.74346
894.59205
894.3833
894.0739
893.79713
893.49013
893.12155
892.78796
892.53892
892.34271
892.2281
894.92551
894.8823
894.79571
894.66107
894.47278
894.23258
893.92366
893.60642
893.30361
893.00128
892.74168
892.51373
892.39003
)
;
        Tnbr            T;
        thicknessLayers List<scalar> 0();
        kappaLayers     List<scalar> 0();
        kappaMethod     fluidThermo;
        kappa           none;
        alphaAni        none;
        alpha           none;
        field           T;
    }
    bottomWater_to_heater
    {
        type            compressible::turbulentTemperatureCoupledBaffleMixed;
        refValue        nonuniform List<scalar> 
92
(
733.55337
735.63452
739.70997
745.52132
724.09914
726.54718
731.37375
738.29177
704.20595
707.38789
713.79765
723.23703
345.73335
342.95649
342.96807
345.68419
422.55038
419.17251
419.36984
422.94501
488.04983
485.28
485.99734
489.74599
543.71666
542.06481
544.0047
548.51087
671.88714
589.72793
675.89517
589.99754
684.50975
594.66392
698.37837
602.27038
345.73335
345.68419
422.55038
422.94501
488.04983
489.74599
543.71666
548.51087
589.72793
602.27038
345.65951
345.65951
342.91376
342.94597
345.66679
345.66679
422.449
422.449
419.10138
419.32814
422.91312
422.91312
487.99816
487.99816
485.21893
485.95048
489.70342
489.70342
543.65483
543.65483
542.00362
543.94446
548.45124
548.45124
589.63457
589.63457
589.91802
594.58278
602.19301
602.19301
671.23378
675.25066
683.85721
697.72753
703.1508
706.34914
712.76475
722.22496
722.79836
725.25418
730.08726
737.04854
732.18226
734.27202
738.32759
744.155
)
;
        refGradient     uniform 0;
        valueFraction   nonuniform List<scalar> 
92
(
0.99248593
0.99248593
0.99248593
0.99248593
0.99248593
0.99248593
0.99248593
0.99248593
0.99248593
0.99248593
0.99248593
0.99248593
0.99248593
0.99248593
0.99248593
0.99248593
0.99248593
0.99248593
0.99248593
0.99248593
0.99248593
0.99248593
0.99248593
0.99248593
0.99248593
0.99248593
0.99248593
0.99248593
0.99248593
0.99248593
0.99248593
0.99248593
0.99248593
0.99248593
0.99248593
0.99248593
0.99248593
0.99248593
0.99248593
0.99248593
0.99248593
0.99248593
0.99248593
0.99248593
0.99248593
0.99248593
0.99248593
0.99248593
0.99248593
0.99248593
0.99248593
0.99248593
0.99248593
0.99248593
0.99248593
0.99248593
0.99248593
0.99248593
0.99248593
0.99248593
0.99248593
0.99248593
0.99248593
0.99248593
0.99248593
0.99248593
0.99248593
0.99248593
0.99248593
0.99248593
0.99248593
0.99248593
0.99248593
0.99248593
0.99248593
0.99248593
0.99248593
0.99248593
0.99248593
0.99248593
0.99248593
0.99248593
0.99248593
0.99248593
0.99248593
0.99248593
0.99248593
0.99248593
0.99248593
0.99248593
0.99248593
0.99248593
)
;
        value           nonuniform List<scalar> 
92
(
735.22392
737.25295
741.2674
747.01387
725.83394
728.21291
732.97262
739.80619
706.02245
709.13833
715.49039
724.85203
350.21828
347.42982
347.39705
350.0526
426.46913
423.10219
423.2468
426.76228
491.39309
488.69264
489.37313
493.06512
546.63609
545.01541
546.93711
551.40272
673.81159
592.26973
677.77438
592.52218
686.34494
597.17422
700.11511
604.72928
350.23674
350.00447
426.45266
426.6813
491.36994
492.95752
546.62979
551.25035
592.29331
604.62989
350.13311
350.00495
347.30515
347.34509
349.97272
350.0395
426.33106
426.22775
422.92841
423.16703
426.64471
426.71074
491.35605
491.29498
488.55686
489.29338
492.91091
492.99126
546.56359
546.54206
544.91178
546.82579
551.19797
551.28077
592.1814
592.17617
592.46096
597.08394
604.57348
604.63743
673.16224
677.1524
685.68755
699.45409
704.91448
708.08732
714.43868
723.82037
724.46024
726.86727
731.63289
738.54952
733.8243
735.89588
739.84885
745.60824
)
;
        Tnbr            T;
        thicknessLayers List<scalar> 0();
        kappaLayers     List<scalar> 0();
        kappaMethod     fluidThermo;
        kappa           none;
        alphaAni        none;
        alpha           none;
        field           T;
    }
}


// ************************************************************************* //
