/*--------------------------------*- C++ -*----------------------------------*\
| =========                 |                                                 |
| \\      /  F ield         | OpenFOAM: The Open Source CFD Toolbox           |
|  \\    /   O peration     | Version:  v2012                                 |
|   \\  /    A nd           | Website:  www.openfoam.com                      |
|    \\/     M anipulation  |                                                 |
\*---------------------------------------------------------------------------*/
FoamFile
{
    version     2.0;
    format      ascii;
    class       surfaceScalarField;
    location    "610/topAir";
    object      phi;
}
// * * * * * * * * * * * * * * * * * * * * * * * * * * * * * * * * * * * * * //

dimensions      [1 0 -1 0 0 0 0];
oriented        oriented;


internalField   nonuniform List<scalar> 
3140
(
9.5040406e-06
-3.0741769e-07
7.2352797e-08
9.6901317e-06
-2.6839778e-07
8.2308191e-08
9.8671109e-06
-2.4835037e-07
7.1376e-08
1.0009183e-05
-1.9568053e-07
5.3614012e-08
1.0110456e-05
-1.3164908e-07
3.0378626e-08
1.0180773e-05
-7.2845599e-08
2.5263492e-09
1.0254966e-05
-2.5557032e-08
-4.8644151e-08
1.0355058e-05
1.6937333e-08
-1.1704181e-07
1.0490573e-05
8.1136892e-08
-2.1666502e-07
1.0685342e-05
1.6506286e-07
-3.5983867e-07
1.0935078e-05
3.1250677e-07
-5.6223643e-07
1.1210031e-05
5.6245389e-07
-8.3738404e-07
1.1453719e-05
9.4533214e-07
-1.1889914e-06
1.1676714e-05
1.3943116e-06
-1.6172839e-06
1.1848512e-05
1.8962429e-06
-2.068021e-06
1.1951759e-05
2.385421e-06
-2.4886163e-06
1.1972899e-05
2.8178023e-06
-2.8388031e-06
1.1912573e-05
3.1656166e-06
-3.1050205e-06
1.1795178e-05
3.4103631e-06
-3.2925593e-06
1.1662508e-05
3.545965e-06
-3.4127722e-06
1.1554179e-05
3.5854262e-06
-3.4764958e-06
1.1493914e-05
3.5535211e-06
-3.4926055e-06
1.1487942e-05
3.4744535e-06
-3.4677826e-06
1.1529138e-05
3.3667351e-06
-3.4071624e-06
1.1599878e-05
3.2436453e-06
-3.313507e-06
1.1663417e-05
3.1203197e-06
-3.1828341e-06
1.1639817e-05
3.0241526e-06
-2.9993553e-06
1.1362544e-05
3.0116219e-06
-2.7329652e-06
1.0488611e-05
3.213167e-06
-2.3376737e-06
3.9631674e-06
-1.7572371e-06
9.1116527e-06
-2.2972962e-07
7.9628375e-08
9.083208e-06
-3.4360278e-07
1.0364969e-07
9.087136e-06
-3.6205448e-07
1.0977634e-07
9.1370586e-06
-3.5676642e-07
1.1116299e-07
9.23158e-06
-3.3343725e-07
1.0726555e-07
9.3650431e-06
-3.0222224e-07
9.5910874e-08
9.540962e-06
-2.7630441e-07
7.4827641e-08
9.7762059e-06
-2.5945845e-07
4.1223828e-08
1.0096027e-05
-2.2983239e-07
-8.6185548e-09
1.0534179e-05
-1.7107714e-07
-1.0163858e-07
1.1115843e-05
-3.1200376e-08
-2.3778473e-07
1.1828079e-05
2.8452691e-07
-4.3475368e-07
1.2567687e-05
9.1030965e-07
-7.0582977e-07
1.3214218e-05
1.770309e-06
-1.0243413e-06
1.3697073e-05
2.7404899e-06
-1.3290322e-06
1.3955696e-05
3.6814613e-06
-1.5563067e-06
1.3981314e-05
4.4801521e-06
-1.6891021e-06
1.3818695e-05
5.098672e-06
-1.771053e-06
1.3549963e-05
5.5280626e-06
-1.8491939e-06
1.32654e-05
5.775182e-06
-1.9446413e-06
1.3024802e-05
5.8650885e-06
-2.0388969e-06
1.2850537e-05
5.8349173e-06
-2.1068373e-06
1.2742048e-05
5.7173993e-06
-2.1340309e-06
1.268688e-05
5.5355213e-06
-2.1130505e-06
1.2667341e-05
5.299693e-06
-2.0357986e-06
1.2648686e-05
5.0243127e-06
-1.8845022e-06
1.2555813e-05
4.7449644e-06
-1.6269967e-06
1.2243338e-05
4.5483386e-06
-1.2231921e-06
1.1472556e-05
4.6175368e-06
-6.3240642e-07
5.1864512e-06
2.1194169e-07
9.168151e-06
-2.1060641e-07
8.1686564e-08
8.997002e-06
-2.8027278e-07
1.0781868e-07
8.8114798e-06
-2.9364873e-07
1.1711599e-07
8.6239426e-06
-2.9306892e-07
1.2383929e-07
8.4468723e-06
-2.8541369e-07
1.2904623e-07
8.2855694e-06
-2.7316798e-07
1.3224817e-07
8.1369711e-06
-2.6189382e-07
1.3418732e-07
7.9980553e-06
-2.5758799e-07
1.3704768e-07
7.8872507e-06
-2.6300642e-07
1.439863e-07
7.8482971e-06
-2.8625125e-07
1.5413765e-07
8.0019372e-06
-3.4316901e-07
1.5830428e-07
8.5186244e-06
-3.6523745e-07
1.3255373e-07
9.4432595e-06
-7.1515924e-08
5.5341106e-08
1.0650522e-05
5.9583281e-07
-3.5695753e-08
1.1718697e-05
1.7357612e-06
-6.6911137e-08
1.25051e-05
2.8584519e-06
3.3235234e-08
1.291914e-05
3.7082653e-06
3.5507831e-07
1.3026311e-05
4.314472e-06
6.7507844e-07
1.2949119e-05
4.7159728e-06
8.8810256e-07
1.2814352e-05
4.9408962e-06
9.684686e-07
1.2697761e-05
5.0098927e-06
9.7161728e-07
1.2613694e-05
4.9451936e-06
9.7390756e-07
1.2551983e-05
4.7816639e-06
9.9777427e-07
1.2488028e-05
4.5513945e-06
1.0485844e-06
1.2412277e-05
4.2807725e-06
1.0953252e-06
1.2309804e-05
3.9863663e-06
1.1412062e-06
1.2155306e-05
3.6978547e-06
1.2025113e-06
1.1916277e-05
3.4831027e-06
1.3052832e-06
1.151645e-05
3.5071254e-06
1.5113923e-06
4.118298e-06
1.7740186e-06
8.9785628e-06
7.9783318e-08
8.5936076e-06
1.0468205e-07
8.1871261e-06
1.1283256e-07
7.7762018e-06
1.1785508e-07
7.369633e-06
1.2115485e-07
6.9737881e-06
1.2267652e-07
6.5883129e-06
1.2358122e-07
6.2046194e-06
1.2610538e-07
5.8076446e-06
1.339687e-07
5.3688442e-06
1.5254954e-07
4.8327557e-06
1.9291775e-07
4.191231e-06
2.7626015e-07
3.692952e-06
4.2664615e-07
3.6500622e-06
6.3752276e-07
4.3993319e-06
9.8460291e-07
5.6013068e-06
1.6546275e-06
6.6284179e-06
2.6797289e-06
7.4284509e-06
3.5136708e-06
8.0753348e-06
4.0689751e-06
8.6409521e-06
4.3756422e-06
9.1488586e-06
4.5026232e-06
9.5978989e-06
4.4969249e-06
9.9635708e-06
4.4168311e-06
1.0226228e-05
4.2896184e-06
1.0376948e-05
4.1309714e-06
1.0434745e-05
3.9295271e-06
1.0435109e-05
3.6984906e-06
1.0490105e-05
3.4291522e-06
1.0911702e-05
3.0866332e-06
2.275531e-06
9.6160967e-06
-3.0715588e-07
3.2387753e-08
9.9176361e-06
-2.696849e-07
5.045307e-08
1.0198118e-05
-2.6239862e-07
5.3293002e-08
1.0430909e-05
-2.2743979e-07
4.8261481e-08
1.0609403e-05
-1.8566443e-07
3.7544226e-08
1.0746032e-05
-1.540131e-07
1.9894907e-08
1.0844965e-05
-1.4031856e-07
-7.2877829e-09
1.0914649e-05
-1.4820386e-07
-3.8567405e-08
1.0965242e-05
-1.8345108e-07
-8.3865542e-08
1.1005229e-05
-2.5293195e-07
-1.4695438e-07
1.1044324e-05
-3.6773519e-07
-2.3365129e-07
1.1094632e-05
-5.3893699e-07
-3.4882753e-07
1.1175796e-05
-7.7778612e-07
-4.9254886e-07
1.1371119e-05
-1.1502546e-06
-6.6273599e-07
1.1675785e-05
-1.545663e-06
-8.2757721e-07
1.2039218e-05
-1.8782495e-06
-9.7431583e-07
1.2364076e-05
-2.0466065e-06
-1.1172878e-06
1.2575707e-05
-2.0399072e-06
-1.2765642e-06
1.2659693e-05
-1.9226175e-06
-1.4533817e-06
1.2655276e-05
-1.7768905e-06
-1.6307239e-06
1.2615285e-05
-1.6495873e-06
-1.7861253e-06
1.2579011e-05
-1.546935e-06
-1.9086229e-06
1.2563841e-05
-1.462055e-06
-1.9897768e-06
1.2573944e-05
-1.3896008e-06
-2.0267819e-06
1.2615769e-05
-1.331635e-06
-2.0225948e-06
1.2695346e-05
-1.2820769e-06
-1.9789188e-06
1.2802036e-05
-1.2216145e-06
-1.8826393e-06
1.2879055e-05
-1.0969671e-06
-1.7108159e-06
1.2799243e-05
-7.7885985e-07
-1.4763783e-06
1.3435619e-07
-1.2038151e-06
9.2366882e-06
-2.3130261e-07
3.6056056e-08
9.3553889e-06
-3.4774219e-07
6.3006077e-08
9.4998278e-06
-3.7151684e-07
7.4455339e-08
9.6834477e-06
-3.7698583e-07
7.7088163e-08
9.9022306e-06
-3.7075865e-07
7.3574572e-08
1.0144039e-05
-3.6269101e-07
6.2776141e-08
1.040064e-05
-3.645077e-07
4.2408673e-08
1.0670015e-05
-3.8643424e-07
1.0070068e-08
1.0958213e-05
-4.3956331e-07
-4.0711314e-08
1.1261172e-05
-5.4308416e-07
-1.1445038e-07
1.1593188e-05
-7.193451e-07
-2.1820413e-07
1.1973024e-05
-9.9653849e-07
-3.5704555e-07
1.242937e-05
-1.4130195e-06
-5.2711711e-07
1.2947825e-05
-1.9911731e-06
-7.0220716e-07
1.3509822e-05
-2.5915964e-06
-8.4543946e-07
1.4010167e-05
-2.9636972e-06
-9.7135068e-07
1.4334224e-05
-2.9205819e-06
-1.1390219e-06
1.4442186e-05
-2.5548981e-06
-1.3635842e-06
1.4367813e-05
-2.079911e-06
-1.6169105e-06
1.4197161e-05
-1.6864847e-06
-1.8636762e-06
1.4006289e-05
-1.4215606e-06
-2.0751737e-06
1.3815537e-05
-1.2308657e-06
-2.2310404e-06
1.3627164e-05
-1.0943467e-06
-2.3119373e-06
1.3442371e-05
-1.0074151e-06
-2.3086512e-06
1.329707e-05
-1.0008211e-06
-2.2191672e-06
1.3256873e-05
-1.0764968e-06
-2.0474786e-06
1.3421659e-05
-1.2406404e-06
-1.7702164e-06
1.3997106e-05
-1.5162265e-06
-1.3768621e-06
1.5677916e-05
-1.97731e-06
-1.1124601e-06
-2.4511855e-06
-1.2382624e-06
9.2956205e-06
-2.1301496e-07
3.673917e-08
9.2748467e-06
-2.8403998e-07
6.4889922e-08
9.2412476e-06
-2.9931973e-07
7.8517574e-08
9.2069463e-06
-3.0302545e-07
8.4179784e-08
9.1826194e-06
-3.021941e-07
8.4808002e-08
9.1715617e-06
-2.992078e-07
7.9822086e-08
9.173417e-06
-3.0005459e-07
6.7878186e-08
9.1881062e-06
-3.1190174e-07
4.7825785e-08
9.2161795e-06
-3.4335436e-07
1.9704578e-08
9.2632939e-06
-4.1047078e-07
-2.5588664e-08
9.3452352e-06
-5.4177513e-07
-1.0120771e-07
9.4759936e-06
-7.8316314e-07
-2.1160279e-07
9.6771189e-06
-1.1983672e-06
-3.6051127e-07
9.977892e-06
-1.8177981e-06
-5.0989149e-07
1.0331835e-05
-2.436406e-06
-5.7571051e-07
1.063076e-05
-2.6974671e-06
-5.3109049e-07
1.0885531e-05
-2.39364e-06
-4.2550689e-07
1.1018814e-05
-1.7114439e-06
-3.0049344e-07
1.1045519e-05
-9.5193277e-07
-2.6569263e-07
1.0989449e-05
-2.9268443e-07
-3.6902289e-07
1.0938183e-05
6.615727e-08
-4.6445257e-07
1.0923138e-05
2.1606439e-07
-4.5730293e-07
1.0940678e-05
2.2629489e-07
-3.3930179e-07
1.0952954e-05
1.4727582e-07
-1.1680589e-07
1.0916115e-05
8.6978254e-10
1.3242149e-07
1.0825373e-05
-2.1090001e-07
3.6839184e-07
1.0745353e-05
-5.7594316e-07
6.1974477e-07
1.0757927e-05
-9.9612009e-07
7.7426327e-07
1.1354302e-05
-1.5064323e-06
4.4550239e-07
-2.0547757e-06
-7.2158619e-07
9.1000257e-06
3.5695098e-08
8.8580519e-06
6.2615569e-08
8.5962643e-06
7.5300227e-08
8.3309624e-06
8.0131174e-08
8.0700137e-06
7.9909201e-08
7.8193943e-06
7.4087711e-08
7.5814935e-06
6.1427231e-08
7.354852e-06
4.0844989e-08
7.1328431e-06
1.2623489e-08
6.9114593e-06
-3.653677e-08
6.6740293e-06
-1.114264e-07
6.3921377e-06
-2.2501242e-07
6.0379933e-06
-4.1757033e-07
5.5949765e-06
-7.3703038e-07
5.1727546e-06
-1.0281602e-06
4.9701777e-06
-8.3837446e-07
5.0335126e-06
2.2444625e-07
5.1239148e-06
1.7138431e-06
5.2965209e-06
2.9469913e-06
5.7054573e-06
3.6766916e-06
6.2197019e-06
4.0565824e-06
6.7307983e-06
4.2035634e-06
7.1621028e-06
4.2132841e-06
7.4796579e-06
4.1206714e-06
7.6869771e-06
3.9257489e-06
7.8277681e-06
3.5790195e-06
7.8730226e-06
3.0784292e-06
7.8608056e-06
2.4463289e-06
8.3467045e-06
1.0953082e-06
-1.6689662e-06
9.5934073e-06
-3.0910818e-07
1.7064548e-08
9.8857209e-06
-2.7031014e-07
2.8450924e-08
1.01653e-05
-2.5943617e-07
3.3155001e-08
1.0400288e-05
-2.1998727e-07
3.3265647e-08
1.0581035e-05
-1.7361461e-07
3.0416978e-08
1.0713086e-05
-1.373734e-07
2.5220394e-08
1.0803322e-05
-1.1540746e-07
1.7883591e-08
1.0863554e-05
-1.0713184e-07
8.3225556e-09
1.0899178e-05
-1.1513207e-07
-4.3842175e-09
1.0915628e-05
-1.4573961e-07
-1.7718278e-08
1.092284e-05
-2.0884606e-07
-3.2130002e-08
1.093756e-05
-3.2108897e-07
-4.2699653e-08
1.0992185e-05
-5.0866295e-07
-3.9002089e-08
1.1185944e-05
-8.5078955e-07
-6.3909374e-09
1.1458274e-05
-1.1965317e-06
9.6217449e-08
1.1711907e-05
-1.4560509e-06
2.2843968e-07
1.1878667e-05
-1.6316482e-06
3.4875945e-07
1.1956182e-05
-1.7872052e-06
4.3486074e-07
1.1965635e-05
-1.9451129e-06
4.8424834e-07
1.1933293e-05
-2.1019286e-06
5.0546574e-07
1.1890464e-05
-2.2535435e-06
5.1193493e-07
1.1851837e-05
-2.3866365e-06
5.1808255e-07
1.1808658e-05
-2.4804161e-06
5.351754e-07
1.174317e-05
-2.5256789e-06
5.659046e-07
1.1650956e-05
-2.5370116e-06
6.0852846e-07
1.1558864e-05
-2.5507039e-06
6.6625014e-07
1.1552796e-05
-2.6043282e-06
7.3060758e-07
1.1783381e-05
-2.6855348e-06
7.4738007e-07
1.2239011e-05
-2.4834216e-06
5.54905e-07
-1.3999172e-06
-5.5220623e-08
9.2086003e-06
-2.3116518e-07
1.8481864e-08
9.3145785e-06
-3.468934e-07
3.3611093e-08
9.4564436e-06
-3.6855627e-07
4.1710442e-08
9.6402655e-06
-3.7040347e-07
4.3682314e-08
9.8586349e-06
-3.5903625e-07
4.0625929e-08
1.0095914e-05
-3.4408797e-07
3.2209779e-08
1.0341468e-05
-3.3569294e-07
1.7135587e-08
1.0592133e-05
-3.4131527e-07
-6.4197537e-09
1.0846281e-05
-3.7000766e-07
-4.0001476e-08
1.110841e-05
-4.3549418e-07
-8.6862272e-08
1.1391324e-05
-5.6287185e-07
-1.4717804e-07
1.1725195e-05
-7.9751926e-07
-2.1468142e-07
1.216324e-05
-1.2069237e-06
-2.6728803e-07
1.2669244e-05
-1.7992317e-06
-2.6020713e-07
1.3105175e-05
-2.273262e-06
-2.0460683e-07
1.3302296e-05
-2.4200986e-06
-2.0384259e-07
1.324177e-05
-2.3986938e-06
-3.1057631e-07
1.3019631e-05
-2.4090492e-06
-5.1861802e-07
1.2692325e-05
-2.4341729e-06
-7.9948799e-07
1.2305109e-05
-2.4701006e-06
-1.1071404e-06
1.1892887e-05
-2.5317096e-06
-1.3834412e-06
1.1461753e-05
-2.6017309e-06
-1.583075e-06
1.0994485e-05
-2.6394928e-06
-1.6832693e-06
1.047492e-05
-2.6333735e-06
-1.6783967e-06
9.8973224e-06
-2.6226723e-06
-1.5523866e-06
9.3108384e-06
-2.7209299e-06
-1.2871168e-06
8.9763385e-06
-3.0439713e-06
-9.9267487e-07
9.3833641e-06
-3.6197723e-06
-8.4674508e-07
1.1017635e-05
-4.0467518e-06
-1.181033e-06
-3.6294702e-06
-1.9918205e-06
9.2685447e-06
-2.1270384e-07
1.8693856e-08
9.2357893e-06
-2.8339999e-07
3.4151614e-08
9.2003228e-06
-2.9760392e-07
4.30313e-08
9.167911e-06
-2.9974261e-07
4.5930341e-08
9.1469001e-06
-2.9682734e-07
4.3609416e-08
9.1382591e-06
-2.9097425e-07
3.5348882e-08
9.1386533e-06
-2.8751984e-07
1.9310209e-08
9.1449267e-06
-2.9258176e-07
-7.1817001e-09
9.1561787e-06
-3.1360348e-07
-4.7952854e-08
9.1690977e-06
-3.6492052e-07
-1.0908434e-07
9.1785343e-06
-4.7700188e-07
-1.9652402e-07
9.190909e-06
-7.0988407e-07
-3.1164018e-07
9.2482429e-06
-1.1864419e-06
-4.3835279e-07
9.3771331e-06
-1.9439252e-06
-4.9353033e-07
9.2800832e-06
-2.3382432e-06
-4.1157693e-07
8.80769e-06
-2.077261e-06
-3.9920401e-07
8.1376476e-06
-1.6004839e-06
-5.5224319e-07
7.6350445e-06
-1.4347004e-06
-7.7145104e-07
7.1620414e-06
-1.1503164e-06
-1.0757534e-06
6.6419449e-06
-9.2124031e-07
-1.3968835e-06
6.0842657e-06
-8.1967604e-07
-1.6175023e-06
5.5382199e-06
-8.4177248e-07
-1.6690831e-06
5.0513917e-06
-9.4108074e-07
-1.5476861e-06
4.6713914e-06
-1.1038461e-06
-1.2621442e-06
4.3318525e-06
-1.3414789e-06
-8.0462738e-07
4.0143326e-06
-1.7036712e-06
-3.2713404e-07
4.0564034e-06
-2.226348e-06
-2.3673951e-07
4.6407865e-06
-3.0209369e-06
-4.0687456e-07
5.8244877e-06
-3.6159584e-06
-1.1680632e-06
-3.0039922e-06
-2.7865182e-06
9.073712e-06
1.8231692e-08
8.8198154e-06
3.3111948e-08
8.5560502e-06
4.1461237e-08
8.2925682e-06
4.3870258e-08
8.0346206e-06
4.1029098e-08
7.7856347e-06
3.2099037e-08
7.5446817e-06
1.4860143e-08
7.3069146e-06
-1.3969762e-08
7.0663581e-06
-6.042337e-08
6.8009709e-06
-1.3606951e-07
6.4713845e-06
-2.5884008e-07
6.0012652e-06
-4.6476421e-07
5.2291318e-06
-8.3166287e-07
3.9671713e-06
-1.416139e-06
2.4824644e-06
-1.8727277e-06
1.3653431e-06
-1.7915674e-06
1.4000147e-06
-1.4072924e-06
1.7519661e-06
-7.2271327e-08
2.1962226e-06
1.3559647e-06
2.711754e-06
2.2444121e-06
3.2544396e-06
2.6981964e-06
3.7391886e-06
2.8802821e-06
4.1005755e-06
2.9134605e-06
4.2660746e-06
2.8534994e-06
4.1302412e-06
2.7218839e-06
3.7143142e-06
2.2927061e-06
3.1724715e-06
1.3950189e-06
2.607425e-06
-8.7757589e-09
1.6855982e-06
-1.5987739e-06
-4.3039423e-06
9.5878332e-06
-3.093771e-07
7.5842595e-09
9.8727186e-06
-2.6986863e-07
1.3435391e-08
1.0146373e-05
-2.5723651e-07
1.6741323e-08
1.0376526e-05
-2.1482373e-07
1.7942275e-08
1.0552923e-05
-1.6356237e-07
1.7589031e-08
1.0681678e-05
-1.1948683e-07
1.5956086e-08
1.0772073e-05
-8.5588047e-08
1.3074486e-08
1.0832406e-05
-6.1012183e-08
8.9880606e-09
1.0870066e-05
-4.6197897e-08
4.1154627e-09
1.0896777e-05
-4.3883269e-08
-6.4178583e-10
1.0933263e-05
-6.3178284e-08
-5.6584926e-09
1.1018219e-05
-1.2496732e-07
-3.173232e-09
1.1217917e-05
-2.5642788e-07
1.6810849e-08
1.1580347e-05
-4.4799988e-07
7.8197348e-08
1.1950137e-05
-4.4134053e-07
1.6747656e-07
1.2205138e-05
-2.875857e-07
2.6162947e-07
1.2338828e-05
-1.4309911e-07
3.5946285e-07
1.2402074e-05
-9.7343864e-08
4.7066537e-07
1.2439425e-05
-1.5234391e-07
6.011801e-07
1.2484517e-05
-2.9021231e-07
7.5267107e-07
1.2553274e-05
-4.8107951e-07
9.2642807e-07
1.2630717e-05
-6.8259625e-07
1.1255163e-06
1.2681559e-05
-8.6339154e-07
1.3502752e-06
1.2686499e-05
-1.0254226e-06
1.589459e-06
1.2667963e-05
-1.182871e-06
1.8136953e-06
1.2647137e-05
-1.2861136e-06
1.9773887e-06
1.2576762e-05
-1.2112321e-06
2.0166824e-06
1.2245052e-05
-7.8480953e-07
1.8687962e-06
1.1215243e-05
1.0009672e-07
1.4888583e-06
2.4019093e-06
7.6312748e-07
9.2010693e-06
-2.3099302e-07
7.9975911e-09
9.2956489e-06
-3.4632954e-07
1.549245e-08
9.4267019e-06
-3.669256e-07
2.0346686e-08
9.5998882e-06
-3.6663138e-07
2.2303732e-08
9.8067645e-06
-3.5135882e-07
2.1545717e-08
1.0031353e-05
-3.2979658e-07
1.7929466e-08
1.0262804e-05
-3.1085685e-07
1.0948497e-08
1.0495622e-05
-3.0079354e-07
5.3234853e-10
1.0732826e-05
-3.0689923e-07
-1.652992e-08
1.0984663e-05
-3.4454966e-07
-3.8096297e-08
1.1282432e-05
-4.4641707e-07
-6.1862831e-08
1.1695826e-05
-6.7651352e-07
-7.6878415e-08
1.2341952e-05
-1.1114878e-06
-5.8974856e-08
1.3122633e-05
-1.5083869e-06
1.9182826e-08
1.3708141e-05
-1.3479374e-06
1.1675945e-07
1.4051624e-05
-9.6933521e-07
1.3501169e-07
1.4194414e-05
-7.1275804e-07
1.1703497e-07
1.4177132e-05
-6.7305339e-07
7.5219871e-08
1.4018951e-05
-7.9801385e-07
5.3144571e-09
1.3753229e-05
-1.035211e-06
-9.5125778e-08
1.3402247e-05
-1.2970264e-06
-2.1469904e-07
1.2953819e-05
-1.5187866e-06
-2.9594523e-07
1.2369727e-05
-1.6620859e-06
-2.9719986e-07
1.1647427e-05
-1.7604196e-06
-2.171531e-07
1.090777e-05
-1.9089918e-06
-8.2354797e-08
1.0427944e-05
-2.1331961e-06
4.3152741e-08
1.0409057e-05
-2.1996375e-06
1.7593176e-08
1.0816643e-05
-1.6980861e-06
-3.3634129e-07
1.1344638e-05
-5.920049e-07
-1.0104034e-06
1.1674964e-06
-1.7386329e-06
9.261349e-06
-2.1269182e-07
8.0044187e-09
9.2170541e-06
-2.8341234e-07
1.552892e-08
9.1698851e-06
-2.972777e-07
2.0551982e-08
9.1250899e-06
-2.9856133e-07
2.2655178e-08
9.089698e-06
-2.9411776e-07
2.1759833e-08
9.0635906e-06
-2.8573903e-07
1.7398259e-08
9.0417409e-06
-2.783911e-07
8.693435e-09
9.0182317e-06
-2.7831089e-07
-6.1560311e-09
8.9879873e-06
-2.9388113e-07
-3.0728862e-08
8.9448146e-06
-3.4347794e-07
-6.6989551e-08
8.8901348e-06
-4.7027717e-07
-1.1800288e-07
8.8608624e-06
-7.8122698e-07
-1.7770107e-07
9.0271147e-06
-1.5099666e-06
-2.0606374e-07
9.39552e-06
-2.238433e-06
-1.298553e-07
9.2673572e-06
-1.5988055e-06
-3.0309252e-08
8.7110408e-06
-7.9716059e-07
-1.444937e-08
8.0126061e-06
-4.3791119e-07
-1.2926357e-07
7.1820558e-06
-2.8376135e-07
-3.3104111e-07
6.3295382e-06
-4.3455977e-07
-5.8718038e-07
5.4452433e-06
-6.6972536e-07
-8.7811181e-07
4.5604675e-06
-9.0636879e-07
-1.1228653e-06
3.7375225e-06
-1.1304423e-06
-1.2332528e-06
2.9944878e-06
-1.3174599e-06
-1.1471878e-06
2.34308e-06
-1.5471439e-06
-8.2082512e-07
1.9232855e-06
-1.873334e-06
-4.1710435e-07
2.1521121e-06
-2.4169857e-06
-2.6956992e-07
3.1510134e-06
-2.6810556e-06
-7.5231996e-07
4.6292029e-06
-1.9856028e-06
-1.5956231e-06
6.1504464e-06
-8.1873756e-07
-2.460833e-06
5.7397575e-07
-3.2123801e-06
9.0667283e-06
7.7640209e-09
8.8014882e-06
1.4939397e-08
8.5260883e-06
1.9583161e-08
8.2501414e-06
2.1255572e-08
7.977245e-06
1.9807416e-08
7.7089398e-06
1.4664923e-08
7.4405176e-06
4.8910229e-09
7.1618963e-06
-1.3659587e-08
6.8527299e-06
-4.5137984e-08
6.4714679e-06
-9.8284943e-08
5.9341596e-06
-1.9180605e-07
5.0557203e-06
-3.6751212e-07
3.4501219e-06
-7.3527387e-07
1.093851e-06
-1.2886597e-06
-1.0721263e-06
-1.2902087e-06
-2.5352423e-06
-1.1244697e-06
-3.4151751e-06
-9.6593479e-07
-3.1601116e-06
-6.1098278e-07
-2.336188e-06
1.0035584e-07
-1.3998205e-06
6.4278982e-07
-5.8643266e-07
9.8274854e-07
1.319368e-08
1.1535377e-06
3.5889856e-07
1.2534107e-06
3.8361529e-07
1.2840849e-06
1.4677319e-08
1.2187118e-06
-7.5754078e-07
6.4773409e-07
-1.3715035e-06
-6.7296886e-07
-1.1960103e-06
-2.1709672e-06
-2.268955e-07
-3.3878903e-06
-4.1860831e-06
9.5849753e-06
-3.0975616e-07
1.3413343e-09
9.8661129e-06
-2.7031631e-07
2.6162357e-09
1.0136544e-05
-2.575411e-07
3.85721e-09
1.036416e-05
-2.1476657e-07
5.1022036e-09
1.0538293e-05
-1.6292653e-07
6.3919108e-09
1.0664647e-05
-1.1817457e-07
7.7863804e-09
1.0752056e-05
-8.3728975e-08
9.4006408e-09
1.0808799e-05
-5.9022308e-08
1.1263378e-08
1.0844142e-05
-4.4757698e-08
1.3498341e-08
1.0873426e-05
-4.6310297e-08
1.6283416e-08
1.092605e-05
-7.8278901e-08
1.9728414e-08
1.106674e-05
-1.6895253e-07
2.4489434e-08
1.1381068e-05
-3.2967998e-07
3.1233356e-08
1.1821819e-05
-4.0385315e-07
4.0973625e-08
1.2191748e-05
-2.5406054e-07
5.2371615e-08
1.2442465e-05
-5.3481968e-08
6.6082871e-08
1.2606537e-05
1.1120607e-07
8.5772012e-08
1.2716463e-05
2.4682038e-07
1.1543245e-07
1.2811074e-05
3.4876142e-07
1.5927503e-07
1.2927366e-05
4.1772313e-07
2.2010782e-07
1.308939e-05
4.7036465e-07
2.9551127e-07
1.328319e-05
5.5805976e-07
3.7518471e-07
1.3459706e-05
7.296726e-07
4.457314e-07
1.3570513e-05
9.8124304e-07
4.9926183e-07
1.3571303e-05
1.2819333e-06
5.3314083e-07
1.339889e-05
1.6055634e-06
5.4677541e-07
1.2915423e-05
1.9714297e-06
5.3162208e-07
1.1865784e-05
2.4517317e-06
4.698963e-07
9.84108e-06
3.1724888e-06
3.4424338e-07
4.5489509e-06
1.8504717e-07
9.1969069e-06
-2.3107079e-07
1.374507e-09
9.2856118e-06
-3.4647843e-07
2.9496399e-09
9.4107078e-06
-3.6695946e-07
4.6695161e-09
9.5780387e-06
-3.6635418e-07
6.5609818e-09
9.7785296e-06
-3.5054389e-07
8.6728069e-09
9.9954447e-06
-3.2827137e-07
1.1111463e-08
1.0217336e-05
-3.0870723e-07
1.4033969e-08
1.0440022e-05
-2.9864409e-07
1.7462085e-08
1.0664986e-05
-3.0777709e-07
2.1504034e-08
1.091039e-05
-3.5678709e-07
2.69112e-08
1.1227942e-05
-4.9222287e-07
3.4351791e-08
1.173757e-05
-8.0072134e-07
4.4854761e-08
1.2595683e-05
-1.3066238e-06
5.9280141e-08
1.3353821e-05
-1.2152081e-06
7.2465976e-08
1.3899194e-05
-7.6561719e-07
8.3407275e-08
1.4298769e-05
-4.0908015e-07
9.1761284e-08
1.4605329e-05
-1.7900333e-07
1.0379717e-07
1.4817768e-05
-6.3048388e-09
1.2195646e-07
1.4972941e-05
5.5512889e-08
1.5267368e-07
1.5114815e-05
-6.8120254e-09
2.0128435e-07
1.5296243e-05
-1.6145866e-07
2.5451857e-07
1.553724e-05
-2.453141e-07
2.8991207e-07
1.5790041e-05
-9.5238545e-08
3.0196447e-07
1.5968637e-05
3.1059514e-07
3.0232361e-07
1.5994824e-05
9.0408631e-07
2.9524671e-07
1.5793616e-05
1.59113e-06
2.8258307e-07
1.5226208e-05
2.3354994e-06
2.4140265e-07
1.4026232e-05
3.1954043e-06
1.3529348e-07
1.1929547e-05
4.295775e-06
-2.6532481e-08
5.8616884e-06
-2.912866e-07
9.2572092e-06
-2.1269897e-07
1.3841452e-09
9.2067549e-06
-2.8346903e-07
2.9734231e-09
9.1528674e-06
-2.9726948e-07
4.7491321e-09
9.1007805e-06
-2.9836777e-07
6.7553523e-09
9.056608e-06
-2.9367765e-07
9.0657211e-09
9.0189946e-06
-2.8510149e-07
1.1841434e-08
8.9816513e-06
-2.7790499e-07
1.5234101e-08
8.9363614e-06
-2.7881228e-07
1.9301521e-08
8.8726017e-06
-2.9921147e-07
2.4463319e-08
8.7814376e-06
-3.644002e-07
3.1781006e-08
8.6679765e-06
-5.394792e-07
4.269185e-08
8.6332016e-06
-1.0032902e-06
5.9596572e-08
9.1563816e-06
-2.1212822e-06
8.5803494e-08
9.3485547e-06
-1.6380526e-06
1.0282521e-07
9.090718e-06
-6.4092486e-07
1.0278067e-07
8.7957337e-06
-2.3901579e-07
1.0865447e-07
8.2977618e-06
5.9939411e-08
1.2834895e-07
7.6121253e-06
1.8602916e-07
1.613122e-07
6.7874813e-06
8.0828662e-08
2.1272386e-07
5.7732005e-06
-1.31472e-07
2.6022559e-07
4.6215726e-06
-4.0419034e-07
2.6952085e-07
3.6235623e-06
-7.2121698e-07
2.3785667e-07
3.2494092e-06
-1.0348271e-06
1.6361243e-07
3.9170179e-06
-1.2124381e-06
3.4571449e-08
5.6157974e-06
-1.0726092e-06
-1.3663006e-07
7.6342242e-06
-3.8555035e-07
-3.0610754e-07
9.0581821e-06
6.1502784e-07
-4.4867586e-07
9.5295289e-06
1.7546533e-06
-6.1956148e-07
9.2233319e-06
2.9807286e-06
-8.3495565e-07
4.4860853e-06
-1.0399416e-06
9.0626653e-06
1.3522409e-09
8.7912406e-06
2.894731e-09
8.5089306e-06
4.6234239e-09
8.2252291e-06
6.5890339e-09
7.9424796e-06
8.8789429e-09
7.6603195e-06
1.1723259e-08
7.3720742e-06
1.5231097e-08
7.0601552e-06
1.9446922e-08
6.690723e-06
2.5082827e-08
6.1946339e-06
3.3404563e-08
5.416892e-06
4.6462382e-08
3.9778987e-06
6.8297818e-08
1.0150055e-06
1.0845631e-07
-2.0437838e-06
1.5525148e-07
-4.0663898e-06
9.356901e-08
-5.4359491e-06
4.2196245e-09
-6.3079395e-06
-3.754204e-08
-6.6637596e-06
-7.1976725e-08
-6.3638023e-06
-1.2123421e-07
-5.667497e-06
-1.8511595e-07
-4.8375464e-06
-2.5083097e-07
-4.0714343e-06
-3.3292336e-07
-3.4174164e-06
-4.3431379e-07
-2.8337735e-06
-5.1089818e-07
-2.1522524e-06
-5.3472794e-07
-1.2420703e-06
-6.47717e-07
-5.9533336e-08
-1.2402264e-06
1.1139497e-06
-1.5886131e-06
2.4797319e-06
-1.7710189e-06
-1.829393e-06
9.585097e-06
-3.0975778e-07
-5.0213349e-09
9.8663954e-06
-2.7026551e-07
-8.4134842e-09
1.0137057e-05
-2.5745357e-07
-9.3429652e-09
1.0365008e-05
-2.1464646e-07
-8.1911946e-09
1.0539635e-05
-1.6276705e-07
-5.4537638e-09
1.0666825e-05
-1.1792371e-07
-1.4618392e-09
1.0755247e-05
-8.3320318e-08
4.3234495e-09
1.0813419e-05
-5.8434055e-08
1.1563564e-08
1.0850696e-05
-4.4149329e-08
2.0434878e-08
1.0882037e-05
-4.5746395e-08
3.0811617e-08
1.0938381e-05
-7.7629061e-08
4.1269483e-08
1.1084458e-05
-1.6813814e-07
4.7070024e-08
1.1404969e-05
-3.242661e-07
3.5728058e-08
1.1850383e-05
-3.9522874e-07
-9.033782e-09
1.2227969e-05
-2.4656892e-07
-7.9415947e-08
1.2501362e-05
-5.1052435e-08
-1.5784658e-07
1.2707077e-05
1.1900663e-07
-2.4036415e-07
1.2879208e-05
2.7805687e-07
-3.3603906e-07
1.3053747e-05
4.3579436e-07
-4.5226861e-07
1.3252556e-05
6.1659808e-07
-5.9651399e-07
1.3470957e-05
8.4662506e-07
-7.7082737e-07
1.367596e-05
1.1449966e-06
-9.7632128e-07
1.382637e-05
1.5015471e-06
-1.2080081e-06
1.3885972e-05
1.8866753e-06
-1.4491486e-06
1.3820928e-05
2.264735e-06
-1.669099e-06
1.3553528e-05
2.6363302e-06
-1.8251781e-06
1.2923601e-05
3.0221367e-06
-1.8641192e-06
1.1663842e-05
3.4498634e-06
-1.7241702e-06
9.3207366e-06
3.9921945e-06
-1.3088174e-06
5.0260777e-06
-6.2057988e-07
9.1970082e-06
-2.3105322e-07
-5.3691251e-09
9.2859711e-06
-3.4643136e-07
-9.8472169e-09
9.4114732e-06
-3.6686674e-07
-1.1418864e-08
9.5794184e-06
-3.6621182e-07
-9.8178151e-09
9.7809281e-06
-3.50336e-07
-5.2662823e-09
9.9994902e-06
-3.279173e-07
2.5455352e-09
1.0223388e-05
-3.0813504e-07
1.4955838e-08
1.044836e-05
-2.9786477e-07
3.1930652e-08
1.0677396e-05
-3.066233e-07
5.4965039e-08
1.092906e-05
-3.5499966e-07
8.4557473e-08
1.1256626e-05
-4.8893842e-07
1.1824229e-07
1.1779896e-05
-7.9265643e-07
1.4642702e-07
1.264648e-05
-1.2770683e-06
1.4589712e-07
1.3420732e-05
-1.1833549e-06
8.6186684e-08
1.3984831e-05
-7.5189274e-07
2.4171185e-08
1.4421287e-05
-4.0139877e-07
4.998744e-09
1.476949e-05
-1.6155609e-07
3.343775e-08
1.5031976e-05
4.6189393e-08
8.679681e-08
1.5262649e-05
1.8950641e-07
1.6140888e-07
1.5507713e-05
3.082965e-07
2.5502264e-07
1.5772065e-05
4.8383992e-07
3.4123326e-07
1.599456e-05
8.1484721e-07
3.8468203e-07
1.6135597e-05
1.282899e-06
3.6676352e-07
1.6154649e-05
1.8633581e-06
2.9488767e-07
1.6037334e-05
2.4626562e-06
2.0457335e-07
1.5652218e-05
3.1410157e-06
1.5460444e-07
1.4782644e-05
3.8624249e-06
2.6363567e-07
1.3158172e-05
4.6405458e-06
5.6298833e-07
1.0452487e-05
5.5845825e-06
1.0809123e-06
6.9011935e-06
1.8083753e-06
9.257324e-06
-2.1268301e-07
-5.3493321e-09
9.2071276e-06
-2.8343599e-07
-9.8258659e-09
9.1536812e-06
-2.9720838e-07
-1.1463166e-08
9.1023118e-06
-2.9827222e-07
-9.8151813e-09
9.0594459e-06
-2.9353448e-07
-4.870208e-09
9.0238604e-06
-2.8481751e-07
4.3269301e-09
8.988975e-06
-2.7745045e-07
1.9434654e-08
8.947173e-06
-2.7826539e-07
4.1504207e-08
8.8897485e-06
-2.9838029e-07
7.3645945e-08
8.8098818e-06
-3.6292178e-07
1.1957498e-07
8.7175191e-06
-5.3629935e-07
1.8243362e-07
8.7211083e-06
-9.934587e-07
2.5684107e-07
9.2895158e-06
-2.072528e-06
3.1243124e-07
9.5312546e-06
-1.5875603e-06
2.6374804e-07
9.3436367e-06
-6.403401e-07
1.7893858e-07
9.1300651e-06
-2.7980453e-07
2.0193453e-07
8.8151783e-06
-1.0490142e-08
2.9383479e-07
8.4490332e-06
1.0781105e-07
4.660965e-07
8.1345141e-06
3.3059195e-08
6.820095e-07
7.8734822e-06
-1.0530918e-07
9.3184187e-07
7.8277554e-06
-3.3396487e-07
1.1293169e-06
8.1857198e-06
-4.78656e-07
1.1698817e-06
9.0060319e-06
-4.3472491e-07
1.058012e-06
1.0019008e-05
-3.2467205e-08
9.1307443e-07
1.108668e-05
4.9259863e-07
7.5944961e-07
1.1723551e-05
1.4849674e-06
7.0596769e-07
1.1720968e-05
2.3775989e-06
1.0314564e-06
1.0850547e-05
3.27563e-06
1.6085012e-06
8.906379e-06
4.3915725e-06
2.2948644e-06
5.8598462e-06
2.9701595e-06
9.0627893e-06
-5.1675785e-09
8.7916283e-06
-9.380546e-09
8.5097733e-06
-1.0730198e-08
8.2268469e-06
-8.7570977e-09
7.9456546e-06
-3.4634773e-09
7.6657145e-06
6.845462e-09
7.37996e-06
2.3534816e-08
7.0721332e-06
4.9007988e-08
6.710235e-06
8.8600039e-08
6.2289422e-06
1.5177419e-07
5.4823278e-06
2.5676974e-07
4.1125291e-06
4.4451449e-07
1.3224813e-06
8.2377023e-07
-1.5539528e-06
1.4215652e-06
-3.5055533e-06
1.4019213e-06
-4.8930087e-06
1.111375e-06
-5.7874637e-06
8.4627937e-07
-6.1427345e-06
3.91118e-07
-5.8955281e-06
-3.3591938e-07
-5.2211861e-06
-9.6781404e-07
-4.4394961e-06
-1.3698304e-06
-3.6701963e-06
-1.5837334e-06
-2.8461542e-06
-1.6947975e-06
-1.6208014e-06
-1.7687762e-06
2.0495849e-08
-1.6844092e-06
1.6438285e-06
-7.8850602e-07
2.430324e-06
3.4750268e-07
2.3862551e-06
1.7277255e-06
2.2237809e-06
2.7797101e-06
3.5210853e-06
9.5882638e-06
-3.0930367e-07
-1.5004741e-08
9.873763e-06
-2.695529e-07
-2.4355866e-08
1.0148277e-05
-2.5670336e-07
-2.7144112e-08
1.037957e-05
-2.1406435e-07
-2.5406898e-08
1.0557398e-05
-1.6256082e-07
-2.0702848e-08
1.0687811e-05
-1.1828094e-07
-1.3571462e-08
1.0780244e-05
-8.4183148e-08
-3.8986036e-09
1.0843323e-05
-5.9298372e-08
7.819292e-09
1.0885432e-05
-4.3614801e-08
2.1998491e-08
1.0918043e-05
-4.0342299e-08
3.8649086e-08
1.0962242e-05
-5.879619e-08
5.6082539e-08
1.1060091e-05
-1.1996624e-07
6.9626189e-08
1.1277365e-05
-2.4858696e-07
6.7782333e-08
1.1649256e-05
-4.1653639e-07
3.6163708e-08
1.2015795e-05
-3.9868394e-07
-4.7511043e-08
1.2278631e-05
-2.4265794e-07
-1.7919216e-07
1.2434584e-05
-9.9767811e-08
-2.9850938e-07
1.2534441e-05
-4.7536816e-08
-3.9093204e-07
1.261001e-05
-7.3033427e-08
-4.5804599e-07
1.2679336e-05
-1.5785801e-07
-5.1202457e-07
1.2752199e-05
-2.8112878e-07
-5.6746989e-07
1.2823088e-05
-4.1861141e-07
-6.343316e-07
1.2881378e-05
-5.5895062e-07
-7.1380637e-07
1.2926921e-05
-7.0275762e-07
-7.9907989e-07
1.2970919e-05
-8.3976162e-07
-8.8128919e-07
1.3002405e-05
-9.1043307e-07
-9.5534448e-07
1.2917847e-05
-7.8337563e-07
-1.0069475e-06