/*--------------------------------*- C++ -*----------------------------------*\
| =========                 |                                                 |
| \\      /  F ield         | OpenFOAM: The Open Source CFD Toolbox           |
|  \\    /   O peration     | Version:  v2012                                 |
|   \\  /    A nd           | Website:  www.openfoam.com                      |
|    \\/     M anipulation  |                                                 |
\*---------------------------------------------------------------------------*/
FoamFile
{
    version     2.0;
    format      ascii;
    class       volScalarField;
    location    "610/topAir";
    object      rho;
}
// * * * * * * * * * * * * * * * * * * * * * * * * * * * * * * * * * * * * * //

dimensions      [1 -3 0 0 0 0 0];


internalField   nonuniform List<scalar> 
1200
(
1.0687152
0.99717497
0.9402175
0.89309282
0.85277093
0.81747541
0.78622511
0.75868422
0.73480873
0.71415593
0.69650378
0.68183495
0.67054402
0.67110794
0.67503492
0.68228851
0.69199187
0.70279252
0.71338674
0.72283887
0.73063264
0.73657008
0.74064365
0.7429392
0.74358203
0.74267559
0.7402212
0.73600036
0.72935488
0.71918656
1.1565264
1.1525966
1.1472627
1.1407942
1.1333899
1.1252097
1.1163977
1.1062846
1.092692
1.0750415
1.0509602
1.0196963
0.98206709
0.94447057
0.9105086
0.88245447
0.8607374
0.84501728
0.83474013
0.82914151
0.82703258
0.8269991
0.82773971
0.82822673
0.82769378
0.82548156
0.82082781
0.81262674
0.79891484
0.77786183
1.1585735
1.1584417
1.1581972
1.1578163
1.1572787
1.1565676
1.1556697
1.1545556
1.1531421
1.1513354
1.148855
1.141035
1.1205441
1.0866366
1.0446453
1.0003952
0.95958289
0.92472037
0.89676366
0.87571831
0.86085672
0.85094332
0.84457615
0.84045113
0.83748052
0.83476855
0.83151625
0.82682958
0.81923171
0.806558
1.158618
1.1586136
1.1586031
1.1585825
1.1585467
1.1584898
1.1584046
1.1582818
1.1581085
1.1578643
1.1574999
1.1566988
1.1541138
1.1398981
1.1045557
1.0597489
1.0167333
0.97791716
0.94445547
0.91698234
0.89548993
0.8793374
0.86750308
0.85889166
0.85251871
0.84756961
0.84334443
0.83914512
0.83398788
0.8263456
1.0687372
0.99791643
0.94213559
0.8965193
0.85803445
0.824948
0.79629031
0.77153755
0.75051187
0.73329173
0.72021172
0.71178871
0.70889602
0.72229216
0.74050222
0.76087866
0.77973354
0.79453102
0.80469461
0.81103772
0.81471372
0.81654046
0.81691217
0.8159519
0.8137249
0.81024495
0.80539814
0.79868911
0.78861064
0.77192974
1.1565293
1.1526729
1.1475401
1.1414374
1.1346005
1.127227
1.1195141
1.1116769
1.103971
1.0967136
1.0903292
1.0853463
1.0823939
1.0822551
1.08381
1.0844821
1.0818114
1.0755244
1.0669375
1.0574658
1.0477071
1.0376451
1.0270683
1.0157247
1.0033944
0.98988225
0.97512946
0.95933675
0.94229703
0.92170355
1.1585737
1.1584454
1.1582136
1.1578619
1.1573792
1.1567588
1.156
1.1551094
1.1541025
1.1530113
1.1518907
1.1507421
1.1496056
1.1481392
1.1436226
1.1328546
1.1133923
1.0882188
1.0623453
1.0398089
1.0204466
1.0021479
0.98468765
0.96798265
0.95246318
0.93686292
0.92063097
0.90404318
0.88700475
0.86909068
1.158618
1.1586138
1.158604
1.1585853
1.1585542
1.1585063
1.1584373
1.1583423
1.1582166
1.158055
1.1578496
1.157561
1.1569146
1.1535676
1.1395626
1.1112842
1.075293
1.0335559
0.99348977
0.95912634
0.93231513
0.91264401
0.89736907
0.88497336
0.87453372
0.86647801
0.8600101
0.85446492
0.84907811
0.84049032
1.0687432
0.99779834
0.94187401
0.896103
0.85743711
0.82412265
0.7951108
0.76972998
0.74761684
0.72868778
0.7131565
0.70162927
0.69548648
0.70702737
0.72355159
0.74206014
0.76019178
0.7771542
0.79268178
0.80652834
0.81843934
0.82802602
0.83477852
0.83833301
0.83872111
0.83635608
0.8317915
0.82532331
0.81564326
0.79951259
1.1565291
1.1526599
1.1475037
1.1413708
1.1344946
1.127064
1.1192522
1.1112387
1.1032403
1.0955524
1.0886196
1.0831413
1.0801117
1.0803682
1.0815295
1.0808935
1.0781689
1.0739697
1.0683287
1.0611908
1.05238
1.0414811
1.0281214
1.0123494
0.99460646
0.9751213
0.95385464
0.93130855
0.90853572
0.88426124
1.1585736
1.1584448
1.1582118
1.1578583
1.1573737
1.1567515
1.1559905
1.1550957
1.1540818
1.1529813
1.151861
1.1508445
1.1500201
1.1477451
1.137873
1.1211119
1.1047866
1.0915079
1.0781569
1.0636975
1.0470958
1.0270825
1.0036318
0.97833355
0.95345397
0.9304224
0.90914508
0.88996605
0.86969909
0.84621315
1.158618
1.1586138
1.1586039
1.1585852
1.158554
1.1585063
1.1584377
1.1583438
1.1582202
1.1580629
1.157867
1.1575977
1.156666
1.1476819
1.1105483
1.0627799
1.0354692
1.0331846
1.0100485
0.98056068
0.95409705
0.9329977
0.91608471
0.90214893
0.89029034
0.88030765
0.87184439
0.86405717
0.84817181
0.81618659
1.06873
0.99773147
0.94170684
0.89578474
0.85688759
0.82321035
0.79363512
0.7674203
0.74408686
0.72338699
0.70538785
0.69067892
0.68065719
0.68679959
0.6922458
0.69453369
0.69430236
0.69339325
0.69346872
0.69561699
0.70021929
0.70687319
0.71472813
0.72304771
0.73129997
0.73834469
0.74215388
0.73967847
0.72752961
0.7116804
1.1565286
1.1526538
1.1474807
1.1413143
1.134379
1.1268474
1.1188664
1.1105786
1.1021519
1.0938431
1.0861201
1.0798513
1.0762068
1.0744818
1.0708559
1.0655737
1.0596075
1.0535788
1.0476703
1.041419
1.0339373
1.0242966
1.0119567
0.99706954
0.97996813
0.96020126
0.93977058
0.91930435
0.89436617
0.83914264
1.1585736
1.1584446
1.1582105
1.1578547
1.1573652
1.1567341
1.1559573
1.155036
1.1539801
1.1528195
1.1516309
1.1505748
1.1494425
1.1416842
1.1226433
1.1077491
1.0977664
1.0899285
1.0803346
1.066433
1.0469012
1.0213738
0.99140337
0.96067079
0.93176468
0.90449051
0.8841612
0.86814452
0.85128468
0.82933845
1.158618
1.1586137
1.1586038
1.158585
1.1585534
1.1585049
1.1584348
1.1583381
1.1582096
1.1580434
1.1578287
1.1574434
1.1546717
1.1214497
1.0371065
0.99270628
0.98898853
0.99033914
0.99117851
0.97576657
0.95672795
0.93860592
0.92142406
0.90771328
0.89447551
0.87793111
0.86263383
0.84455037
0.82531547
0.80083503
1.0687125
0.9976873
0.94162636
0.89566129
0.85671323
0.82297533
0.79333041
0.76704195
0.74364244
0.72295047
0.70521348
0.69132498
0.68260362
0.68951347
0.69270398
0.691574
0.68870764
0.68442776
0.67949391
0.6745114
0.67002223
0.66647754
0.6641832
0.66327446
0.66367174
0.6649553
0.66620748
0.66597212
0.66236735
0.65364472
1.1565281
1.1526504
1.1474697
1.1412894
1.1343326
1.1267697
1.1187464
1.1104058
1.1019294
1.0936202
1.0860818
1.0804298
1.0775588
1.0734131
1.0674927
1.0606935
1.0497179
1.0343434
1.0167517
0.99855311
0.98097779
0.96264555
0.94119108
0.91641872
0.88950471
0.86201516
0.83419497
0.80551244
0.77428043
0.73667915
1.1585736
1.1584444
1.1582099
1.1578528
1.1573611
1.1567261
1.1559432
1.1550129
1.1539463
1.1527798
1.1516146
1.1506318
1.1485306
1.1295346
1.1143302
1.1051416
1.0997515
1.0937814
1.0864583
1.0751715
1.0555476
1.0264141
0.99098498
0.95721678
0.93112818
0.91051672
0.88864699
0.86210904
0.82895181
0.78752994
1.158618
1.1586137
1.1586038
1.1585848
1.1585531
1.1585041
1.1584332
1.158335
1.1582037
1.1580322
1.1577994
1.1571771
1.1497575
1.048057
0.97856859
0.96597593
0.96039436
0.95500355
0.94749513
0.94059534
0.93152398
0.92090093
0.91005131
0.89995477
0.89049985
0.88119661
0.87376528
0.85236537
0.82552928
0.79332959
1.0687026
0.99767088
0.94160568
0.89563808
0.85668946
0.82295307
0.79331078
0.76702612
0.74363701
0.7229687
0.70527635
0.69146521
0.68274571
0.6894712
0.69236924
0.69093841
0.6878471
0.68329807
0.67800126
0.67248972
0.66723007
0.66264161
0.65907038
0.65674034
0.65566656
0.65551737
0.65545322
0.65409765
0.64968444
0.64034654
1.1565279
1.1526497
1.1474685
1.1412878
1.1343307
1.1267681
1.1187457
1.1104079
1.1019373
1.0936419
1.0861326
1.0805207
1.0775837
1.0733949
1.0674413
1.060541
1.0487412
1.0315772
1.0105254
0.98595611
0.95802721
0.92708197
0.8941639
0.86099809
0.82935555
0.80028474
0.77379072
0.74896596
0.72398277
0.69585832
1.1585736
1.1584444
1.1582098
1.1578528
1.157361
1.1567261
1.1559435
1.1550139
1.1539486
1.1527854
1.1516269
1.1506433
1.1484201
1.1307303
1.1161324
1.1070151
1.1019245
1.0958983
1.0874552
1.0745573
1.0545669
1.0282045
0.9982137
0.96725212
0.93343842
0.89829586
0.86255929
0.82620423
0.78791899
0.74565319
1.158618
1.1586137
1.1586038
1.1585848
1.1585531
1.1585042
1.1584333
1.1583352
1.158204
1.1580327
1.1577967
1.1571198
1.1493018
1.053281
0.98296169
0.9702457
0.96411283
0.95905086
0.95221358
0.94443124
0.93444551
0.9237426
0.91374547
0.9052755
0.89938346
0.88768263
0.87030615
0.84274802
0.80554668
0.76281679
1.0686972
0.99767686
0.94163634
0.89570263
0.8567984
0.82312138
0.79354989
0.76734017
0.74400577
0.72330236
0.70531084
0.69064069
0.6806312
0.68618983
0.69068061
0.69191883
0.69063024
0.68858442
0.68717036
0.68729579
0.6894107
0.69348652
0.69921948
0.70617838
0.71365425
0.72021065
0.72330407
0.72004432
0.71037659
0.69552154
1.1565278
1.1526515
1.1474767
1.1413085
1.1343718
1.1268394
1.1188584
1.1105723
1.1021508
1.0938532
1.0861587
1.0799494
1.0763168
1.0741275
1.0702133
1.0648187
1.0587763
1.0525702
1.0461996
1.039254
1.0310174
1.0208801
1.0086979
0.99472984
0.9790825
0.96149365
0.94182757
0.92010984
0.8834977
0.82134173
1.1585736
1.1584445
1.1582104
1.1578545
1.1573651
1.1567342
1.155958
1.1550378
1.1539842
1.1528284
1.15165
1.150607
1.1493616
1.1409815
1.1237279
1.110332
1.1013716
1.0940749
1.084982
1.0719434
1.0539454
1.0310177
1.0046195
0.97654184
0.94728822
0.91791856
0.89169896
0.86895442
0.84581084
0.81373045
1.158618
1.1586137
1.1586038
1.158585
1.1585534
1.158505
1.158435
1.1583386
1.1582104
1.158045
1.1578294
1.1574061
1.1541373
1.1181886
1.0422715
0.99741057
0.99375357
0.99400208
0.9918136
0.97450204
0.95411814
0.93541644
0.91888966
0.9037726
0.88875578
0.87336549
0.85701575
0.83755006
0.81372781
0.78675903
1.0686987
0.99772449
0.94178134
0.8959992
0.85732965
0.82402073
0.79501328
0.76964568
0.74755589
0.72865053
0.71314354
0.70165039
0.69552422
0.7066741
0.72226112
0.73950977
0.75648825
0.77258232
0.7875183
0.8010541
0.81302664
0.82317425
0.83105065
0.83617078
0.8382167
0.83717155
0.8332508
0.8265535
0.81553286
0.79743859
1.156528
1.1526568
1.1474984
1.1413637
1.1344866
1.1270566
1.1192474
1.111239
1.1032496
1.0955701
1.0886511
1.0831983
1.0801788
1.0801819
1.0808703
1.0799986
1.077368
1.0734487
1.0681642
1.061418
1.0530507
1.0426716
1.0298524
1.0144047
0.99640682
0.97612851
0.95404699
0.93105171
0.90716959
0.88035752
1.1585736
1.1584448
1.1582116
1.1578582
1.1573737
1.1567519
1.1559919
1.1550987
1.1540873
1.1529914
1.1518782
1.1508723
1.1500167
1.1473205
1.1375064
1.121962
1.1069203
1.0944119
1.0815347
1.0675485
1.0517034
1.0327664
1.0103618
0.98518462
0.95836844
0.93180942
0.90784244
0.88711507
0.86505839
0.8400109
1.158618
1.1586137
1.1586039
1.1585852
1.158554
1.1585064
1.158438
1.1583444
1.1582215
1.1580652
1.1578701
1.1575883
1.1564557
1.1458818
1.1094143
1.0647966
1.0397085
1.0379531
1.0139563
0.98262007
0.95448283
0.93237393
0.91485889
0.9004788
0.88818703
0.8778477
0.86911859
0.86064253
0.84114023
0.80841264
1.0686915
0.99784055
0.94204151
0.89641659
0.85792904
0.82484666
0.79621007
0.77148509
0.75048728
0.73329845
0.72023764
0.71180879
0.70889289
0.72217177
0.7402548
0.76055137
0.77946615
0.79437946
0.80456109
0.81075864
0.81419677
0.81581904
0.81616615
0.81546678
0.81375832
0.81090028
0.80659912
0.80023943
0.79014717
0.7726434
1.1565281
1.1526698
1.1475349
1.1414312
1.1345947
1.1272243
1.1195188
1.1116923
1.1039938
1.0967417
1.0903527
1.0853583
1.0823921
1.0822357
1.0837918
1.0845486
1.0821244
1.0760763
1.067592
1.0580996
1.0482867
1.0381553
1.0274982
1.0160056
1.0033744
0.98940088
0.97411047
0.95776916
0.9401457
0.91975532
1.1585736
1.1584453
1.1582135
1.1578619
1.1573795
1.15676
1.156003
1.1551152
1.1541124
1.1530253
1.1519087
1.1507609
1.1496051
1.1481712
1.1438317
1.1334438
1.1149238
1.0904298
1.0645829
1.0414802
1.0216946
1.0027543
0.98462649
0.96745057
0.9515187
0.93552775
0.91883763
0.90185953
0.88462782
0.86638044
1.158618
1.1586138
1.158604
1.1585854
1.1585543
1.1585066
1.1584378
1.1583434
1.1582188
1.1580589
1.1578566
1.1575756
1.1569501
1.1536754
1.1403654
1.1141017
1.0806454
1.0395681
0.99877531
0.9630678
0.93473778
0.91407244
0.89807444
0.8851153
0.87414798
0.86560569
0.85874609
0.85284425
0.84707666
0.83798893
1.0686726
0.99710599
0.9401354
0.89300811
0.85269095
0.81740899
0.78618979
0.7586967
0.73486974
0.71426428
0.69665004
0.68200118
0.67070171
0.67116554
0.67493206
0.68197475
0.6914605
0.70206778
0.71248849
0.72176981
0.72939307
0.73517979
0.73916193
0.74146511
0.74222212
0.74149745
0.73922785
0.73513045
0.72846645
0.71801425
1.1565253
1.1525938
1.1472585
1.1407896
1.1333874
1.1252127
1.1164094
1.10624
1.0925617
1.0746897
1.0503442
1.0192429
0.98218022
0.94526677
0.91178252
0.88391978
0.86217727
0.84625061
0.83559113
0.82947617
0.82680684
0.82625416
0.82658783
0.82681662
0.82615255
0.82387516
0.81918893
0.8109813
0.79724471
0.77612308
1.1585735
1.1584417
1.1581971
1.1578163
1.1572792
1.1565692
1.1556733
1.15456
1.1531447
1.1513298
1.1488362
1.1408968
1.1211588
1.0885797
1.0478508
1.0045997
0.9640864
0.92898703
0.90043342
0.87857508
0.8628214
0.85204859
0.84493119
0.84020442
0.83677893
0.83372665
0.83021075
0.82530316
0.81747568
0.80451637
1.158618
1.1586136
1.1586031
1.1585825
1.1585468
1.1584901
1.1584052
1.1582831
1.1581109
1.1578688
1.1575107
1.1567459
1.154453
1.1424576
1.1104229
1.0669945
1.0238831
0.98434525
0.94988901
0.92130562
0.89869748
0.88151538
0.86878861
0.85943672
0.85246771
0.84704025
0.84241923
0.83786499
0.83233184
0.82422335
)
;

boundaryField
{
    maxY
    {
        type            calculated;
        value           nonuniform List<scalar> 
300
(
1.1586174
1.1586174
1.1586174
1.1586174
1.1586174
1.1586174
1.1586174
1.1586174
1.1586174
1.1586174
1.1586131
1.1586132
1.1586132
1.1586132
1.1586132
1.1586132
1.1586132
1.1586132
1.1586132
1.1586131
1.1586026
1.1586034
1.1586034
1.1586033
1.1586032
1.1586032
1.1586033
1.1586033
1.1586034
1.1586026
1.1585819
1.1585848
1.1585846
1.1585844
1.1585843
1.1585843
1.1585844
1.1585847
1.1585848
1.158582
1.1585462
1.1585537
1.1585535
1.1585529
1.1585525
1.1585525
1.1585529
1.1585535
1.1585537
1.1585463
1.1584893
1.1585058
1.1585057
1.1585044
1.1585036
1.1585036
1.1585044
1.1585058
1.158506
1.1584896
1.158404
1.1584367
1.1584371
1.1584343
1.1584327
1.1584328
1.1584345
1.1584374
1.1584373
1.1584047
1.1582813
1.1583418
1.1583432
1.1583376
1.1583345
1.1583347
1.158338
1.1583439
1.1583429
1.1582826
1.158108
1.1582161
1.1582197
1.158209
1.1582032
1.1582035
1.1582099
1.158221
1.1582182
1.1581103
1.1578638
1.1580545
1.1580624
1.1580428
1.1580317
1.1580322
1.1580444
1.1580647
1.1580584
1.1578683
1.1574994
1.1578491
1.1578665
1.1578282
1.1577989
1.1577962
1.1578288
1.1578696
1.1578561
1.1575102
1.1566983
1.1575605
1.1575972
1.1574429
1.1571766
1.1571193
1.1574056
1.1575878
1.157575
1.1567454
1.1541133
1.1569141
1.1566654
1.1546712
1.149757
1.1493013
1.1541368
1.1564551
1.1569495
1.1544524
1.1398976
1.1535671
1.1476814
1.1214492
1.0480565
1.0532806
1.1181882
1.1458813
1.1536749
1.1424571
1.1045552
1.1395621
1.1105478
1.0371061
0.97856822
0.98296131
1.042271
1.1094139
1.1403649
1.1104224
1.0597485
1.1112837
1.0627795
0.99270589
0.96597557
0.97024533
0.99741018
1.0647962
1.1141013
1.066994
1.0167329
1.0752926
1.0354688
0.98898815
0.960394
0.96411246
0.99375319
1.0397081
1.0806449
1.0238827
0.97791679
1.0335555
1.0331842
0.99033875
0.95500319
0.9590505
0.99400169
1.0379526
1.0395677
0.98434487
0.94445512
0.99348939
1.0100481
0.99117813
0.94749478
0.95221322
0.99181322
1.0139559
0.99877492
0.94988866
0.91698201
0.95912598
0.9805603
0.97576619
0.940595
0.94443089
0.97450167
0.98261969
0.96306744
0.92130529
0.89548961
0.93231478
0.9540967
0.95672759
0.93152364
0.93444517
0.95411778
0.95448247
0.93473744
0.89869717
0.87933709
0.91264369
0.93299736
0.93860558
0.9209006
0.92374227
0.9354161
0.93237359
0.91407211
0.88151507
0.86750279
0.89736875
0.91608438
0.92142373
0.91005098
0.91374514
0.91888933
0.91485856
0.89807412
0.86878831
0.85889137
0.88497305
0.90214861
0.90771296
0.89995445
0.90527518
0.90377227
0.90047848
0.88511499
0.85943643
0.85251842
0.87453342
0.89029002
0.89447519
0.89049953
0.89938314
0.88875547
0.88818672
0.87414768
0.85246742
0.84756933
0.86647772
0.88030735
0.87793081
0.8811963
0.88768232
0.87336519
0.8778474
0.8656054
0.84703997
0.84334415
0.86000981
0.87184409
0.86263354
0.87376498
0.87030585
0.85701546
0.8691183
0.8587458
0.84241895
0.83914485
0.85446463
0.86405687
0.84455009
0.85236509
0.84274774
0.83754979
0.86064224
0.85284397
0.83786472
0.83398761
0.84907782
0.84817153
0.8253152
0.82552901
0.80554642
0.81372755
0.84113995
0.84707638
0.83233156
0.82634533
0.84049005
0.81618633
0.80083478
0.79332934
0.76281656
0.78675879
0.80841239
0.83798866
0.82422309
)
;
    }
    minX
    {
        type            calculated;
        value           nonuniform List<scalar> 
40
(
1.1586222
1.1586212
1.1586201
1.1586191
1.1586222
1.1586212
1.1586201
1.1586191
1.1586222
1.1586212
1.1586201
1.1586191
1.1586222
1.1586212
1.1586201
1.1586191
1.1586222
1.1586212
1.1586201
1.1586191
1.1586222
1.1586212
1.1586201
1.1586191
1.1586222
1.1586212
1.1586201
1.1586191
1.1586222
1.1586212
1.1586201
1.1586191
1.1586222
1.1586212
1.1586201
1.1586191
1.1586222
1.1586212
1.1586201
1.1586191
)
;
    }
    maxX
    {
        type            calculated;
        value           nonuniform List<scalar> 
40
(
0.71922783
0.77789749
0.80659152
0.82637529
0.77199586
0.92176325
0.86911582
0.84050531
0.79961088
0.88431096
0.84620717
0.8161611
0.71176457
0.83927553
0.82935154
0.80088506
0.65371157
0.73681594
0.78757027
0.79340614
0.64025491
0.69571846
0.74546787
0.76272282
0.69536414
0.82082998
0.81358578
0.78755994
0.79727142
0.8803458
0.84016616
0.80905692
0.7725106
0.91966115
0.86636869
0.8381279
0.71792006
0.7759854
0.80440862
0.82414504
)
;
    }
    minZ
    {
        type            calculated;
        value           nonuniform List<scalar> 
120
(
1.0687152
1.1565264
1.1585735
1.158618
0.99717497
1.1525966
1.1584417
1.1586136
0.9402175
1.1472627
1.1581972
1.1586031
0.89309282
1.1407942
1.1578163
1.1585825
0.85277093
1.1333899
1.1572787
1.1585467
0.81747541
1.1252097
1.1565676
1.1584898
0.78622511
1.1163977
1.1556697
1.1584046
0.75868422
1.1062846
1.1545556
1.1582818
0.73480873
1.092692
1.1531421
1.1581085
0.71415593
1.0750415
1.1513354
1.1578643
0.69650378
1.0509602
1.148855
1.1574999
0.68183495
1.0196963
1.141035
1.1566988
0.67054402
0.98206709
1.1205441
1.1541138
0.67110794
0.94447057
1.0866366
1.1398981
0.67503492
0.9105086
1.0446453
1.1045557
0.68228851
0.88245447
1.0003952
1.0597489
0.69199187
0.8607374
0.95958289
1.0167333
0.70279252
0.84501728
0.92472037
0.97791716
0.71338674
0.83474013
0.89676366
0.94445547
0.72283887
0.82914151
0.87571831
0.91698234
0.73063264
0.82703258
0.86085672
0.89548993
0.73657008
0.8269991
0.85094332
0.8793374
0.74064365
0.82773971
0.84457615
0.86750308
0.7429392
0.82822673
0.84045113
0.85889166
0.74358203
0.82769378
0.83748052
0.85251871
0.74267559
0.82548156
0.83476855
0.84756961
0.7402212
0.82082781
0.83151625
0.84334443
0.73600036
0.81262674
0.82682958
0.83914512
0.72935488
0.79891484
0.81923171
0.83398788
0.71918656
0.77786183
0.806558
0.8263456
)
;
    }
    maxZ
    {
        type            calculated;
        value           nonuniform List<scalar> 
120
(
1.0686726
1.1565253
1.1585735
1.158618
0.99710599
1.1525938
1.1584417
1.1586136
0.9401354
1.1472585
1.1581971
1.1586031
0.89300811
1.1407896
1.1578163
1.1585825
0.85269095
1.1333874
1.1572792
1.1585468
0.81740899
1.1252127
1.1565692
1.1584901
0.78618979
1.1164094
1.1556733
1.1584052
0.7586967
1.10624
1.15456
1.1582831
0.73486974
1.0925617
1.1531447
1.1581109
0.71426428
1.0746897
1.1513298
1.1578688
0.69665004
1.0503442
1.1488362
1.1575107
0.68200118
1.0192429
1.1408968
1.1567459
0.67070171
0.98218022
1.1211588
1.154453
0.67116554
0.94526677
1.0885797
1.1424576
0.67493206
0.91178252
1.0478508
1.1104229
0.68197475
0.88391978
1.0045997
1.0669945
0.6914605
0.86217727
0.9640864
1.0238831
0.70206778
0.84625061
0.92898703
0.98434525
0.71248849
0.83559113
0.90043342
0.94988901
0.72176981
0.82947617
0.87857508
0.92130562
0.72939307
0.82680684
0.8628214
0.89869748
0.73517979
0.82625416
0.85204859
0.88151538
0.73916193
0.82658783
0.84493119
0.86878861
0.74146511
0.82681662
0.84020442
0.85943672
0.74222212
0.82615255
0.83677893
0.85246771
0.74149745
0.82387516
0.83372665
0.84704025
0.73922785
0.81918893
0.83021075
0.84241923
0.73513045
0.8109813
0.82530316
0.83786499
0.72846645
0.79724471
0.81747568
0.83233184
0.71801425
0.77612308
0.80451637
0.82422335
)
;
    }
    topAir_to_rightSolid
    {
        type            calculated;
        value           nonuniform List<scalar> 
130
(
0.46177788
0.45686865
0.45183979
0.44696368
0.44243046
0.43835414
0.43478867
0.43175165
0.42925044
0.42727169
0.42580353
0.42483378
0.42435233
0.46538651
0.45958975
0.45381893
0.44836534
0.44340411
0.43902448
0.43524999
0.43207094
0.42947303
0.42743035
0.42592077
0.42492106
0.42442088
0.47279238
0.46490134
0.4574799
0.45084885
0.4450711
0.44013747
0.43599208
0.4325679
0.42980709
0.42765711
0.4260741
0.42503079
0.42451214
0.4842966
0.47228811
0.46214446
0.45378386
0.44692517
0.44131357
0.4367403
0.43304452
0.43010829
0.42784411
0.42618985
0.42510491
0.42456673
0.49865453
0.47950359
0.46602634
0.45598448
0.44822277
0.44209736
0.43721949
0.43333524
0.43027964
0.42794108
0.42624277
0.42513446
0.42458548
0.49858141
0.47942525
0.46595732
0.4559275
0.44818006
0.44206556
0.43719571
0.43331851
0.43026552
0.42792548
0.42622635
0.42511719
0.42456757
0.48415322
0.47213615
0.46201261
0.45367558
0.44684334
0.44124909
0.43668821
0.433001
0.43006886
0.42780514
0.42615008
0.42506494
0.42452621
0.47260743
0.46473299
0.45734723
0.45074041
0.44498926
0.4400729
0.43593799
0.43252048
0.42976158
0.42760969
0.42602464
0.42498007
0.42446016
0.4651792
0.45941223
0.45368021
0.44826687
0.44333919
0.4389783
0.43521077
0.43203721
0.42943882
0.42739293
0.42587583
0.4248708
0.42436911
0.46156104
0.45668461
0.45170979
0.44688647
0.44238986
0.4383323
0.43477276
0.43173807
0.4292334
0.42724947
0.42577364
0.42479294
0.42430238
)
;
    }
    topAir_to_heater
    {
        type            calculated;
        value           nonuniform List<scalar> 
40
(
0.4739363
0.4725859
0.4699499
0.46624468
0.48007467
0.47843489
0.47525317
0.47077088
0.49346007
0.49122319
0.48680929
0.48046159
0.51694802
0.51387347
0.50741758
0.49736264
0.55568062
0.5524647
0.54423935
0.5283849
0.55568815
0.55246619
0.5442255
0.52834204
0.51692543
0.51385658
0.5073794
0.49726481
0.49339387
0.49114907
0.48669934
0.48029757
0.47995026
0.47828458
0.47506643
0.47055867
0.47379668
0.47240505
0.46973599
0.46601698
)
;
    }
    topAir_to_leftSolid
    {
        type            calculated;
        value           nonuniform List<scalar> 
130
(
0.37753396
0.37755087
0.37758498
0.37764055
0.37772186
0.37781152
0.3779115
0.37802761
0.37814657
0.37825017
0.37834219
0.3784139
0.37845959
0.37753661
0.3775527
0.37758748
0.37764174
0.37771538
0.37780359
0.37789767
0.37800189
0.37811405
0.37821592
0.37830907
0.37838877
0.37845881
0.37752182
0.37753686
0.37757052
0.37762312
0.37769309
0.37777348
0.37785933
0.37795172
0.37805268
0.37815455
0.37826106
0.37834921
0.37841973
0.37747898
0.37749231
0.37752741
0.37758034
0.37764767
0.37772321
0.37780731
0.37790113
0.37800485
0.37811844
0.37823578
0.37833463
0.37840751
0.37741753
0.37743131
0.37746505
0.37751876
0.37758994
0.3776747
0.3777707
0.37787503
0.37798921
0.37811665
0.37825776
0.37837016
0.37844137
0.37738697
0.37740116
0.37743566
0.37749204
0.37757015
0.37767007
0.37778033
0.37789738
0.37802444
0.3781683
0.37833123
0.37846024
0.37853578
0.37737958
0.37739526
0.37743327
0.37749641
0.37758667
0.37770805
0.37783207
0.37796309
0.37810575
0.37825899
0.37842052
0.37856704
0.37864694
0.37738634
0.37740383
0.37744612
0.37751491
0.37761114
0.37773753
0.37787171
0.37801061
0.37815656
0.37830886
0.37846793
0.37861726
0.37870237
0.37739827
0.3774179
0.37746486
0.37754365
0.37764351
0.37775736
0.37788394
0.37802285
0.37817025
0.3783226
0.37847745
0.37861964
0.37871172
0.37740472
0.3774254
0.37747402
0.37755334
0.37765248
0.3777623
0.37788571
0.37802562
0.37817117
0.37831879
0.37846455
0.3785979
0.37869541
)
;
    }
}


// ************************************************************************* //
