/*--------------------------------*- C++ -*----------------------------------*\
| =========                 |                                                 |
| \\      /  F ield         | OpenFOAM: The Open Source CFD Toolbox           |
|  \\    /   O peration     | Version:  v2012                                 |
|   \\  /    A nd           | Website:  www.openfoam.com                      |
|    \\/     M anipulation  |                                                 |
\*---------------------------------------------------------------------------*/
FoamFile
{
    version     2.0;
    format      ascii;
    class       volScalarField;
    location    "610/topAir";
    object      T;
}
// * * * * * * * * * * * * * * * * * * * * * * * * * * * * * * * * * * * * * //

dimensions      [0 0 0 1 0 0 0];


internalField   nonuniform List<scalar> 
1200
(
325.23788
348.57137
369.68748
389.1943
407.59671
425.1952
442.09553
458.14397
473.03003
486.70966
499.04479
509.7811
518.36502
517.92943
514.91639
509.44217
502.29857
494.57915
487.23434
480.86307
475.73362
471.89877
469.3033
467.85323
467.44876
468.01928
469.5711
472.26401
476.56702
483.30503
300.54338
301.56808
302.97014
304.68805
306.67854
308.90807
311.34635
314.19252
318.10093
323.32364
330.73215
340.8724
353.93338
368.0224
381.74962
393.88582
403.82385
411.33631
416.40059
419.21225
420.28124
420.29825
419.92219
419.67526
419.94549
421.0709
423.45819
427.73175
435.07297
446.84832
300.01208
300.0462
300.10954
300.20828
300.34774
300.53241
300.76591
301.05614
301.42516
301.89817
302.54997
304.62346
310.19397
319.8733
332.73114
347.44871
362.22616
375.8823
387.60047
396.91533
403.76756
408.47141
411.55084
413.57077
415.03774
416.3861
418.0147
420.38411
424.28292
430.94982
300.00029
300.00142
300.00414
300.00948
300.01873
300.03347
300.05556
300.08735
300.13227
300.19555
300.29006
300.49804
301.17111
304.92702
314.68375
327.98877
341.86521
355.43477
368.02769
379.05395
388.15153
395.28148
400.67384
404.69109
407.71633
410.09706
412.15165
414.21417
416.7756
420.63006
325.23118
348.31238
368.93484
387.7068
405.09635
421.34367
436.5074
450.51158
463.13272
474.00861
482.61723
488.32832
490.32096
481.22712
469.39301
456.82259
445.77607
437.47385
431.94839
428.57013
426.6364
425.68194
425.48824
425.98898
427.15482
428.98941
431.57102
435.19623
440.75804
450.28253
300.54262
301.54812
302.89692
304.51634
306.35131
308.35523
310.47964
312.66849
314.85099
316.93446
318.79028
320.25386
321.1274
321.16857
320.70781
320.50903
321.30028
323.17845
325.77943
328.69742
331.75902
334.97606
338.42567
342.2052
346.41042
351.13899
356.45139
362.31932
368.87119
377.11281
300.01203
300.04525
300.10529
300.19645
300.32167
300.48273
300.67996
300.9118
301.17431
301.45934
301.75261
302.05382
302.35242
302.73858
303.93421
306.82314
312.18647
319.40818
327.18739
334.27871
340.62144
346.84102
352.99112
359.08287
364.93378
371.01051
377.55192
384.47942
391.86486
399.94214
300.00029
300.00138
300.00392
300.00874
300.0168
300.02919
300.04708
300.07168
300.10425
300.14612
300.19937
300.27421
300.44198
301.31369
305.01679
312.77844
323.24745
336.30085
349.86342
362.39828
372.82002
380.85578
387.33868
392.76409
397.45267
401.14782
404.16475
406.78765
409.36844
413.5512
325.22936
348.3536
369.0373
387.88692
405.37856
421.76564
437.15494
451.56953
464.92612
477.00346
487.39174
495.39921
499.77475
491.61686
480.38948
468.40754
457.23535
447.25558
438.49443
430.96631
424.69432
419.77731
416.38174
414.61629
414.42443
415.59632
417.87696
421.15191
426.15013
434.74797
300.54268
301.55153
302.90653
304.53413
306.3799
308.39984
310.55229
312.7918
315.0595
317.2704
319.2909
320.90581
321.80593
321.72952
321.38404
321.57313
322.38576
323.64627
325.35521
327.54365
330.2859
333.74229
338.07904
343.34617
349.47116
356.45439
364.40171
373.22352
382.57851
393.08092
300.01204
300.0454
300.10577
300.19738
300.32309
300.48462
300.68244
300.91536
301.17972
301.46719
301.76039
302.02692
302.24345
302.84254
305.46997
310.03687
314.61825
318.44572
322.38907
326.77147
331.95246
338.42071
346.32821
355.28374
364.55457
373.57872
382.32183
390.56098
399.66238
410.75467
300.00029
300.00138
300.00394
300.00878
300.01686
300.02922
300.04698
300.0713
300.10332
300.14408
300.19485
300.26471
300.50657
302.85893
312.98568
327.05334
335.67943
336.42171
344.12776
354.47651
364.30858
372.54727
379.42534
385.28645
390.41844
394.84579
398.67869
402.27175
409.80588
425.8656
325.23337
348.37695
369.10281
388.02473
405.63853
422.23305
437.96778
452.92861
467.13175
480.49882
492.75953
503.2535
510.6632
506.09607
502.11437
500.46032
500.62706
501.28342
501.22887
499.68092
496.39668
491.72402
486.31991
480.72417
475.29949
470.76454
468.34828
469.91564
477.76265
488.40249
300.54281
301.55312
302.91259
304.54919
306.41112
308.45912
310.65938
312.97771
315.37065
317.76619
320.02571
321.88352
322.97357
323.49206
324.58741
326.19642
328.03308
329.91012
331.77069
333.7622
336.17735
339.34145
343.4794
348.60786
354.69141
361.99314
369.86288
378.09704
388.63975
414.21591
300.01204
300.04547
300.1061
300.19834
300.3253
300.48915
300.69106
300.93091
301.20627
301.50952
301.8207
302.09774
302.39532
304.45025
309.61394
313.77685
316.63021
318.90718
321.73924
325.9333
332.01417
340.31223
350.59999
361.81595
373.04056
384.28929
393.12516
400.37804
408.3076
419.11237
300.00029
300.00138
300.00395
300.00884
300.01701
300.02957
300.04772
300.07276
300.10608
300.14914
300.20479
300.30473
301.02559
309.94321
335.14951
350.13955
351.45577
350.97646
350.67924
356.21813
363.30677
370.32129
377.2267
382.92462
388.59172
395.91464
402.93549
411.56312
421.15507
434.02922
325.23868
348.39238
369.13435
388.07821
405.72109
422.35363
438.136
453.15202
467.41092
480.78894
492.88137
502.78319
509.20706
504.10411
501.78225
502.60212
504.69391
507.84986
511.53738
515.31602
518.76864
521.52773
523.32927
524.04626
523.73255
522.72158
521.73909
521.92347
524.76392
531.7667
300.54293
301.55401
302.91551
304.55584
306.42368
308.48038
310.69272
313.02641
315.43431
317.83095
320.03699
321.71119
322.56832
323.81412
325.61001
327.69723
331.12353
336.04537
341.85957
348.08995
354.32637
361.07401
369.3047
379.28762
390.76383
403.22524
416.67269
431.50949
448.91522
471.82858
300.01205
300.04551
300.10627
300.19881
300.32637
300.49123
300.69475
300.93694
301.21509
301.51989
301.82497
302.08277
302.63541
307.725
311.9237
314.51718
316.0587
317.7838
319.92577
323.28424
329.2945
338.64111
350.74802
363.12153
373.29556
381.74589
391.14071
403.18104
419.30788
441.36231
300.00029
300.00139
300.00396
300.00887
300.01709
300.02976
300.04813
300.07357
300.10759
300.15203
300.21239
300.37383
302.31221
331.64775
355.19813
359.82856
361.91979
363.96276
366.84699
369.53802
373.13666
377.44099
381.94084
386.22582
390.3266
394.44747
397.80224
407.78967
421.04601
438.13546
325.24171
348.39811
369.14246
388.08827
405.73235
422.36505
438.14684
453.16137
467.41434
480.77682
492.83744
502.68123
509.10108
504.13501
502.02485
503.06446
505.32531
508.68948
512.66355
516.8652
520.93954
524.54677
527.38905
529.26016
530.12691
530.24755
530.29945
531.39845
535.00817
542.80999
300.543
301.55419
302.91582
304.55628
306.42417
308.48083
310.6929
313.02582
315.43205
317.82464
320.02201
321.68411
322.56088
323.81961
325.62568
327.74435
331.43191
336.94649
343.96592
352.53729
362.81464
374.92509
388.72771
403.70157
419.10405
434.32824
449.19932
464.0882
480.10297
499.50727
300.01205
300.04551
300.10628
300.19882
300.32637
300.49121
300.69466
300.93668
301.21448
301.51844
301.82174
302.07976
302.66453
307.39959
311.42006
313.9849
315.4354
317.16995
319.63251
323.46903
329.60071
338.05146
348.20802
359.3541
372.37167
386.93936
402.97059
420.70232
441.14439
466.14976
300.00029
300.00139
300.00396
300.00887
300.01709
300.02976
300.04811
300.07352
300.10751
300.15191
300.21308
300.38872
302.43208
330.00285
353.61066
358.24506
360.52391
362.4268
365.02917
368.03711
371.97006
376.27988
380.3967
383.95579
386.47117
391.56537
399.38336
412.44334
431.49061
455.66099
325.24334
348.39602
369.13044
388.0603
405.68076
422.27869
438.01482
452.9759
467.18267
480.55504
492.81334
503.28136
510.6827
506.54579
503.25224
502.35163
503.28892
504.78421
505.82295
505.73063
504.17919
501.21598
497.10645
492.20781
487.05168
482.61783
480.55376
482.72929
489.2989
499.74942
300.54303
301.55372
302.91366
304.55074
306.41308
308.46131
310.66161
312.9795
315.37096
317.76323
320.01432
321.85429
322.94055
323.59878
324.78227
326.42771
328.29059
330.22625
332.23709
334.45751
337.12941
340.47708
344.58908
349.42782
355.01224
361.50657
369.05509
377.76604
393.42066
423.19321
300.01205
300.04548
300.10613
300.19838
300.32533
300.48912
300.6909
300.93045
301.20519
301.50718
301.81569
302.08928
302.41662
304.63774
309.31511
313.04692
315.59377
317.69856
320.36109
324.2578
329.79508
337.12905
345.98773
355.93561
366.92741
378.6676
389.80197
400.00488
410.95005
427.1513
300.00029
300.00138
300.00396
300.00884
300.017
300.02955
300.04767
300.07266
300.10585
300.14873
300.20462
300.3144
301.16496
310.84713
333.48868
348.48811
349.77054
349.6831
350.45469
356.68036
364.30053
371.58397
378.26713
384.59427
391.09256
397.98433
405.57689
415.003
427.15242
441.79451
325.2429
348.37939
369.07361
387.93185
405.42938
421.81781
437.20856
451.61899
464.96403
477.02785
487.4006
495.3843
499.74763
491.86262
481.24779
470.02295
459.47383
449.90229
441.36949
433.91145
427.52171
422.25147
418.24952
415.68844
414.67382
415.1915
417.14512
420.5251
426.20782
435.87867
300.54297
301.55233
302.90792
304.53603
306.38208
308.40185
310.55363
312.79171
315.05686
317.26528
319.28168
320.88892
321.78594
321.78501
321.58005
321.83959
322.62542
323.80337
325.40531
327.47353
330.07554
333.36124
337.51078
342.6505
348.83972
356.08659
364.32824
373.32648
383.15465
394.82394
300.01204
300.04542
300.10581
300.19743
300.3231
300.48451
300.68208
300.91458
301.17828
301.46456
301.75588
302.01964
302.24435
302.95462
305.5684
309.80196
314.01178
317.60073
321.38222
325.5927
330.49813
336.55821
344.02132
352.81307
362.68516
373.02264
382.87042
391.81615
401.80642
413.78749
300.00029
300.00138
300.00394
300.00878
300.01685
300.02919
300.0469
300.07113
300.10299
300.14348
300.19405
300.26713
300.56122
303.3347
313.3056
326.4339
334.31074
334.87615
342.80147
353.7336
364.16133
372.79651
379.93373
386.00105
391.34299
395.95225
399.92906
403.86779
413.23169
429.96087
325.24509
348.33887
368.97168
387.75123
405.14613
421.39543
436.55139
450.54222
463.14789
474.00427
482.59987
488.31454
490.32312
481.30733
469.5499
457.01918
445.92899
437.55732
432.02008
428.71765
426.90729
426.05837
425.87716
426.2424
427.13728
428.64273
430.92844
434.35312
439.90094
449.86662
300.54293
301.54895
302.89828
304.51801
306.35287
308.35597
310.47836
312.66417
314.84448
316.92636
318.7834
320.25031
321.12793
321.17434
320.71319
320.48939
321.20733
323.01268
325.57969
328.50052
331.5756
334.81146
338.28407
342.11059
346.41733
351.30983
356.82426
362.91234
369.71528
377.91161
300.01204
300.04527
300.10533
300.19646
300.32159
300.48242
300.67919
300.91027
301.17174
301.45568
301.7479
302.04889
302.35255
302.73014
303.87865
306.66364
311.75762
318.76055
326.49971
333.74229
340.20536
346.63126
353.01304
359.28036
365.29602
371.54002
378.28881
385.41035
392.91777
401.19325
300.00029
300.00138
300.00392
300.00873
300.01678
300.02914
300.04695
300.07139
300.10369
300.14511
300.19755
300.27044
300.43278
301.28554
304.80207
311.98741
321.64642
334.35589
348.01193
360.91512
371.85374
380.26061
387.03446
392.70111
397.62806
401.55208
404.75966
407.56067
410.33569
414.78565
325.25084
348.59549
369.71977
389.23121
407.63494
425.22975
442.1154
458.13644
472.99076
486.63583
498.94001
509.65685
518.24314
517.88498
514.99486
509.67655
502.68457
495.08969
487.84861
481.5753
476.54211
472.79116
470.24406
468.78335
468.30523
468.7629
470.2021
472.82286
477.14824
484.09413
300.54366
301.56882
302.97127
304.68927
306.67921
308.90723
311.34308
314.2052
318.13886
323.42949
330.92614
341.02403
353.89262
367.71241
381.21625
393.23286
403.14945
410.73682
415.97651
419.04311
420.39598
420.67718
420.50737
420.391
420.72892
421.89191
424.30537
428.5996
435.9844
447.8494
300.01208
300.04622
300.10956
300.20827
300.3476
300.53198
300.76497
301.05498
301.42448
301.89964
302.5549
304.66038
310.0239
319.30233
331.71328
345.99457
360.5341
374.15594
386.02079
395.62472
402.84817
407.94155
411.37791
413.69221
415.38572
416.90645
418.67203
421.16163
425.19433
432.04344
300.00029
300.00142
300.00414
300.00947
300.01871
300.0334
300.05539
300.08701
300.13165
300.1944
300.28726
300.4858
301.08262
304.24387
313.02104
325.76152
339.47796
353.11366
365.9225
377.27521
386.76617
394.30485
400.08098
404.43443
407.74073
410.35335
412.60431
414.84703
417.60484
421.71312
)
;

boundaryField
{
    maxY
    {
        type            zeroGradient;
    }
    minX
    {
        type            fixedValue;
        value           uniform 300;
    }
    maxX
    {
        type            inletOutlet;
        inletValue      uniform 300;
        value           nonuniform List<scalar> 
40
(
483.27732
446.82785
430.93191
420.61493
450.24397
377.08833
399.93055
413.5438
434.69452
393.05879
410.75756
425.8789
488.34477
414.15031
419.10576
434.00212
531.71237
471.74101
441.33972
438.09318
542.88773
499.60773
466.26568
455.71713
499.86258
423.45704
427.22725
441.34524
435.97006
394.82916
413.71101
429.61848
449.94396
377.95026
401.19867
414.71686
484.15767
447.92887
432.10132
421.75317
)
;
    }
    minZ
    {
        type            zeroGradient;
    }
    maxZ
    {
        type            zeroGradient;
    }
    topAir_to_rightSolid
    {
        type            compressible::turbulentTemperatureCoupledBaffleMixed;
        refValue        nonuniform List<scalar> 
130
(
752.79686
760.89
769.3623
777.75892
785.73077
793.03964
799.54463
805.16995
809.8623
813.61305
816.41802
818.28059
819.20697
746.97683
756.40192
766.02327
775.34291
784.02002
791.84267
798.71055
804.58784
809.45507
813.32326
816.20519
818.12401
819.08525
735.27077
747.75621
759.89133
771.0718
781.08491
789.84292
797.35454
803.66744
808.83016
812.89636
815.91595
817.91747
818.91413
717.78397
736.0386
752.19799
766.06064
777.82085
787.7151
795.96698
802.76314
808.24586
812.52473
815.67861
817.7582
818.79156
697.10981
724.95707
745.92599
762.35558
775.55899
786.30635
795.08046
802.20885
807.90719
812.32337
815.56057
817.68624
818.74148
697.21178
725.07518
746.03598
762.45015
775.63192
786.36159
795.122
802.23773
807.93124
812.35019
815.58891
817.71613
818.77244
717.99543
736.27404
752.41071
766.24095
777.96021
787.8267
796.05819
802.84
808.3161
812.59475
815.75053
817.83135
818.86604
735.5577
748.02618
760.11084
771.25641
781.22778
789.95822
797.45313
803.75547
808.91593
812.98672
816.01087
818.01504
819.01403
747.30975
756.69422
766.25747
775.51315
784.13472
791.92585
798.78245
804.65067
809.51967
813.39467
816.29159
818.22104
819.18529
753.15041
761.19649
769.58353
777.89306
785.8026
793.07885
799.57359
805.19499
809.89421
813.65515
816.47514
818.35905
819.30315
)
;
        refGradient     uniform 0;
        valueFraction   uniform 0.99967867;
        value           nonuniform List<scalar> 
130
(
752.71388
760.80207
769.26959
777.66186
785.62992
792.93562
799.43805
805.06143
809.75245
813.5025
816.30743
818.17078
819.09903
746.87738
756.29767
765.91484
775.23086
783.90487
791.72494
798.59078
804.46656
809.33281
813.20058
816.08276
818.00274
818.96673
735.17822
747.65682
759.78563
770.96049
780.96881
789.72291
797.23155
803.54236
808.70379
812.76942
815.78909
817.79157
818.79067
717.71439
735.96313
752.11683
765.97397
777.72891
787.61824
795.86567
802.6579
808.1374
812.41411
815.56748
817.64893
818.68538
697.04898
724.88848
745.85188
762.2773
775.47735
786.22184
794.99336
802.11935
807.81554
812.22998
815.4662
817.59209
818.64925
697.15121
725.00693
745.96235
762.37256
775.55125
786.27838
795.03658
802.15031
807.84204
812.25958
815.49761
817.62532
818.68379
717.92693
736.2
752.33147
766.15678
777.87131
787.73333
795.9606
802.73857
808.21149
812.48812
815.64359
817.72583
818.76353
735.46592
747.92765
760.00603
771.14597
781.11244
789.83879
797.33047
803.63046
808.78943
812.85954
815.8838
817.88916
818.89095
747.21022
756.58989
766.14902
775.40114
784.01966
791.80824
798.66275
804.52937
809.39729
813.27179
816.16888
818.0995
819.06664
753.06749
761.10866
769.49099
777.79624
785.70203
792.97512
799.46731
805.08675
809.7846
813.5448
816.36473
818.24943
819.19546
)
;
        Tnbr            T;
        thicknessLayers List<scalar> 0();
        kappaLayers     List<scalar> 0();
        kappaMethod     fluidThermo;
        kappa           none;
        alphaAni        none;
        alpha           none;
        field           T;
    }
    topAir_to_heater
    {
        type            compressible::turbulentTemperatureCoupledBaffleMixed;
        refValue        nonuniform List<scalar> 
40
(
733.47298
735.57028
739.69885
745.58078
724.1043
726.59041
731.45983
738.42913
704.455
707.6672
714.08887
723.52875
672.43568
676.46117
685.07038
698.92331
625.5542
629.19727
638.70878
657.87773
625.54572
629.19548
638.72489
657.93088
672.46494
676.48304
685.12132
699.05996
704.54947
707.77375
714.2497
723.77515
724.29201
726.81876
731.74735
738.76215
733.68918
735.85192
740.0357
745.94503
)
;
        refGradient     uniform 0;
        valueFraction   uniform 0.99967867;
        value           nonuniform List<scalar> 
40
(
733.40372
735.49937
739.62486
745.50261
724.02626
726.50777
731.37159
738.33509
704.38662
707.59417
714.00992
723.44318
672.38224
676.40515
685.01106
698.85958
625.51518
629.15632
638.66504
657.8285
625.5067
629.15462
638.6813
657.88185
672.41162
676.42738
685.0626
698.99707
704.48113
707.70096
714.17123
723.69023
724.21394
726.73609
731.65907
738.66806
733.61983
735.78095
739.96168
745.86686
)
;
        Tnbr            T;
        thicknessLayers List<scalar> 0();
        kappaLayers     List<scalar> 0();
        kappaMethod     fluidThermo;
        kappa           none;
        alphaAni        none;
        alpha           none;
        field           T;
    }
    topAir_to_leftSolid
    {
        type            compressible::turbulentTemperatureCoupledBaffleMixed;
        refValue        nonuniform List<scalar> 
130
(
920.86831
920.81952
920.72948
920.58768
920.38354
920.15938
919.91045
919.62268
919.32851
919.07226
918.84468
918.66707
918.55334
920.86184
920.81514
920.72362
920.58526
920.40014
920.17995
919.94594
919.68771
919.41079
919.1596
918.93046
918.73501
918.5643
920.89794
920.85375
920.76496
920.6306
920.45437
920.25317
920.03908
919.80949
919.55949
919.30784
919.04557
918.82881
918.65613
921.00246
920.96244
920.87009
920.73486
920.565
920.37552
920.16552
919.9322
919.67516
919.39451
919.10528
918.8617
918.68229
921.15241
921.11129
921.02224
920.88507
920.70575
920.49372
920.25464
919.99567
919.71313
919.39878
919.05182
918.77555
918.60055
921.22702
921.18488
921.09396
920.95025
920.75401
920.505
920.23119
919.94127
919.62741
919.27319
918.87332
918.55687
918.37145
921.24505
921.19928
921.09981
920.93959
920.71372
920.41245
920.10519
919.78135
919.42967
919.05283
918.65648
918.29749
918.10128
921.22857
921.17837
921.06846
920.8945
920.65413
920.34075
920.00891
919.66616
919.30684
918.93278
918.54313
918.1782
917.9704
921.19943
921.14404
921.02276
920.82445
920.5753
920.29255
919.97934
919.63671
919.27412
918.90036
918.52158
918.17469
917.95076
921.1837
921.12566
921.00017
920.80035
920.55264
920.2793
919.97324
919.62753
919.26872
918.90555
918.5476
918.22053
917.98127
)
;
        refGradient     uniform 0;
        valueFraction   uniform 0.99967867;
        value           nonuniform List<scalar> 
130
(
920.67692
920.63564
920.55241
920.41693
920.21876
920.00034
919.75691
919.4744
919.1851
918.93334
918.70979
918.53568
918.42475
920.67045
920.63118
920.54632
920.41403
920.23456
920.01966
919.7906
919.53695
919.26417
919.01657
918.79026
918.59671
918.42669
920.70653
920.66979
920.58768
920.45941
920.28887
920.09299
919.88391
919.65903
919.41341
919.16572
918.90687
918.69275
918.52153
920.81102
920.77845
920.69279
920.56369
920.39954
920.21545
920.01058
919.78214
919.52975
919.25348
918.96828
918.72815
918.55119
920.96093
920.92726
920.84491
920.71386
920.54027
920.33365
920.09973
919.84566
919.56779
919.25784
918.91488
918.64188
918.46901
921.03552
921.00083
920.91661
920.77903
920.58852
920.34493
920.07628
919.79128
919.4821
919.13229
918.73642
918.42323
918.23994
921.05354
921.01523
920.92245
920.76836
920.54823
920.25239
919.95028
919.63135
919.28435
918.91193
918.51964
918.16413
917.97036
921.03706
920.99431
920.89109
920.72324
920.48857
920.18057
919.85377
919.51576
919.16085
918.79079
918.40459
918.04235
917.83601
921.00793
920.95998
920.84537
920.65316
920.40968
920.13224
919.824
919.48597
919.12756
918.7574
918.38151
918.03657
917.81335
920.99221
920.94169
920.82303
920.62954
920.38782
920.12023
919.81969
919.47924
919.12532
918.76665
918.41277
918.08925
917.85283
)
;
        Tnbr            T;
        thicknessLayers List<scalar> 0();
        kappaLayers     List<scalar> 0();
        kappaMethod     fluidThermo;
        kappa           none;
        alphaAni        none;
        alpha           none;
        field           T;
    }
}


// ************************************************************************* //
