/*--------------------------------*- C++ -*----------------------------------*\
| =========                 |                                                 |
| \\      /  F ield         | OpenFOAM: The Open Source CFD Toolbox           |
|  \\    /   O peration     | Version:  v2012                                 |
|   \\  /    A nd           | Website:  www.openfoam.com                      |
|    \\/     M anipulation  |                                                 |
\*---------------------------------------------------------------------------*/
FoamFile
{
    version     2.0;
    format      ascii;
    class       volVectorField;
    location    "610/topAir";
    object      U;
}
// * * * * * * * * * * * * * * * * * * * * * * * * * * * * * * * * * * * * * //

dimensions      [0 1 -1 0 0 0 0];


internalField   nonuniform List<vector> 
1200
(
(0.10464822 -0.0024694787 0.00088035582)
(0.11847068 -0.0025448522 0.001323007)
(0.13033379 -0.0023209399 0.0014051342)
(0.13958554 -0.0017581666 0.0012666136)
(0.14765952 -0.00092038466 0.0009210496)
(0.15520168 1.8561017e-05 0.00032664701)
(0.16247251 0.00095631014 -0.00054994314)
(0.16973681 0.0018258406 -0.0018607207)
(0.17719261 0.0027245104 -0.0038781095)
(0.18516042 0.0038323794 -0.0069235098)
(0.19382675 0.0054845507 -0.011412555)
(0.2028677 0.0080731096 -0.017773317)
(0.21072915 0.012017024 -0.026269522)
(0.21578412 0.016703432 -0.03670793)
(0.2180685 0.021949348 -0.048232861)
(0.21818256 0.02701344 -0.059586136)
(0.21635182 0.031298902 -0.069577927)
(0.21279499 0.034513279 -0.077513989)
(0.20806245 0.036548946 -0.083237555)
(0.20302754 0.037417364 -0.086937117)
(0.19860404 0.037288678 -0.088941631)
(0.19542808 0.036449269 -0.089591279)
(0.19373613 0.035179253 -0.089176477)
(0.19344142 0.033694726 -0.08792742)
(0.19426169 0.032159923 -0.085999924)
(0.19572725 0.030783483 -0.08340531)
(0.19694369 0.02994943 -0.079905929)
(0.19608923 0.030452625 -0.074915482)
(0.1897265 0.03417963 -0.067438706)
(0.15238783 0.046981519 -0.055542191)
(0.098686454 -0.0039079784 0.00085211718)
(0.098453181 -0.0047213807 0.0012879052)
(0.098876677 -0.0047676516 0.0014728786)
(0.099761667 -0.0042953239 0.0015580441)
(0.10118749 -0.0034962492 0.0015699591)
(0.1031851 -0.0026214098 0.0014931396)
(0.1057348 -0.001837464 0.001301599)
(0.10899419 -0.0012094116 0.00093668061)
(0.11346101 -0.00041877234 0.00027202827)
(0.11964798 0.00089842704 -0.0008655676)
(0.12853583 0.0035824604 -0.0027952265)
(0.14050244 0.00872045 -0.005911324)
(0.15522648 0.017195186 -0.010729516)
(0.17080378 0.027919787 -0.017334971)
(0.18509309 0.040223483 -0.025219471)
(0.19634563 0.052725719 -0.033388514)
(0.20346778 0.064344152 -0.040916179)
(0.20622881 0.074172698 -0.047337253)
(0.20535819 0.081454894 -0.052522349)
(0.20229072 0.085792151 -0.056470655)
(0.1985847 0.087417357 -0.059209933)
(0.19532985 0.087030953 -0.060768065)
(0.19300776 0.085365503 -0.061232397)
(0.19170131 0.082957058 -0.060743904)
(0.1913181 0.080100633 -0.059417715)
(0.19163533 0.07711303 -0.057181018)
(0.19209963 0.07465509 -0.053612401)
(0.19153554 0.074198823 -0.047781665)
(0.18863918 0.078951936 -0.037768879)
(0.16517578 0.094204581 -0.019154018)
(0.098814455 -0.0029231191 0.00087913547)
(0.097949636 -0.0042302379 0.0013359312)
(0.096291049 -0.0046392393 0.0015421843)
(0.094210927 -0.0047300344 0.0016679294)
(0.092175251 -0.0046934304 0.0017652422)
(0.090364704 -0.0046172073 0.0018458556)
(0.088766241 -0.0046066051 0.0019269032)
(0.087313044 -0.0047112257 0.0020489836)
(0.086059261 -0.0047645234 0.0022785907)
(0.085322113 -0.0046825005 0.0026501816)
(0.085653002 -0.0042184783 0.0030962826)
(0.089140542 -0.00184131 0.0031982875)
(0.099298256 0.0056046916 0.0022541027)
(0.1153221 0.019154111 9.7336485e-05)
(0.13407537 0.036683525 -0.0029754599)
(0.15211979 0.055281815 -0.0060692311)
(0.16660262 0.072060891 -0.0086469802)
(0.17634611 0.085913752 -0.010624597)
(0.18174101 0.096331427 -0.012271178)
(0.1841787 0.10314781 -0.01386325)
(0.18519608 0.10653626 -0.015494893)
(0.1857335 0.10699398 -0.016896754)
(0.18606674 0.10521271 -0.0177415)
(0.18612828 0.10183754 -0.017944608)
(0.18583453 0.097340589 -0.017551971)
(0.18519081 0.092101915 -0.01647433)
(0.18411526 0.086763917 -0.014354921)
(0.18236997 0.082799593 -0.010557718)
(0.18043245 0.083648515 -0.0041906147)
(0.16904435 0.095376034 0.0076627473)
(0.096857546 -0.0015576717 0.00084444843)
(0.094626746 -0.0023011378 0.001262806)
(0.090888134 -0.0025277359 0.0014299643)
(0.086308089 -0.0025594335 0.001514502)
(0.081706009 -0.0024985584 0.0015722875)
(0.077325462 -0.0023768073 0.0016191357)
(0.073127653 -0.0022351828 0.0016783067)
(0.069013112 -0.0021141596 0.0017944079)
(0.064849704 -0.0020554675 0.0020427208)
(0.060417507 -0.0022419089 0.0025373332)
(0.055286617 -0.0031966588 0.003500242)
(0.049006586 -0.0050030615 0.0053752549)
(0.040889049 -0.005637155 0.0088648617)
(0.036664107 0.0013686556 0.013751004)
(0.044091863 0.017504997 0.019357532)
(0.059683799 0.035145778 0.025398619)
(0.076290906 0.049957456 0.03120953)
(0.090975782 0.061881305 0.036490719)
(0.10346355 0.071020213 0.040786993)
(0.11442537 0.077356364 0.043718157)
(0.12437519 0.080869044 0.045456611)
(0.13334511 0.081685651 0.046233699)
(0.14104558 0.080238147 0.046259993)
(0.14710103 0.077068782 0.045756818)
(0.15129461 0.072714714 0.044937852)
(0.15373034 0.067600805 0.044033607)
(0.15485935 0.06230204 0.043291783)
(0.15575457 0.057934934 0.042625328)
(0.16023894 0.057029726 0.041251572)
(0.18578895 0.065025686 0.039865734)
(0.10591105 -0.0024707319 0.0010173867)
(0.12058844 -0.0025568668 0.0014266975)
(0.13370086 -0.0024240946 0.0014350435)
(0.14428743 -0.0020491497 0.0012116013)
(0.15350082 -0.0015022428 0.00077517372)
(0.16192003 -0.00096425078 8.2467051e-05)
(0.16957438 -0.00057936674 -0.00092576733)
(0.17637743 -0.00042400872 -0.0024190649)
(0.18229404 -0.00056389765 -0.0046566953)
(0.18730472 -0.0010765607 -0.007928269)
(0.19134632 -0.002097209 -0.012587456)
(0.19432738 -0.0037750497 -0.018915813)
(0.19566234 -0.0062523318 -0.026889359)
(0.19509018 -0.01020832 -0.035773207)
(0.19430523 -0.014810619 -0.044297357)
(0.19459706 -0.019085706 -0.051401058)
(0.19569782 -0.022017683 -0.056834266)
(0.19656755 -0.02331045 -0.060934318)
(0.19648251 -0.023447496 -0.064031713)
(0.19545714 -0.023179997 -0.066257562)
(0.19404059 -0.022976881 -0.067676554)
(0.19285856 -0.022886722 -0.068339592)
(0.19229524 -0.022826411 -0.068289685)
(0.19246121 -0.022745034 -0.067580361)
(0.19337039 -0.022641907 -0.066255433)
(0.195086 -0.022407895 -0.064267958)
(0.19763077 -0.021642802 -0.061313448)
(0.20080389 -0.019271753 -0.056702985)
(0.2039776 -0.011970832 -0.049414573)
(0.19903244 0.010329873 -0.039321477)
(0.099976071 -0.0039197279 0.0010717937)
(0.10068303 -0.0047696364 0.0016329273)
(0.10248751 -0.0049555356 0.001845152)
(0.10492427 -0.0047423935 0.0019028032)
(0.10780929 -0.0043256101 0.001847208)
(0.11108188 -0.0039564513 0.0016550772)
(0.11465117 -0.0038287702 0.0012811737)
(0.11843952 -0.0040636667 0.00064726753)
(0.12244242 -0.0047870164 -0.00037139985)
(0.12662598 -0.0061792292 -0.0019305962)
(0.13100941 -0.0085036581 -0.0041991825)
(0.13569475 -0.01204356 -0.0073560009)
(0.1408502 -0.017112538 -0.011459242)
(0.14644683 -0.0243401 -0.015902141)
(0.15243396 -0.032133551 -0.019549896)
(0.15846951 -0.038189325 -0.021596781)
(0.1638911 -0.040521505 -0.022335422)
(0.167689 -0.039031307 -0.022997969)
(0.16937102 -0.035250661 -0.024366256)
(0.16931418 -0.031092896 -0.026446875)
(0.16845801 -0.027716478 -0.028790747)
(0.16759486 -0.025174031 -0.03091849)
(0.16696763 -0.023193761 -0.032398191)
(0.1665618 -0.021698105 -0.032892672)
(0.16652153 -0.020977661 -0.03210444)
(0.16742424 -0.021283115 -0.02974709)
(0.17038675 -0.022602839 -0.025266221)
(0.17771232 -0.024350633 -0.017619429)
(0.19484984 -0.025112677 -0.0051293839)
(0.25432874 -0.019568892 0.010715391)
(0.10011476 -0.0029513518 0.0010923677)
(0.10020579 -0.0042834438 0.0016806118)
(0.099993633 -0.004735944 0.0019407957)
(0.099617395 -0.0049044551 0.0020760048)
(0.099291089 -0.0049843683 0.0021456439)
(0.099129909 -0.0050629669 0.002149476)
(0.099147703 -0.005228015 0.0020831523)
(0.099325485 -0.005579586 0.0019539283)
(0.099656633 -0.0062570461 0.0017795828)
(0.10017164 -0.0075185258 0.0015335592)
(0.10097984 -0.0097159263 0.0010648887)
(0.1022838 -0.013348279 0.00012363871)
(0.10430936 -0.019153437 -0.0012308998)
(0.1071346 -0.027619034 -0.0021421862)
(0.11074257 -0.036801866 -0.0010042943)
(0.11473864 -0.043346492 0.0040817964)
(0.12019494 -0.043710046 0.01298227)
(0.12585773 -0.038955951 0.021669509)
(0.13036893 -0.032217446 0.027952855)
(0.13327319 -0.026674241 0.03121283)
(0.13481531 -0.022887747 0.032901061)
(0.13619693 -0.020195929 0.034701469)
(0.13839743 -0.018690992 0.03677588)
(0.14133079 -0.01813325 0.039340864)
(0.14391753 -0.018987497 0.041488869)
(0.14539304 -0.021025934 0.043061315)
(0.14653611 -0.024181015 0.043949502)
(0.14836759 -0.029072734 0.044475234)
(0.1553239 -0.036327281 0.046832903)
(0.18603782 -0.046305155 0.045852455)
(0.098101669 -0.001584699 0.0010670285)
(0.096768598 -0.002357662 0.001636104)
(0.094404873 -0.0026174521 0.001881715)
(0.091449384 -0.0026952207 0.0019990288)
(0.088476719 -0.0026966032 0.002047086)
(0.085677161 -0.0026557167 0.0020293132)
(0.083049046 -0.0026159617 0.0019470418)
(0.08056046 -0.0026348086 0.0018111814)
(0.078166734 -0.0027955853 0.0016487369)
(0.075815059 -0.0032502965 0.0015019336)
(0.073414248 -0.0042756225 0.0014214252)
(0.070761379 -0.006377808 0.0014863676)
(0.067476661 -0.010278242 0.001622197)
(0.063316169 -0.01617885 0.0017916689)
(0.058418136 -0.021176353 0.0046251745)
(0.054858321 -0.019822321 0.016731805)
(0.057717944 -0.010132458 0.042496639)
(0.061468735 0.0035863492 0.066468782)
(0.06572559 0.016940179 0.084241899)
(0.071669488 0.027356501 0.096428017)
(0.079815011 0.034002078 0.10375997)
(0.088885683 0.036417751 0.1069236)
(0.097086603 0.035814798 0.10767126)
(0.10379821 0.033180996 0.10668122)
(0.10867573 0.02937612 0.10415407)
(0.1121985 0.024086254 0.09911417)
(0.11431273 0.017750895 0.091732071)
(0.11500862 0.010184189 0.082358587)
(0.12083076 0.0011221098 0.072487626)
(0.14481392 -0.010103857 0.042631653)
(0.10578536 -0.0024914413 0.00037337141)
(0.12026364 -0.0025755602 0.000619342)
(0.13328615 -0.0024160174 0.00072865887)
(0.14389292 -0.0019924382 0.00074394399)
(0.15317356 -0.001385622 0.00069028849)
(0.16162482 -0.00078610773 0.00056981098)
(0.16925851 -0.0003082825 0.00035341165)
(0.17605421 1.8809401e-05 1.7976294e-05)
(0.18203633 0.00016891527 -0.00045019481)
(0.18718274 8.8527268e-05 -0.001074332)
(0.19142893 -0.00030937589 -0.001866736)
(0.19468403 -0.00117685 -0.0027789276)
(0.19632096 -0.0027605096 -0.0036139673)
(0.19604743 -0.0059314278 -0.0039795749)
(0.19544097 -0.0097047007 -0.0034804039)
(0.19511047 -0.01327475 -0.0024604809)
(0.19421544 -0.016564235 -0.001955331)
(0.19209859 -0.019907064 -0.0027658942)
(0.18897574 -0.023327609 -0.0049785485)
(0.18543241 -0.026725497 -0.008153648)
(0.18204144 -0.029991297 -0.01168376)
(0.17923745 -0.032927968 -0.014988376)
(0.17716281 -0.035280439 -0.017637286)
(0.17564356 -0.036897763 -0.019444542)
(0.17443413 -0.037869595 -0.02035413)
(0.17349357 -0.038568951 -0.020199552)
(0.17333463 -0.039454942 -0.018684127)
(0.17562984 -0.04034742 -0.016299726)
(0.1823659 -0.037773762 -0.016545254)
(0.1955963 -0.022645246 -0.021635075)
(0.099853366 -0.0039327649 0.00036846311)
(0.1003284 -0.0047701748 0.00063299217)
(0.10200631 -0.004913383 0.00076109526)
(0.10443136 -0.0046307727 0.00078843445)
(0.10733631 -0.0041277906 0.0007278407)
(0.11059872 -0.0036606544 0.00056187584)
(0.11409593 -0.0033781539 0.00025610679)
(0.11773322 -0.0033372912 -0.00023246884)
(0.12146112 -0.0036206256 -0.0009586674)
(0.12526884 -0.0043739909 -0.0020076)
(0.12920016 -0.0058458867 -0.0034440655)
(0.13340429 -0.0084716261 -0.0052669797)
(0.13819491 -0.012900755 -0.0072694663)
(0.14355158 -0.019831895 -0.0088912296)
(0.14888987 -0.026423577 -0.0099285743)
(0.15297923 -0.030482632 -0.011653459)
(0.15447988 -0.032592228 -0.015425311)
(0.15338152 -0.034411063 -0.021075162)
(0.15077247 -0.036084147 -0.027694117)
(0.14747089 -0.037583777 -0.03424248)
(0.14387908 -0.039076861 -0.039812502)
(0.14023157 -0.040554946 -0.043806682)
(0.13656628 -0.041747034 -0.045952536)
(0.13263293 -0.042489178 -0.046253212)
(0.12822212 -0.043144132 -0.044596359)
(0.12326802 -0.044884833 -0.040568477)
(0.11914336 -0.04905627 -0.033343571)
(0.12137642 -0.055728332 -0.024805856)
(0.13693181 -0.058493738 -0.027662179)
(0.18930832 -0.044903064 -0.048520147)
(0.099996598 -0.0029464638 0.00037321218)
(0.099867057 -0.0042720075 0.00064425878)
(0.099535825 -0.004703986 0.00078746063)
(0.099158552 -0.0048398553 0.00083479344)
(0.098877761 -0.0048746496 0.00079612549)
(0.098758792 -0.0048885408 0.00065212248)
(0.098787316 -0.0049526487 0.00036624933)
(0.098917778 -0.0051472754 -0.00011477661)
(0.099119521 -0.0055973411 -0.00086799409)
(0.099377597 -0.0065091539 -0.0019911065)
(0.099664242 -0.0082777742 -0.0036104879)
(0.10001616 -0.011635859 -0.0058680062)
(0.10071312 -0.017779404 -0.0087085202)
(0.10173597 -0.026941195 -0.011484783)
(0.10206854 -0.033939647 -0.013599789)
(0.10057423 -0.035262769 -0.016330386)
(0.096113097 -0.033026563 -0.020830374)
(0.090725248 -0.031661514 -0.024612062)
(0.085890083 -0.031340325 -0.028998645)
(0.081292437 -0.032146096 -0.034200628)
(0.076159798 -0.034105716 -0.038401959)
(0.070689845 -0.036661322 -0.040272396)
(0.065646168 -0.039028595 -0.039472179)
(0.061342855 -0.041055577 -0.035872854)
(0.058474729 -0.043159424 -0.028647992)
(0.056260585 -0.046702576 -0.017977099)
(0.055317111 -0.053155 -0.0043405734)
(0.062239148 -0.063667232 0.0052791718)
(0.07305347 -0.072531925 -0.014201355)
(0.10339326 -0.067719979 -0.063769802)
(0.097986084 -0.0015797481 0.00036367973)
(0.096436353 -0.0023475037 0.0006229508)
(0.093955726 -0.0025989751 0.00075583413)
(0.090998492 -0.0026663201 0.00079375199)
(0.088069129 -0.0026545426 0.00074626235)
(0.085306623 -0.0025955273 0.00059325323)
(0.08267814 -0.0025292476 0.0002950384)
(0.080120759 -0.0025076592 -0.00021113895)
(0.077570408 -0.0026038641 -0.0010198043)
(0.074900738 -0.0029484234 -0.0022685172)
(0.071826256 -0.0038370577 -0.0042230478)
(0.067810036 -0.0059543869 -0.0074052856)
(0.061939092 -0.010953097 -0.012907974)
(0.052241606 -0.019845566 -0.02205957)
(0.036406198 -0.023851393 -0.032782952)
(0.020169805 -0.018167718 -0.0382078)
(0.0088602902 -0.010347168 -0.030288254)
(0.02130406 -0.0069951214 0.0090079072)
(0.025601458 0.0015036165 0.043793831)
(0.031491956 0.0098029024 0.06466272)
(0.039185005 0.015585457 0.076331649)
(0.047111266 0.01812925 0.081932891)
(0.053893248 0.017920902 0.083736387)
(0.058536292 0.015347869 0.082770191)
(0.059788141 0.010560409 0.079306687)
(0.056827262 0.0030683094 0.072717247)
(0.050221592 -0.0074413227 0.063027808)
(0.0463129 -0.022824388 0.048643657)
(0.030264528 -0.035440615 -0.0064017106)
(0.019073934 -0.021398597 -0.10267069)
(0.10575702 -0.0024927947 0.00021305271)
(0.12015911 -0.0025716228 0.00038925746)
(0.13309853 -0.0023970125 0.00050466893)
(0.14364292 -0.0019424731 0.00056125632)
(0.15289023 -0.0012788325 0.00056603365)
(0.16134977 -0.00058327746 0.00052107099)
(0.16907448 4.5831301e-05 0.00042676092)
(0.17607018 0.00058698698 0.00029281145)
(0.18239101 0.0010367658 0.00011893339)
(0.18812689 0.0013882347 -8.2531612e-05)
(0.19341817 0.0015961786 -0.00024313506)
(0.19848804 0.0015402004 -0.00017793198)
(0.20313092 0.0010670787 0.00057441903)
(0.20738701 -1.6040725e-05 0.0027210657)
(0.21241879 0.00022239131 0.0063157791)
(0.21758185 0.0014179838 0.010690348)
(0.22140382 0.0024353707 0.015227555)
(0.22343314 0.0026538747 0.019738714)
(0.22410948 0.0019194646 0.024196002)
(0.22398061 0.00028558806 0.028521878)
(0.22344074 -0.0020332898 0.032630156)
(0.22264918 -0.0047052236 0.036536555)
(0.22143791 -0.0074342271 0.040309981)
(0.21950034 -0.010132859 0.043861997)
(0.21688293 -0.012771526 0.046902552)
(0.21423119 -0.014756528 0.049041526)
(0.21216718 -0.014694213 0.049480831)
(0.21018511 -0.010593079 0.047224574)
(0.20504867 0.00029180552 0.04057345)
(0.15327532 0.028186983 0.022197954)
(0.099823333 -0.0039342184 0.00021106272)
(0.10019919 -0.0047646251 0.00039549227)
(0.1017483 -0.0048859212 0.0005145434)
(0.10405029 -0.0045581815 0.00056345823)
(0.10683714 -0.0039738028 0.00054439773)
(0.10997482 -0.0033709109 0.00045098767)
(0.11333642 -0.0028758367 0.00026798498)
(0.1168196 -0.0025320557 -2.59737e-05)
(0.12039123 -0.002389153 -0.00045936841)
(0.12410146 -0.0025650093 -0.0010544764)
(0.12813385 -0.0033443619 -0.0017837467)
(0.13294064 -0.0052993482 -0.0024646493)
(0.13930761 -0.0091088605 -0.002555866)
(0.14744138 -0.013434412 -0.0011625377)
(0.15629714 -0.012905172 0.0010332185)
(0.16335669 -0.0093727092 0.0024130346)
(0.16749863 -0.0063563107 0.0022026642)
(0.16912395 -0.0054625482 0.00053978269)
(0.16883852 -0.0068592954 -0.002426724)
(0.16710272 -0.0098036748 -0.0064590157)
(0.16440921 -0.013504062 -0.010903211)
(0.16098248 -0.017286889 -0.014706962)
(0.15667178 -0.020572047 -0.016994298)
(0.15104321 -0.023413987 -0.017343286)
(0.14413908 -0.026532903 -0.015550656)
(0.13777449 -0.02973119 -0.01256446)
(0.13566278 -0.030834048 -0.013219361)
(0.14200671 -0.023799545 -0.020079993)
(0.15865209 -0.0028805672 -0.033963217)
(0.17997106 0.036729765 -0.048585349)
(0.099967686 -0.0029437586 0.00021215419)
(0.099741624 -0.0042660503 0.00039700527)
(0.099278194 -0.0046887495 0.00051945418)
(0.098764268 -0.0048061632 0.00057140445)
(0.098340049 -0.0048094747 0.00055025329)
(0.098053703 -0.0047714982 0.0004434389)
(0.097873014 -0.0047531962 0.00022613611)
(0.097728928 -0.0048265605 -0.00013824923)
(0.09755924 -0.0051070604 -0.0007029293)
(0.09731438 -0.0058449337 -0.0015495297)
(0.097008833 -0.0075902154 -0.0027618951)
(0.096971907 -0.011497274 -0.0043087661)
(0.098042284 -0.019430858 -0.0056919538)
(0.099657307 -0.027864251 -0.0053601538)
(0.10225411 -0.026285365 -0.0029846572)
(0.10252548 -0.020303044 -0.0011006716)
(0.096976508 -0.014833367 -0.0024485784)
(0.08857845 -0.011752863 -0.0068348358)
(0.078640429 -0.012895161 -0.013225355)
(0.068796128 -0.017089299 -0.019567585)
(0.059436567 -0.022451321 -0.02401156)
(0.050338017 -0.027495952 -0.025396665)
(0.041882742 -0.031112152 -0.023092783)
(0.034388279 -0.034157083 -0.016238678)
(0.028934316 -0.038224999 -0.0052949489)
(0.026025687 -0.044151645 0.001510364)
(0.033118013 -0.04615749 -0.011723121)
(0.053291843 -0.036599129 -0.03434313)
(0.079710825 -0.019735699 -0.056220741)
(0.10774453 0.0077831749 -0.079752596)
(0.097957724 -0.0015813808 0.00020656022)
(0.096313964 -0.0023512078 0.00038371878)
(0.093703762 -0.0026023876 0.00049816559)
(0.090610162 -0.0026658522 0.00054146637)
(0.087534214 -0.0026454017 0.00050975562)
(0.084592884 -0.0025706034 0.00038785928)
(0.081720861 -0.0024791753 0.000144402)
(0.078807191 -0.0024253576 -0.00027236483)
(0.075694713 -0.0024920915 -0.00095555762)
(0.072085587 -0.0028592911 -0.0020901494)
(0.067391008 -0.0039800752 -0.0040166135)
(0.060384385 -0.0071196107 -0.0074242197)
(0.049385677 -0.015580239 -0.013900928)
(0.028561074 -0.024529931 -0.024252228)
(-0.002962075 -0.012542694 -0.03099397)
(-0.026802703 0.0018947081 -0.027345875)
(-0.041464869 0.004103036 -0.021420924)
(-0.045900331 0.0026300256 -0.010785197)
(-0.032498539 -0.00055987184 0.010140304)
(-0.022987358 -0.00044648765 0.0275071)
(-0.012232434 0.00013303813 0.037760341)
(-0.0031795714 -0.0001890298 0.042976716)
(0.0034868546 -0.0018570822 0.045301171)
(0.0060691224 -0.0056962903 0.045758822)
(0.004996425 -0.011879644 0.045134013)
(-0.0043653028 -0.023888358 0.03301059)
(-0.018554833 -0.029800559 -0.0046635253)
(-0.024777372 -0.015241724 -0.054063382)
(-0.015097294 0.0052714333 -0.08292347)
(0.0059743665 0.028056809 -0.11387497)
(0.10574217 -0.0024961486 7.5658594e-05)
(0.12010684 -0.002576708 0.00014111683)
(0.13300156 -0.0024022445 0.00018839165)
(0.14350667 -0.001945481 0.00021778347)
(0.15272279 -0.0012764368 0.00023227285)
(0.16115491 -0.00057310832 0.00023378048)
(0.16884869 6.358688e-05 0.00022264251)
(0.17580373 0.00060868969 0.00019637003)
(0.18208296 0.00105902 0.00015254971)
(0.18780193 0.0013843268 9.8227819e-05)
(0.19315515 0.0014944456 5.8922379e-05)
(0.19857063 0.001227716 0.00011432139)
(0.20420485 0.00058373512 0.00049280542)
(0.2102631 0.00029091337 0.0015075143)
(0.21685228 0.0012684261 0.0029964284)
(0.22302252 0.0025984012 0.0045638401)
(0.22782435 0.0039197334 0.006178003)
(0.23157005 0.0054706327 0.0081995936)
(0.23493107 0.0072130826 0.011036971)
(0.23845751 0.0088818828 0.014975056)
(0.24253688 0.010277319 0.02014041)
(0.24714899 0.011648205 0.026455116)
(0.25161952 0.013296739 0.033625837)
(0.25488271 0.015148262 0.041191162)
(0.25597359 0.01704696 0.048483312)
(0.25408314 0.019131789 0.054488874)
(0.2479517 0.022125227 0.057700753)
(0.23492805 0.027644593 0.056161158)
(0.21155508 0.038421637 0.047468906)
(0.12749443 0.063417389 0.02915896)
(0.099805682 -0.0039377037 7.2588335e-05)
(0.10012995 -0.0047694943 0.00013783084)
(0.10161073 -0.0048891785 0.00018272432)
(0.10384488 -0.0045557906 0.00020518432)
(0.10656513 -0.0039611182 0.00020638329)
(0.10962831 -0.0033447442 0.00018561532)
(0.11289815 -0.0028370528 0.00013922413)
(0.11627413 -0.0024879789 6.0342042e-05)
(0.11972284 -0.002362473 -5.432195e-05)
(0.12332345 -0.0026385351 -0.00020426214)
(0.12739181 -0.0037342238 -0.00035617104)
(0.13271719 -0.0064013733 -0.0003874596)
(0.14037005 -0.010832935 3.5632361e-06)
(0.15030395 -0.011082308 0.0012799488)
(0.15975646 -0.0070383178 0.0024785724)
(0.16683664 -0.0028079144 0.0028370933)
(0.17261649 0.00012609451 0.0026531118)
(0.17818094 0.0019108143 0.0024880479)
(0.18337329 0.0028104343 0.0025730791)
(0.18864154 0.0032390218 0.002979822)
(0.19376829 0.0038371183 0.0036276536)
(0.19967059 0.0055698546 0.0046586384)
(0.20776676 0.009842344 0.0064962518)
(0.21688947 0.017056703 0.009329217)
(0.22509948 0.026144151 0.012888176)
(0.23114656 0.0359604 0.016301634)
(0.23360369 0.047033705 0.017787514)
(0.22928279 0.06071781 0.014839257)
(0.21624208 0.079516628 0.0046299604)
(0.16223902 0.11051623 -0.014375258)
(0.099949913 -0.0029438929 7.2324727e-05)
(0.099671809 -0.0042667595 0.00013675343)
(0.09913573 -0.0046883967 0.00018140874)
(0.098542972 -0.0048025885 0.00020293126)
(0.098032562 -0.0048010545 0.00020046628)
(0.097640023 -0.0047578566 0.00017068594)
(0.097317879 -0.004737322 0.00010552359)
(0.096979727 -0.004818476 -8.6027368e-06)
(0.096526469 -0.0051535618 -0.00019060396)
(0.095875297 -0.0060818447 -0.00046764978)
(0.095110127 -0.0083950161 -0.00086032892)
(0.095054971 -0.013830655 -0.001341197)
(0.096432101 -0.024769411 -0.0017893414)
(0.099196505 -0.024728207 -0.00070796012)
(0.10378794 -0.017833523 0.0013611741)
(0.10269585 -0.011227048 0.001209725)
(0.098865041 -0.0054530269 -0.00026792917)
(0.091674637 -0.0010340428 -0.0022812132)
(0.083926534 0.00058104761 -0.0045106215)
(0.073977513 -0.0012905713 -0.0074405571)
(0.061851674 -0.0055885539 -0.010786436)
(0.049374557 -0.0099839386 -0.013543813)
(0.039624698 -0.0117933 -0.014927186)
(0.041172773 -0.0096393208 -0.015253729)
(0.061182743 -0.0023295026 -0.015122252)
(0.091744396 0.010448719 -0.015694028)
(0.11982017 0.026039682 -0.017904295)
(0.13755519 0.044714646 -0.024134656)
(0.14769048 0.06928853 -0.035884831)
(0.13469274 0.10441775 -0.051447062)
(0.097940083 -0.0015812032 7.0312178e-05)
(0.096244753 -0.0023508825 0.00013184502)
(0.093561566 -0.00260117 0.00017323145)
(0.090385945 -0.0026629583 0.00019075889)
(0.087215888 -0.0026404908 0.00018268179)
(0.084151234 -0.0025641776 0.00014425705)
(0.081103852 -0.0024740614 6.3233085e-05)
(0.077917706 -0.0024288377 -8.1970948e-05)
(0.074331377 -0.0025360099 -0.00033414806)
(0.069843293 -0.0030457033 -0.00077956444)
(0.063401308 -0.0046477254 -0.001600872)
(0.052603092 -0.0094996488 -0.0032690635)
(0.035732056 -0.022815939 -0.0073115466)
(-0.011090102 -0.014351991 -0.015827592)
(-0.044416338 0.0041944424 -0.014491121)
(-0.064198389 0.0072244443 -0.013194907)
(-0.078683605 0.0072285548 -0.011678617)
(-0.08593863 0.0044016813 -0.0086144354)
(-0.087497171 -0.00015369765 -0.0043731278)
(-0.080020317 -0.0050189651 0.00084325195)
(-0.069986261 -0.0091588873 0.0041472473)
(-0.060081467 -0.012857047 0.0054820916)
(-0.051095431 -0.016928839 0.0055800311)
(-0.043072101 -0.021280163 0.0045477245)
(-0.035182307 -0.022716829 0.00083338073)
(-0.028760813 -0.016321322 -0.012103924)
(-0.011747879 0.0038362953 -0.032405002)
(0.0096076117 0.030101794 -0.049528464)
(0.028339654 0.054541902 -0.066406595)
(0.066444195 0.084933617 -0.080100426)
(0.10574323 -0.0024961788 -2.8237214e-05)
(0.1201107 -0.0025763955 -4.2010522e-05)
(0.13300943 -0.0024015616 -3.3484754e-05)
(0.1435197 -0.0019444482 -2.2731356e-06)
(0.15274265 -0.0012749838 4.9954524e-05)
(0.16118525 -0.00057068332 0.00012329999)
(0.16889424 6.7921847e-05 0.00022022298)
(0.17586998 0.00061574728 0.00034657207)
(0.18217643 0.0010666767 0.00051089622)
(0.18792624 0.0013901886 0.00071860098)
(0.19331885 0.0014978752 0.00095625417)
(0.19879338 0.0012226908 0.0011648263)
(0.20453183 0.00058061267 0.0011604184)
(0.21075131 0.00026651059 0.00067646389)
(0.21754542 0.001204077 -0.00016995851)
(0.22405911 0.0024945343 -0.0010377343)
(0.2294895 0.0038601189 -0.0017782165)
(0.23427552 0.0055897249 -0.0025424353)
(0.23911205 0.0077638513 -0.0035121156)
(0.24442304 0.01041962 -0.004848111)
(0.25022829 0.013603008 -0.0067692579)
(0.2560301 0.0173494 -0.0095636603)
(0.26094027 0.021482512 -0.013447705)
(0.26402707 0.025705361 -0.018335155)
(0.26455826 0.029751616 -0.023719853)
(0.26171298 0.033794458 -0.028673558)
(0.25384077 0.038388571 -0.031996224)
(0.23783135 0.044511963 -0.032337933)
(0.20992222 0.054145075 -0.027517703)
(0.11524464 0.07552361 -0.015755411)
(0.099806136 -0.0039375985 -2.7498273e-05)
(0.10013222 -0.0047688303 -4.1050988e-05)
(0.10161655 -0.004887844 -2.8750247e-05)
(0.1038563 -0.0045537358 1.2454142e-05)
(0.1065854 -0.0039581558 8.2775606e-05)
(0.10966298 -0.0033398566 0.00018477481)
(0.11295329 -0.0028290464 0.00032485123)
(0.11635397 -0.0024764676 0.00051451046)
(0.11983728 -0.0023485217 0.00076726251)
(0.12349276 -0.0026223252 0.0010951752)
(0.12764549 -0.0037100066 0.001486568)
(0.13309177 -0.0063493907 0.0018584609)
(0.14086749 -0.010604329 0.0019691113)
(0.15103001 -0.010792568 0.0012827339)
(0.1606803 -0.0068576237 0.00051815458)
(0.16805452 -0.0027018328 0.00045340772)
(0.17446644 0.00039321128 0.00095675785)
(0.18094589 0.0028100366 0.0016714869)
(0.18756402 0.0051602524 0.0025328043)
(0.19510545 0.0082091944 0.0035206972)
(0.20404515 0.012843362 0.0044114084)
(0.21418965 0.019734441 0.0046000526)
(0.22475793 0.028915329 0.0035484918)
(0.2347318 0.039504774 0.0012093132)
(0.24308263 0.050604566 -0.002010279)
(0.24829377 0.062452062 -0.0052468258)
(0.2474378 0.075167931 -0.0073407851)
(0.23621478 0.089285519 -0.007245848)
(0.2125541 0.10650966 -0.0031745017)
(0.12811821 0.13269205 0.0084578959)
(0.09995037 -0.0029436407 -2.6829551e-05)
(0.099674085 -0.0042661609 -3.9441606e-05)
(0.099141683 -0.0046873239 -2.5952145e-05)
(0.098555053 -0.0048009303 1.8285941e-05)
(0.098055118 -0.0047985895 9.5883144e-05)
(0.097680032 -0.004753526 0.00021233751)
(0.09738237 -0.0047305167 0.00037924879)
(0.097076427 -0.00480984 0.00061674425)
(0.096673909 -0.005140691 0.00095632578)
(0.096113153 -0.0060594631 0.0014450721)
(0.09551108 -0.0083469758 0.0021400306)
(0.095751283 -0.013691736 0.0030885939)
(0.09730879 -0.0242045 0.0043116199)
(0.10119459 -0.023985807 0.0041221719)
(0.10622402 -0.017318758 0.0024545428)
(0.10555285 -0.010936732 0.0026500735)
(0.10309283 -0.0052591444 0.0043026963)
(0.098688863 -0.00045079403 0.0069300705)
(0.095469313 0.0024784453 0.01031304)
(0.093177024 0.0031960389 0.014287583)
(0.091959435 0.0030516518 0.017643339)
(0.095418989 0.0040864566 0.019268677)
(0.10536072 0.0082213854 0.018719908)
(0.12347452 0.01701475 0.016739193)
(0.14200401 0.029317025 0.012480521)
(0.15964325 0.044152638 0.0081992186)
(0.17184652 0.060013163 0.0057409625)
(0.1738459 0.078227189 0.0063685624)
(0.16521533 0.10152239 0.010901928)
(0.10659588 0.13526964 0.019618759)
(0.097940528 -0.0015810617 -2.5773088e-05)
(0.09624707 -0.0023505781 -3.6894321e-05)
(0.093567735 -0.002600639 -2.1531517e-05)
(0.09039864 -0.0026621665 2.5534479e-05)
(0.087240481 -0.0026393818 0.00010798238)
(0.084195687 -0.0025621259 0.00023296436)
(0.081174639 -0.0024707316 0.00041686141)
(0.078024009 -0.0024249099 0.00068935225)
(0.074498137 -0.0025312402 0.0011069045)
(0.070126822 -0.0030406315 0.0017777695)
(0.063924788 -0.0046453128 0.0029256329)
(0.053646965 -0.0094910239 0.0051063194)
(0.037220322 -0.022545663 0.010061884)
(-0.0053383884 -0.013953373 0.02010648)
(-0.037090802 0.0034119234 0.017394764)
(-0.056578276 0.005642973 0.013153953)
(-0.071839279 0.0052351316 0.0096244731)
(-0.0791197 0.0019817035 0.004774662)
(-0.080227277 -0.0029318403 -0.0018673501)
(-0.07356255 -0.0078238231 -0.0096472577)
(-0.064253351 -0.011861292 -0.015552637)
(-0.054610903 -0.015161182 -0.019765652)
(-0.044585971 -0.016896886 -0.022798998)
(-0.033269814 -0.015237232 -0.024442929)
(-0.015271462 -0.0074661654 -0.021790218)
(0.015095688 0.014152796 -0.0098585144)
(0.031651176 0.033362317 -0.0065866805)
(0.036820757 0.052561916 -0.00011094319)
(0.042066509 0.078782468 0.011365657)
(0.040834717 0.11494592 0.022717415)
(0.10576098 -0.0024922254 -0.00017130982)
(0.12017325 -0.0025692049 -0.0003021021)
(0.13312708 -0.0023922772 -0.00036885645)
(0.14368992 -0.0019349567 -0.00037308841)
(0.1529601 -0.0012680805 -0.00032070276)
(0.16144686 -0.00056941457 -0.0002126211)
(0.16920412 6.2893122e-05 -5.1101573e-05)
(0.17624202 0.00060871947 0.00016430656)
(0.18262744 0.0010712462 0.00043726815)
(0.18845841 0.0014391254 0.00075504836)
(0.19387521 0.0016619291 0.0010584624)
(0.19912486 0.0016167919 0.0011707727)
(0.20405458 0.0011611261 0.0006449233)
(0.20873631 0.00021590413 -0.0012089803)