/*--------------------------------*- C++ -*----------------------------------*\
| =========                 |                                                 |
| \\      /  F ield         | OpenFOAM: The Open Source CFD Toolbox           |
|  \\    /   O peration     | Version:  v2012                                 |
|   \\  /    A nd           | Website:  www.openfoam.com                      |
|    \\/     M anipulation  |                                                 |
\*---------------------------------------------------------------------------*/
FoamFile
{
    version     2.0;
    format      ascii;
    class       volScalarField;
    location    "100/heater";
    object      T;
}
// * * * * * * * * * * * * * * * * * * * * * * * * * * * * * * * * * * * * * //

dimensions      [0 0 0 1 0 0 0];


internalField   nonuniform List<scalar> 
80
(
566.07304
566.87153
568.43896
570.66126
561.37961
562.36344
564.31552
567.11929
551.21793
552.57603
555.35823
559.49116
534.32542
536.06572
540.06008
546.63016
336.08801
332.98536
333.02104
336.17567
392.33065
388.30193
388.44886
392.6772
436.4203
432.62539
433.02443
437.37697
470.12777
466.99903
468.0007
472.59824
494.40765
492.60061
494.89648
500.61627
509.13477
510.43167
515.03696
524.92738
336.0894
332.98583
333.02194
336.17744
392.33276
388.304
388.45048
392.67901
436.42614
432.62907
433.02464
437.3769
470.14481
467.00432
467.99394
472.58902
494.42682
492.60222
494.87384
500.58471
509.13775
510.42973
515.02559
524.91099
534.32366
536.0569
540.01485
546.58655
551.21963
552.57483
555.34716
559.4697
561.38132
562.36383
564.31277
567.11195
566.07496
566.87293
568.43833
570.65974
)
;

boundaryField
{
    minY
    {
        type            fixedValue;
        value           uniform 300;
    }
    minZ
    {
        type            zeroGradient;
    }
    maxZ
    {
        type            zeroGradient;
    }
    heater_to_topAir
    {
        type            compressible::turbulentTemperatureCoupledBaffleMixed;
        refValue        nonuniform List<scalar> 
40
(
411.89504
414.31177
415.81244
416.35053
398.23495
397.73588
396.28227
394.2051
402.61337
403.25563
402.75974
400.96515
408.29051
411.12732
413.81182
416.28578
407.83489
409.97292
412.2094
414.73714
407.83377
409.9718
412.2079
414.7351
408.28993
411.12625
413.80891
416.28111
402.61666
403.25974
402.76453
400.97062
398.23792
397.73936
396.28615
394.2092
411.89601
414.31315
415.81424
416.35274
)
;
        refGradient     uniform 0;
        valueFraction   nonuniform List<scalar> 
40
(
0.00032132529
0.00032132529
0.00032132529
0.00032132529
0.00032132529
0.00032132529
0.00032132529
0.00032132529
0.00032132529
0.00032132529
0.00032132529
0.00032132529
0.00032132529
0.00032132529
0.00032132529
0.00032132529
0.00032132529
0.00032132529
0.00032132529
0.00032132529
0.00032132529
0.00032132529
0.00032132529
0.00032132529
0.00032132529
0.00032132529
0.00032132529
0.00032132529
0.00032132529
0.00032132529
0.00032132529
0.00032132529
0.00032132529
0.00032132529
0.00032132529
0.00032132529
0.00032132529
0.00032132529
0.00032132529
0.00032132529
)
;
        value           nonuniform List<scalar> 
40
(
565.99771
566.79657
568.36369
570.58499
561.30223
562.28539
564.23598
567.03762
551.14679
552.50441
555.28499
559.41523
534.2639
536.00412
539.99717
546.56494
509.08433
510.38111
514.98486
524.87159
509.08729
510.3792
514.97357
524.85525
534.26214
535.99546
539.95226
546.5215
551.1485
552.50322
555.274
559.39388
561.30393
562.28577
564.23326
567.03032
565.99963
566.79799
568.36305
570.58345
)
;
        Tnbr            T;
        thicknessLayers List<scalar> 0();
        kappaLayers     List<scalar> 0();
        kappaMethod     solidThermo;
        kappa           none;
        alphaAni        none;
        alpha           none;
        field           T;
    }
    heater_to_rightSolid
    {
        type            compressible::turbulentTemperatureCoupledBaffleMixed;
        refValue        nonuniform List<scalar> 10(573.3461 570.51016 564.58253 555.52473 544.6461 544.62685 555.49567 564.55479 570.49987 573.34534);
        refGradient     uniform 0;
        valueFraction   nonuniform List<scalar> 10(0.49999997 0.49999997 0.49999997 0.49999997 0.49999997 0.49999997 0.49999997 0.49999997 0.49999997 0.49999997);
        value           nonuniform List<scalar> 10(571.99034 568.80167 562.02435 551.06577 534.77654 534.75875 551.02952 561.9998 568.79287 571.98918);
        Tnbr            T;
        thicknessLayers List<scalar> 0();
        kappaLayers     List<scalar> 0();
        kappaMethod     solidThermo;
        kappa           none;
        alphaAni        none;
        alpha           none;
        field           T;
    }
    heater_to_leftSolid
    {
        type            compressible::turbulentTemperatureCoupledBaffleMixed;
        refValue        nonuniform List<scalar> 10(595.27014 595.20086 594.93276 594.60016 594.28743 594.29586 594.60611 594.94463 595.20965 595.27474);
        refGradient     uniform 0;
        valueFraction   nonuniform List<scalar> 10(2.0832898e-05 2.0832898e-05 2.0832898e-05 2.0832898e-05 2.0832898e-05 2.0832898e-05 2.0832898e-05 2.0832898e-05 2.0832898e-05 2.0832898e-05);
        value           nonuniform List<scalar> 10(566.04785 561.35535 551.19545 534.30565 509.11865 509.12161 534.30389 551.19715 561.35705 566.04978);
        Tnbr            T;
        thicknessLayers List<scalar> 1(0.001);
        kappaLayers     List<scalar> 1(0.0005);
        kappaMethod     solidThermo;
        kappa           none;
        alphaAni        none;
        alpha           none;
        field           T;
    }
    heater_to_bottomWater
    {
        type            compressible::turbulentTemperatureCoupledBaffleMixed;
        refValue        nonuniform List<scalar> 
92
(
1003.2979
1000.7808
1000.2748
1001.7739
1004.201
1001.1811
1000.1553
1003.4476
992.60563
990.53108
990.96125
994.9638
1006.3615
1002.3202
1000.9614
1004.705
1003.0479
1001.112
1000.8568
1002.1634
998.47493
998.59267
999.60182
999.50259
982.89193
984.59032
996.88806
996.42203
976.62117
976.62117
969.56009
969.56009
979.0495
979.0495
984.03575
984.03575
994.41198
994.84571
991.6442
989.83468
988.07736
985.57592
982.94695
979.46002
963.69114
971.35477
994.64787
1006.473
1002.0977
1001.0912
994.69095
1005.6671
991.50666
1003.4367
1001.4615
1001.1711
989.62531
1002.8638
987.78614
999.596
999.27344
999.80291
985.58603
1000.007
982.95007
987.92298
985.29923
995.69328
979.89683
995.33218
967.28752
976.88167
969.96375
968.87262
969.13857
978.73346
976.88167
969.96375
968.87262
978.73346
992.99658
991.28564
991.09467
993.81817
1004.4153
1001.3828
1000.2402
1003.1119
1003.1894
1000.8328
1000.3665
1002.1521
)
;
        refGradient     uniform 0;
        valueFraction   nonuniform List<scalar> 
92
(
0.0075140686
0.0075140686
0.0075140686
0.0075140686
0.0075140686
0.0075140686
0.0075140686
0.0075140686
0.0075140686
0.0075140686
0.0075140686
0.0075140686
0.0075140686
0.0075140686
0.0075140686
0.0075140686
0.0075140686
0.0075140686
0.0075140686
0.0075140686
0.0075140686
0.0075140686
0.0075140686
0.0075140686
0.0075140686
0.0075140686
0.0075140686
0.0075140686
0.0075140686
0.0075140686
0.0075140686
0.0075140686
0.0075140686
0.0075140686
0.0075140686
0.0075140686
0.0075140679
0.0075140679
0.0075140679
0.0075140679
0.0075140679
0.0075140679
0.0075140679
0.0075140679
0.0075140679
0.0075140679
0.0075140679
0.0075140686
0.0075140686
0.0075140686
0.0075140679
0.0075140686
0.0075140679
0.0075140686
0.0075140686
0.0075140686
0.0075140679
0.0075140686
0.0075140679
0.0075140686
0.0075140686
0.0075140686
0.0075140679
0.0075140686
0.0075140679
0.0075140686
0.0075140686
0.0075140686
0.0075140679
0.0075140686
0.0075140679
0.0075140686
0.0075140686
0.0075140686
0.0075140679
0.0075140686
0.0075140686
0.0075140686
0.0075140686
0.0075140686
0.0075140686
0.0075140686
0.0075140686
0.0075140686
0.0075140686
0.0075140686
0.0075140686
0.0075140686
0.0075140686
0.0075140686
0.0075140686
0.0075140686
)
;
        value           nonuniform List<scalar> 
92
(
569.33277
570.1062
571.65777
573.87418
564.68222
565.63578
567.56508
570.37197
554.51133
555.84339
558.60735
562.73852
341.12287
338.01311
338.03832
341.19743
396.91468
392.90155
393.04545
397.25196
440.6353
436.8696
437.27317
441.59237
473.96903
470.87629
471.96272
476.52221
537.62799
498.01634
539.30173
496.1694
543.33649
498.51882
549.89369
504.23279
341.03308
341.12334
396.82899
397.15932
440.55717
441.48773
473.96945
476.39476
497.91918
504.13751
341.03622
341.12508
338.01191
338.04019
341.12394
341.20642
396.83005
396.91969
392.90624
393.04943
397.15955
397.25903
440.56077
440.64951
436.87836
437.2749
441.48774
441.5961
473.98638
474.02374
470.88689
471.94702
476.38889
476.50487
497.96516
498.03726
496.17408
498.41999
504.08957
504.16167
537.6282
539.29616
543.21544
549.81072
554.51596
555.84787
558.59744
562.70871
564.68552
565.63767
567.56303
570.3622
569.33387
570.108
571.65782
573.87549
)
;
        Tnbr            T;
        thicknessLayers List<scalar> 0();
        kappaLayers     List<scalar> 0();
        kappaMethod     solidThermo;
        kappa           none;
        alphaAni        none;
        alpha           none;
        field           T;
    }
}


// ************************************************************************* //
