/*--------------------------------*- C++ -*----------------------------------*\
| =========                 |                                                 |
| \\      /  F ield         | OpenFOAM: The Open Source CFD Toolbox           |
|  \\    /   O peration     | Version:  v2012                                 |
|   \\  /    A nd           | Website:  www.openfoam.com                      |
|    \\/     M anipulation  |                                                 |
\*---------------------------------------------------------------------------*/
FoamFile
{
    version     2.0;
    format      ascii;
    class       volScalarField;
    location    "550/heater";
    object      T;
}
// * * * * * * * * * * * * * * * * * * * * * * * * * * * * * * * * * * * * * //

dimensions      [0 0 0 1 0 0 0];


internalField   nonuniform List<scalar> 
80
(
734.13666
736.22524
740.28496
746.04512
724.70619
727.15607
731.95883
738.83347
704.95541
708.11998
714.48084
723.85949
672.89565
676.8705
685.42799
699.24748
345.6751
342.94704
342.97169
345.67463
422.64954
419.30284
419.5019
423.04938
488.48607
485.68721
486.37833
490.08715
544.45962
542.7978
544.70223
549.16713
590.73427
591.02178
595.66228
603.23769
626.05159
629.69566
639.19405
658.34471
345.67667
342.95767
342.99311
345.71371
422.65208
419.32969
419.55009
423.10949
488.49633
485.72841
486.4425
490.15514
544.48592
542.85017
544.7811
549.26233
590.80677
591.09975
595.75791
603.34468
626.17229
629.82812
639.34152
658.50596
673.38962
677.39133
685.98229
699.83209
705.72764
708.90925
715.2978
724.70758
725.63767
728.07262
732.87965
739.78573
735.09562
737.13485
741.17022
746.94401
)
;

boundaryField
{
    minY
    {
        type            fixedValue;
        value           uniform 300;
    }
    minZ
    {
        type            zeroGradient;
    }
    maxZ
    {
        type            zeroGradient;
    }
    heater_to_topAir
    {
        type            compressible::turbulentTemperatureCoupledBaffleMixed;
        refValue        nonuniform List<scalar> 
40
(
516.21351
513.5711
508.50781
501.75782
480.27145
468.90892
456.68867
445.82439
490.79135
480.48996
469.39565
458.85587
505.20886
502.02611
501.16811
502.18425
502.62301
500.56701
501.66797
503.99972
502.70478
500.00465
500.48906
502.73005
505.20488
501.10011
499.19
499.22109
490.90299
479.92862
467.92682
456.65653
480.39353
468.9882
456.69261
445.75399
516.44925
513.69949
508.47965
501.55308
)
;
        refGradient     uniform 0;
        valueFraction   nonuniform List<scalar> 
40
(
0.00032132529
0.00032132529
0.00032132529
0.00032132529
0.00032132529
0.00032132529
0.00032132529
0.00032132529
0.00032132529
0.00032132529
0.00032132529
0.00032132529
0.00032132529
0.00032132529
0.00032132529
0.00032132529
0.00032132529
0.00032132529
0.00032132529
0.00032132529
0.00032132529
0.00032132529
0.00032132529
0.00032132529
0.00032132529
0.00032132529
0.00032132529
0.00032132529
0.00032132529
0.00032132529
0.00032132529
0.00032132529
0.00032132529
0.00032132529
0.00032132529
0.00032132529
0.00032132529
0.00032132529
0.00032132529
0.00032132529
)
;
        value           nonuniform List<scalar> 
40
(
734.06661
736.15372
740.2104
745.96637
724.62775
727.07329
731.87057
738.73948
704.88695
708.04713
714.40242
723.77466
672.8423
676.81468
685.36909
699.18448
626.01228
629.6544
639.15003
658.29529
626.13272
629.78651
639.297
658.45604
673.33539
677.33445
685.92209
699.7676
705.65859
708.8357
715.21833
724.62143
725.5589
727.98945
732.79088
739.69118
735.0258
737.06345
741.09577
746.86544
)
;
        Tnbr            T;
        thicknessLayers List<scalar> 0();
        kappaLayers     List<scalar> 0();
        kappaMethod     solidThermo;
        kappa           none;
        alphaAni        none;
        alpha           none;
        field           T;
    }
    heater_to_rightSolid
    {
        type            compressible::turbulentTemperatureCoupledBaffleMixed;
        refValue        nonuniform List<scalar> 10(753.13657 747.25655 735.5229 718.08849 697.55709 697.73201 718.68061 736.38845 748.23025 754.02236);
        refGradient     uniform 0;
        valueFraction   nonuniform List<scalar> 10(0.49999997 0.49999997 0.49999997 0.49999997 0.49999997 0.49999997 0.49999997 0.49999997 0.49999997 0.49999997);
        value           nonuniform List<scalar> 10(749.59072 743.04509 729.69135 708.66814 677.95099 678.11905 709.25634 730.54801 744.00796 750.48333);
        Tnbr            T;
        thicknessLayers List<scalar> 0();
        kappaLayers     List<scalar> 0();
        kappaMethod     solidThermo;
        kappa           none;
        alphaAni        none;
        alpha           none;
        field           T;
    }
    heater_to_leftSolid
    {
        type            compressible::turbulentTemperatureCoupledBaffleMixed;
        refValue        nonuniform List<scalar> 10(912.81533 912.70158 912.56363 912.39475 912.16726 912.24539 912.53224 912.90913 913.31233 913.58699);
        refGradient     uniform 0;
        valueFraction   nonuniform List<scalar> 10(2.0832898e-05 2.0832898e-05 2.0832898e-05 2.0832898e-05 2.0832898e-05 2.0832898e-05 2.0832898e-05 2.0832898e-05 2.0832898e-05 2.0832898e-05);
        value           nonuniform List<scalar> 10(734.14036 724.71021 704.96009 672.90117 626.0579 626.17835 673.39441 705.73193 725.64161 735.09977);
        Tnbr            T;
        thicknessLayers List<scalar> 1(0.001);
        kappaLayers     List<scalar> 1(0.0005);
        kappaMethod     solidThermo;
        kappa           none;
        alphaAni        none;
        alpha           none;
        field           T;
    }
    heater_to_bottomWater
    {
        type            compressible::turbulentTemperatureCoupledBaffleMixed;
        refValue        nonuniform List<scalar> 
92
(
944.55972
942.74526
942.9998
939.70887
937.62693
934.3213
932.21082
931.28004
929.17215
927.65631
924.08294
922.15786
918.00668
917.67524
916.98265
911.55475
919.89658
918.85114
915.7097
913.56527
920.384
916.51818
914.4527
914.54726
920.56913
917.97099
914.20311
913.74484
920.25221
920.25221
918.3671
918.3671
916.41751
916.41751
915.777
915.777
933.79399
918.33999
933.78434
916.21568
930.48521
912.45607
924.14007
910.40192
924.72238
915.11804
933.67007
921.19359
921.49116
920.90101
918.57394
924.10398
933.48864
924.17763
924.54857
923.05019
915.35223
922.31195
931.02845
926.15824
926.59515
924.99483
910.03271
922.00819
927.47041
929.03916
929.91425
928.72454
911.57391
927.5609
929.7907
932.64072
931.68383
930.37256
914.44583
930.42304
932.64072
931.68383
930.37256
930.42304
938.8581
937.09686
935.8184
936.00354
946.80468
940.83588
939.54786
943.25495
944.94082
935.85041
932.9885
933.26635
)
;
        refGradient     uniform 0;
        valueFraction   nonuniform List<scalar> 
92
(
0.0075140686
0.0075140686
0.0075140686
0.0075140686
0.0075140686
0.0075140686
0.0075140686
0.0075140686
0.0075140686
0.0075140686
0.0075140686
0.0075140686
0.0075140686
0.0075140686
0.0075140686
0.0075140686
0.0075140686
0.0075140686
0.0075140686
0.0075140686
0.0075140686
0.0075140686
0.0075140686
0.0075140686
0.0075140686
0.0075140686
0.0075140686
0.0075140686
0.0075140686
0.0075140686
0.0075140686
0.0075140686
0.0075140686
0.0075140686
0.0075140686
0.0075140686
0.0075140679
0.0075140679
0.0075140679
0.0075140679
0.0075140679
0.0075140679
0.0075140679
0.0075140679
0.0075140679
0.0075140679
0.0075140679
0.0075140686
0.0075140686
0.0075140686
0.0075140679
0.0075140686
0.0075140679
0.0075140686
0.0075140686
0.0075140686
0.0075140679
0.0075140686
0.0075140679
0.0075140686
0.0075140686
0.0075140686
0.0075140679
0.0075140686
0.0075140679
0.0075140686
0.0075140686
0.0075140686
0.0075140679
0.0075140686
0.0075140679
0.0075140686
0.0075140686
0.0075140686
0.0075140679
0.0075140686
0.0075140686
0.0075140686
0.0075140686
0.0075140686
0.0075140686
0.0075140686
0.0075140686
0.0075140686
0.0075140686
0.0075140686
0.0075140686
0.0075140686
0.0075140686
0.0075140686
0.0075140686
0.0075140686
)
;
        value           nonuniform List<scalar> 
92
(
735.71777
737.77707
741.80809
747.50007
726.3062
728.71293
733.46373
740.27969
706.64054
709.76988
716.05613
725.34983
349.97597
347.26577
347.28495
349.92672
426.38641
423.05668
423.23058
426.73523
491.73216
488.92486
489.59514
493.27672
547.28685
545.61739
547.47902
551.90684
674.75483
593.21075
678.68548
593.48186
687.16397
598.07272
700.87481
605.58636
350.0946
349.9777
426.49076
426.75514
491.80806
493.26101
547.31369
551.88172
593.24434
605.5814
350.09505
350.0013
347.30491
347.33563
350.01828
350.05984
426.49072
426.42076
423.12608
423.33363
426.80852
426.86081
491.82182
491.78523
489.04134
489.73809
493.31054
493.40052
547.36395
547.37573
545.75881
547.6663
551.98504
552.10516
593.35372
593.37513
593.65897
598.27232
605.68248
605.80254
675.33746
679.30187
687.81848
701.56474
707.47937
710.6239
716.95483
726.29526
727.29956
729.67142
734.43255
741.31454
736.67284
738.6284
742.61187
748.34433
)
;
        Tnbr            T;
        thicknessLayers List<scalar> 0();
        kappaLayers     List<scalar> 0();
        kappaMethod     solidThermo;
        kappa           none;
        alphaAni        none;
        alpha           none;
        field           T;
    }
}


// ************************************************************************* //
