/*--------------------------------*- C++ -*----------------------------------*\
| =========                 |                                                 |
| \\      /  F ield         | OpenFOAM: The Open Source CFD Toolbox           |
|  \\    /   O peration     | Version:  v2012                                 |
|   \\  /    A nd           | Website:  www.openfoam.com                      |
|    \\/     M anipulation  |                                                 |
\*---------------------------------------------------------------------------*/
FoamFile
{
    version     2.0;
    format      ascii;
    class       volScalarField;
    location    "290/rightSolid";
    object      T;
}
// * * * * * * * * * * * * * * * * * * * * * * * * * * * * * * * * * * * * * //

dimensions      [0 0 0 1 0 0 0];


internalField   nonuniform List<scalar> 
130
(
728.92941
736.3973
744.16923
751.8528
759.15768
765.8644
771.84967
777.05676
781.45957
784.97664
787.60492
789.35454
790.23178
723.50961
732.22331
741.08681
749.64816
757.62509
764.81409
771.12929
776.55348
781.08387
784.68966
787.37858
789.16618
790.06318
712.60644
724.19129
735.39798
745.71044
754.93535
762.98486
769.88423
775.67929
780.41787
784.17171
786.95887
788.80387
789.72338
696.29115
713.30788
728.30191
741.09276
751.89955
760.96094
768.50411
774.70612
779.70214
783.61172
786.49099
788.3919
789.34168
676.971
702.93087
722.38645
737.5717
749.69222
759.49959
767.4765
773.93997
779.10542
783.12079
786.06169
787.99535
788.95875
676.80972
702.74352
722.16915
737.31585
749.43249
759.21981
767.16852
773.60275
778.74343
782.75028
785.69162
787.62623
788.58652
695.80145
712.77155
727.68415
740.40833
751.14661
760.13806
767.60658
773.74355
778.68663
782.55642
785.42268
787.31745
788.26122
711.83247
723.32027
734.41133
744.60467
753.70726
761.65545
768.46296
774.18094
778.83973
782.50332
785.22054
787.02915
787.94398
722.57446
731.12468
739.826
748.23159
756.06303
763.14027
769.36539
774.70148
779.10399
782.59199
785.1881
786.911
787.77309
727.89046
735.16871
742.75515
750.27488
757.4434
764.04203
769.93435
775.04599
779.2971
782.68524
785.21458
786.89287
787.7287
)
;

boundaryField
{
    maxX
    {
        type            zeroGradient;
    }
    minZ
    {
        type            zeroGradient;
    }
    maxZ
    {
        type            zeroGradient;
    }
    rightSolid_to_bottomWater
    {
        type            compressible::turbulentTemperatureCoupledBaffleMixed;
        refValue        nonuniform List<scalar> 
130
(
952.17233
953.6649
954.81867
955.45237
958.23934
959.26174
959.36275
960.31841
969.36599
971.43001
971.9582
972.38027
973.14842
949.42038
952.09321
953.58973
954.74257
960.49506
962.82052
962.89643
964.52824
970.78712
972.93381
973.87727
974.63753
976.20728
945.73093
950.77853
953.5014
954.3694
960.36021
962.79895
965.62108
968.28143
966.34294
969.63834
971.51551
972.61334
972.6922
942.35349
950.10007
957.74651
955.40487
957.69198
959.44508
962.16888
964.90966
964.67619
967.06195
967.50327
968.47508
970.15485
945.82582
954.30257
955.26847
961.82209
961.21695
960.26935
960.21365
961.05372
962.67498
966.01083
966.40112
966.97408
968.26707
948.61665
954.0423
954.97662
955.49482
962.22454
960.93231
959.57323
958.28856
957.22026
961.65494
963.56794
965.10351
965.54529
949.85633
953.78732
955.11624
956.11081
957.88377
958.31357
957.53777
957.93807
957.01133
958.71038
962.8249
965.56664
966.49694
946.28798
949.26498
950.54348
950.38818
952.28106
953.31348
954.05225
957.44899
956.66217
955.71113
954.66359
956.14893
960.19012
951.85645
949.8901
949.61109
948.6801
950.00392
951.40282
952.20798
956.95922
956.67459
955.81668
955.03441
954.32485
954.26934
950.71808
950.14091
948.68452
948.26262
950.18025
951.11525
951.60304
956.68964
956.08872
955.6494
955.01974
954.27797
953.39089
)
;
        refGradient     uniform 0;
        valueFraction   nonuniform List<scalar> 
130
(
0.0075140686
0.0075140686
0.0075140686
0.0075140686
0.0075140686
0.0075140686
0.0075140686
0.0075140686
0.0075140686
0.0075140686
0.0075140686
0.0075140686
0.0075140686
0.0075140686
0.0075140686
0.0075140686
0.0075140686
0.0075140686
0.0075140686
0.0075140686
0.0075140686
0.0075140686
0.0075140686
0.0075140686
0.0075140686
0.0075140686
0.0075140686
0.0075140686
0.0075140686
0.0075140686
0.0075140686
0.0075140686
0.0075140686
0.0075140686
0.0075140686
0.0075140686
0.0075140686
0.0075140686
0.0075140686
0.0075140686
0.0075140686
0.0075140686
0.0075140686
0.0075140686
0.0075140686
0.0075140686
0.0075140686
0.0075140686
0.0075140686
0.0075140686
0.0075140686
0.0075140686
0.0075140686
0.0075140686
0.0075140686
0.0075140686
0.0075140686
0.0075140686
0.0075140686
0.0075140686
0.0075140686
0.0075140686
0.0075140686
0.0075140686
0.0075140686
0.0075140686
0.0075140686
0.0075140686
0.0075140686
0.0075140686
0.0075140686
0.0075140686
0.0075140686
0.0075140686
0.0075140686
0.0075140686
0.0075140686
0.0075140686
0.0075140686
0.0075140686
0.0075140686
0.0075140686
0.0075140686
0.0075140686
0.0075140686
0.0075140686
0.0075140686
0.0075140686
0.0075140686
0.0075140686
0.0075140686
0.0075140686
0.0075140686
0.0075140686
0.0075140686
0.0075140686
0.0075140686
0.0075140686
0.0075140686
0.0075140686
0.0075140686
0.0075140686
0.0075140686
0.0075140686
0.0075140686
0.0075140686
0.0075140686
0.0075140686
0.0075140686
0.0075140686
0.0075140686
0.0075140686
0.0075140686
0.0075140686
0.0075140686
0.0075140686
0.0075140686
0.0075140686
0.0075140686
0.0075140686
0.0075140686
0.0075140686
0.0075140686
0.0075140686
0.0075140686
0.0075140686
0.0075140686
0.0075140686
0.0075140686
0.0075140686
)
;
        value           nonuniform List<scalar> 
130
(
730.60299
738.02589
745.74796
753.37842
760.64917
767.31299
773.25388
778.42888
782.86644
786.37246
788.98485
790.72443
791.60082
725.20331
733.87148
742.67948
751.18501
759.14506
766.29732
772.56546
777.961
782.50423
786.09894
788.77465
790.55446
791.45647
714.35445
725.88999
737.03273
747.27407
756.47454
764.4817
771.35026
777.12157
781.80983
785.56013
788.34036
790.17968
791.09284
698.13655
715.08337
730.02195
742.69898
753.44158
762.44788
769.95465
776.13045
781.08703
784.98505
787.84592
789.73978
790.695
678.98785
704.81603
724.13243
739.25261
751.27732
761.00369
768.92008
775.34112
780.47979
784.48995
787.4116
789.33496
790.30081
678.84868
704.62807
723.91451
738.95109
751.02704
760.73093
768.60955
774.98565
780.07955
784.08953
787.02304
788.95457
789.91093
697.70673
714.57866
729.389
742.02487
752.69561
761.6226
769.02904
775.12277
780.02162
783.87501
786.75056
788.65163
789.59526
713.59031
725.01398
736.03115
746.14658
755.19488
763.09102
769.85281
775.55321
780.17097
783.79979
786.48865
788.29474
789.23302
724.29328
732.76433
741.39804
749.73334
757.51576
764.55024
770.73453
776.06611
780.4333
783.88858
786.45926
788.16383
789.019
729.56071
736.77979
744.29814
751.75806
758.88701
765.443
771.29462
776.40596
780.62052
783.97986
786.48543
788.1455
788.96837
)
;
        Tnbr            T;
        thicknessLayers List<scalar> 0();
        kappaLayers     List<scalar> 0();
        kappaMethod     solidThermo;
        kappa           none;
        alphaAni        none;
        alpha           none;
        field           T;
    }
    rightSolid_to_topAir
    {
        type            compressible::turbulentTemperatureCoupledBaffleMixed;
        refValue        nonuniform List<scalar> 
130
(
478.96462
473.71476
468.87136
464.76503
461.52382
459.16642
457.6739
457.02917
457.24435
458.40258
460.74815
464.84002
471.38285
432.37232
427.17648
423.63536
421.31624
419.84942
419.03244
418.81578
419.23171
420.35868
422.37418
425.74304
431.54545
440.36626
436.16862
426.92004
419.31647
413.35291
408.90325
405.86724
404.20012
403.85553
404.73929
406.75788
409.99942
415.45734
427.24488
479.68501
479.95821
479.79131
478.69035
476.59769
473.73062
470.47454
467.17935
464.26971
462.97897
465.90485
474.83541
484.80372
482.97891
487.45473
492.09069
496.60595
500.74007
504.2674
507.02803
508.96514
510.19938
511.21613
513.0279
517.06862
524.99308
485.5905
489.99737
494.64905
499.26756
503.58755
507.3709
510.44693
512.76538
514.49209
516.14132
518.65167
523.38578
532.32446
482.43971
483.96902
484.93828
484.8805
483.6472
481.4152
478.52866
475.45342
473.06358
472.96127
476.8452
483.11643
493.22381
436.87369
428.15266
420.79547
414.78781
410.03186
406.52565
404.36169
403.62149
404.29272
406.30215
409.7316
415.66477
427.29322
431.00602
425.92359
422.58412
420.47005
419.15144
418.39412
418.14458
418.45716
419.45019
421.32681
424.51581
430.09049
439.45612
478.40735
473.15262
468.34548
464.30714
461.14634
458.86132
457.42013
456.80496
457.03804
458.21655
460.58339
464.69861
471.39412
)
;
        refGradient     uniform 0;
        valueFraction   nonuniform List<scalar> 
130
(
0.00032132529
0.00032132529
0.00032132529
0.00032132529
0.00032132529
0.00032132529
0.00032132529
0.00032132529
0.00032132529
0.00032132529
0.00032132529
0.00032132529
0.00032132529
0.00032132529
0.00032132529
0.00032132529
0.00032132529
0.00032132529
0.00032132529
0.00032132529
0.00032132529
0.00032132529
0.00032132529
0.00032132529
0.00032132529
0.00032132529
0.00032132529
0.00032132529
0.00032132529
0.00032132529
0.00032132529
0.00032132529
0.00032132529
0.00032132529
0.00032132529
0.00032132529
0.00032132529
0.00032132529
0.00032132529
0.00032132529
0.00032132529
0.00032132529
0.00032132529
0.00032132529
0.00032132529
0.00032132529
0.00032132529
0.00032132529
0.00032132529
0.00032132529
0.00032132529
0.00032132529
0.00032132529
0.00032132529
0.00032132529
0.00032132529
0.00032132529
0.00032132529
0.00032132529
0.00032132529
0.00032132529
0.00032132529
0.00032132529
0.00032132529
0.00032132529
0.00032132529
0.00032132529
0.00032132529
0.00032132529
0.00032132529
0.00032132529
0.00032132529
0.00032132529
0.00032132529
0.00032132529
0.00032132529
0.00032132529
0.00032132529
0.00032132529
0.00032132529
0.00032132529
0.00032132529
0.00032132529
0.00032132529
0.00032132529
0.00032132529
0.00032132529
0.00032132529
0.00032132529
0.00032132529
0.00032132529
0.00032132529
0.00032132529
0.00032132529
0.00032132529
0.00032132529
0.00032132529
0.00032132529
0.00032132529
0.00032132529
0.00032132529
0.00032132529
0.00032132529
0.00032132529
0.00032132529
0.00032132529
0.00032132529
0.00032132529
0.00032132529
0.00032132529
0.00032132529
0.00032132529
0.00032132529
0.00032132529
0.00032132529
0.00032132529
0.00032132529
0.00032132529
0.00032132529
0.00032132529
0.00032132529
0.00032132529
0.00032132529
0.00032132529
0.00032132529
0.00032132529
0.00032132529
0.00032132529
0.00032132529
0.00032132529
)
;
        value           nonuniform List<scalar> 
130
(
728.84518
736.30889
744.07664
751.75628
759.05759
765.76121
771.74391
776.94897
781.35028
784.86646
787.49454
789.24485
790.12388
723.41222
732.12131
740.98068
749.53839
757.51211
764.69835
771.01127
776.43369
780.96284
784.568
787.25704
789.04586
789.94537
712.51389
724.09185
735.29229
745.59937
754.81974
762.8655
769.76194
775.55483
780.29203
784.04521
786.83242
788.67852
789.60148
696.218
713.22909
728.218
741.00428
751.80675
760.86413
768.40364
774.6024
779.59573
783.50353
786.38273
788.28583
789.23847
676.9053
702.85794
722.30851
737.49012
749.60789
759.41305
767.38811
773.84996
779.01399
783.02829
785.96875
787.90301
788.86861
676.74484
702.67141
722.09204
737.23516
749.34908
759.13429
767.08128
773.51406
778.65352
782.65952
785.60062
787.53605
788.49886
695.72916
712.6941
727.60203
740.32193
751.05619
760.0439
767.50896
773.64283
778.58344
782.45186
785.31836
787.21447
788.16114
711.74022
723.22134
734.30631
744.4943
753.59232
761.53675
768.34125
774.05702
778.71441
782.37738
785.09475
786.9046
787.82283
722.47672
731.02242
739.71973
748.12181
755.95018
763.02481
769.24775
774.58211
778.98342
782.47084
785.06709
786.79118
787.65597
727.80617
735.08025
742.66257
750.17845
757.34353
763.93923
769.82909
774.93878
779.18851
782.57589
785.10515
786.78419
787.62189
)
;
        Tnbr            T;
        thicknessLayers List<scalar> 0();
        kappaLayers     List<scalar> 0();
        kappaMethod     solidThermo;
        kappa           none;
        alphaAni        none;
        alpha           none;
        field           T;
    }
    rightSolid_to_heater
    {
        type            compressible::turbulentTemperatureCoupledBaffleMixed;
        refValue        nonuniform List<scalar> 10(722.23641 715.57976 701.6749 678.66834 640.27936 640.12593 678.14811 700.9537 714.77823 721.37733);
        refGradient     uniform 0;
        valueFraction   nonuniform List<scalar> 10(0.50000003 0.50000003 0.50000003 0.50000003 0.50000003 0.50000003 0.50000003 0.50000003 0.50000003 0.50000003);
        value           nonuniform List<scalar> 10(725.58095 719.54276 707.13881 687.47797 658.6235 658.46611 686.97292 706.39113 718.67432 724.63183);
        Tnbr            T;
        thicknessLayers List<scalar> 0();
        kappaLayers     List<scalar> 0();
        kappaMethod     solidThermo;
        kappa           none;
        alphaAni        none;
        alpha           none;
        field           T;
    }
}


// ************************************************************************* //
