/*--------------------------------*- C++ -*----------------------------------*\
| =========                 |                                                 |
| \\      /  F ield         | OpenFOAM: The Open Source CFD Toolbox           |
|  \\    /   O peration     | Version:  v2012                                 |
|   \\  /    A nd           | Website:  www.openfoam.com                      |
|    \\/     M anipulation  |                                                 |
\*---------------------------------------------------------------------------*/
FoamFile
{
    version     2.0;
    format      ascii;
    class       surfaceScalarField;
    location    "80/topAir";
    object      phi;
}
// * * * * * * * * * * * * * * * * * * * * * * * * * * * * * * * * * * * * * //

dimensions      [1 0 -1 0 0 0 0];
oriented        oriented;


internalField   nonuniform List<scalar> 
3140
(
9.3367825e-06
-1.4484401e-07
7.722505e-08
9.3965021e-06
-1.5299904e-07
9.3621256e-08
9.4717703e-06
-1.656779e-07
9.0871374e-08
9.5381716e-06
-1.4744028e-07
8.1598337e-08
9.5868975e-06
-1.1539268e-07
6.7308425e-08
9.6212357e-06
-8.1109629e-08
4.7483941e-08
9.6471395e-06
-4.766259e-08
2.2534141e-08
9.6741505e-06
-1.7602401e-08
-8.577185e-09
9.7213665e-06
1.7596463e-08
-6.3932985e-08
9.7897879e-06
6.6400093e-08
-1.3390158e-07
9.8914384e-06
1.2862223e-07
-2.2931951e-07
1.0024785e-05
2.2699896e-07
-3.5936628e-07
1.0180512e-05
3.7738919e-07
-5.3211731e-07
1.0349224e-05
5.8834692e-07
-7.5606736e-07
1.0501113e-05
8.8035029e-07
-1.0312599e-06
1.0608453e-05
1.2422328e-06
-1.3486156e-06
1.0655394e-05
1.643324e-06
-1.689338e-06
1.064303e-05
2.0413816e-06
-2.0281235e-06
1.0586431e-05
2.3972951e-06
-2.3398334e-06
1.0507141e-05
2.6863271e-06
-2.6062013e-06
1.0427294e-05
2.89876e-06
-2.8180947e-06
1.0365433e-05
3.0362098e-06
-2.9735396e-06
1.0330166e-05
3.1100248e-06
-3.0739506e-06
1.0316715e-05
3.1353586e-06
-3.1210946e-06
1.0304378e-05
3.1274395e-06
-3.1142774e-06
1.0248507e-05
3.1043283e-06
-3.0476165e-06
1.0059067e-05
3.0978711e-06
-2.9075698e-06
9.5529574e-06
3.1737386e-06
-2.6667442e-06
8.3534e-06
3.4782515e-06
-2.2777813e-06
4.458693e-06
-1.7000608e-06
9.1791303e-06
-1.370259e-07
8.202135e-08
9.1352512e-06
-2.1579917e-07
1.0669163e-07
9.0952922e-06
-2.4037779e-07
1.1468225e-07
9.0739063e-06
-2.4615712e-07
1.2013959e-07
9.074145e-06
-2.3893601e-07
1.2335667e-07
9.0923143e-06
-2.2267372e-07
1.2346369e-07
9.1271981e-06
-2.0281674e-07
1.2035752e-07
9.1802751e-06
-1.841683e-07
1.1359524e-07
9.2610174e-06
-1.6500143e-07
1.0198853e-07
9.3827644e-06
-1.3687483e-07
8.1696596e-08
9.5569091e-06
-9.2842985e-08
4.7539848e-08
9.7926005e-06
-7.295654e-09
-1.1038737e-09
1.0112193e-05
1.5065459e-07
-9.2471608e-08
1.0490769e-05
4.3030963e-07
-2.200448e-07
1.0898015e-05
8.700868e-07
-3.9637736e-07
1.1272395e-05
1.4894543e-06
-6.2090454e-07
1.1552503e-05
2.2414713e-06
-8.7750278e-07
1.1711296e-05
3.0206623e-06
-1.1372985e-06
1.1759759e-05
3.7245601e-06
-1.3749595e-06
1.1729609e-05
4.2973789e-06
-1.580157e-06
1.1659254e-05
4.7248087e-06
-1.7549821e-06
1.1581911e-05
5.0135436e-06
-1.8993134e-06
1.1510437e-05
5.1846551e-06
-2.0025057e-06
1.1438959e-05
5.2625934e-06
-2.0551233e-06
1.1344736e-05
5.2699664e-06
-2.0476762e-06
1.118154e-05
5.229915e-06
-1.9617599e-06
1.0854806e-05
5.1884205e-06
-1.7631684e-06
1.0191223e-05
5.2379695e-06
-1.3999723e-06
8.9293806e-06
5.5549948e-06
-8.1417863e-07
6.3849226e-06
4.1899924e-08
9.2224337e-06
-1.7384396e-07
8.3341343e-08
9.1197552e-06
-2.2228211e-07
1.0916168e-07
8.9925725e-06
-2.3191902e-07
1.1872468e-07
8.8540319e-06
-2.3386571e-07
1.2625061e-07
8.712314e-06
-2.3006068e-07
1.328452e-07
8.5720574e-06
-2.207966e-07
1.3838347e-07
8.434496e-06
-2.0894764e-07
1.4369819e-07
8.2974698e-06
-1.9714333e-07
1.5000948e-07
8.1596352e-06
-1.863695e-07
1.5921372e-07
8.0255948e-06
-1.7644419e-07
1.7362465e-07
7.9068496e-06
-1.6863984e-07
1.9456179e-07
7.8452223e-06
-1.6682378e-07
2.2118271e-07
7.897712e-06
-1.4869255e-07
2.4691507e-07
8.1086913e-06
-4.6281082e-08
2.6574271e-07
8.5276039e-06
1.7734152e-07
2.7409247e-07
9.0992257e-06
6.5483031e-07
2.6343273e-07
9.6794786e-06
1.4228634e-06
2.3895413e-07
1.0161914e-05
2.3022602e-06
2.3669229e-07
1.0519378e-05
3.0830788e-06
2.8481435e-07
1.075967e-05
3.6820827e-06
3.758221e-07
1.0906585e-05
4.0982947e-06
4.8040643e-07
1.0994112e-05
4.3541759e-06
5.7261778e-07
1.1030008e-05
4.4679035e-06
6.8159746e-07
1.1001819e-05
4.4656194e-06
8.2587172e-07
1.0882057e-05
4.3790358e-06
1.0113755e-06
1.0643464e-05
4.2438284e-06
1.2253473e-06
1.0222185e-05
4.1000844e-06
1.5102753e-06
9.5112005e-06
4.0278089e-06
1.9218112e-06
8.3151393e-06
4.2345295e-06
2.5172135e-06
5.195435e-06
3.4051869e-06
9.0136923e-06
8.14123e-08
8.6852758e-06
1.0613429e-07
8.338772e-06
1.1458469e-07
7.9844657e-06
1.2044053e-07
7.6292819e-06
1.2512319e-07
7.279836e-06
1.286494e-07
6.9388811e-06
1.3200755e-07
6.6050615e-06
1.3667677e-07
6.2741211e-06
1.4457179e-07
5.9392977e-06
1.5838061e-07
5.5886889e-06
1.8197116e-07
5.2004073e-06
2.2146108e-07
4.7641881e-06
2.8753278e-07
4.3242973e-06
3.9362425e-07
3.9463994e-06
5.5530004e-07
3.791365e-06
8.1007465e-07
4.0134329e-06
1.2012537e-06
4.5854304e-06
1.7309321e-06
5.3324504e-06
2.3368416e-06
6.0987311e-06
2.9166279e-06
6.7991059e-06
3.3987493e-06
7.3882353e-06
3.7658574e-06
7.8500271e-06
4.0068939e-06
8.1626725e-06
4.1537244e-06
8.3023677e-06
4.2400624e-06
8.2411731e-06
4.3057213e-06
7.9485878e-06
4.3933514e-06
7.4330644e-06
4.5440049e-06
6.8976225e-06
4.7706448e-06
4.9044701e-06
9.4544036e-06
-1.4329744e-07
3.5281874e-08
9.6409287e-06
-1.5182428e-07
5.9260033e-08
9.8351452e-06
-1.7086423e-07
6.7975922e-08
1.0013139e-05
-1.6482314e-07
6.8978404e-08
1.0163638e-05
-1.4844406e-07
6.588278e-08
1.028801e-05
-1.3506778e-07
5.8874343e-08
1.0391003e-05
-1.2728637e-07
4.7578333e-08
1.0479037e-05
-1.2658e-07
3.0767521e-08
1.0549857e-05
-1.3710125e-07
3.1876784e-09
1.0604107e-05
-1.621622e-07
-2.5117431e-08
1.0644593e-05
-2.0433327e-07
-6.4578962e-08
1.067361e-05
-2.691696e-07
-1.1830785e-07
1.0689027e-05
-3.5624721e-07
-1.9038071e-07
1.0706892e-05
-4.8554225e-07
-2.8751434e-07
1.0730766e-05
-6.4043969e-07
-4.1386024e-07
1.0768235e-05
-8.1382547e-07
-5.7147092e-07
1.0826244e-05
-9.8579271e-07
-7.6081065e-07
1.0903988e-05
-1.1245053e-06
-9.8065265e-07
1.0991623e-05
-1.2008182e-06
-1.2259602e-06
1.1078133e-05
-1.2080928e-06
-1.4839348e-06
1.1159275e-05
-1.1645743e-06
-1.7339766e-06
1.1241015e-05
-1.0987202e-06
-1.9558677e-06
1.1332055e-05
-1.0254165e-06
-2.1388701e-06
1.1437212e-05
-9.4870405e-07
-2.2768292e-06
1.1553866e-05
-8.6559111e-07
-2.3646009e-06
1.1665329e-05
-7.6292052e-07
-2.3953994e-06
1.172685e-05
-6.057473e-07
-2.3625593e-06
1.1648561e-05
-3.2455259e-07
-2.2630898e-06
1.1171533e-05
3.0858252e-07
-2.1084864e-06
2.2638297e-06
-1.8922798e-06
9.3077942e-06
-1.378357e-07
3.7735071e-08
9.4135322e-06
-2.1826198e-07
6.7403598e-08
9.5209813e-06
-2.4608819e-07
8.2479867e-08
9.644339e-06
-2.5845085e-07
9.0445011e-08
9.7856383e-06
-2.6144563e-07
9.5108338e-08
9.937598e-06
-2.6023496e-07
9.6735572e-08
1.0095953e-05
-2.6025309e-07
9.50492e-08
1.0259437e-05
-2.6592382e-07
8.9551303e-08
1.0427192e-05
-2.8173481e-07
7.8978871e-08
1.0598628e-05
-3.1304317e-07
6.1268201e-08
1.0774034e-05
-3.658013e-07
3.3742042e-08
1.0958937e-05
-4.4732363e-07
-7.7016834e-09
1.1147771e-05
-5.6635504e-07
-7.104024e-08
1.1335109e-05
-7.309406e-07
-1.6182391e-07
1.1529231e-05
-9.4011903e-07
-2.9066129e-07
1.1737232e-05
-1.1759491e-06
-4.6662739e-07
1.1965137e-05
-1.3966637e-06
-6.9438488e-07
1.2203539e-05
-1.5302966e-06
-9.6975059e-07
1.2429462e-05
-1.5280447e-06
-1.2734814e-06
1.2620249e-05
-1.4033734e-06
-1.5754698e-06
1.2768199e-05
-1.2186173e-06
-1.8486776e-06
1.2894443e-05
-1.0445392e-06
-2.0795117e-06
1.3014388e-05
-8.7902793e-07
-2.268594e-06
1.3134873e-05
-7.0858989e-07
-2.4154578e-06
1.326511e-05
-5.3618979e-07
-2.5070293e-06
1.345028e-05
-3.8804583e-07
-2.5214954e-06
1.3784433e-05
-2.5041376e-07
-2.4523206e-06
1.44645e-05
-9.6902811e-08
-2.3073252e-06
1.5852259e-05
2.27387e-07
-2.1203382e-06
7.252837e-07
-1.9107009e-06
9.3522237e-06
-1.7604049e-07
3.82794e-08
9.3997365e-06
-2.2531997e-07
6.8707061e-08
9.4232851e-06
-2.3601514e-07
8.510376e-08
9.4367966e-06
-2.406746e-07
9.4964256e-08
9.447284e-06
-2.412708e-07
1.0218522e-07
9.4562753e-06
-2.3822015e-07
1.073811e-07
9.46355e-06
-2.3464469e-07
1.1082024e-07
9.4682235e-06
-2.3352095e-07
1.1294025e-07
9.4689745e-06
-2.3739005e-07
1.1412706e-07
9.4643818e-06
-2.4942427e-07
1.1461001e-07
9.4535237e-06
-2.7452092e-07
1.1415348e-07
9.4370402e-06
-3.20822e-07
1.1118116e-07
9.4164499e-06
-4.0061181e-07
1.0178208e-07
9.3983283e-06
-5.2806379e-07
8.1012488e-08
9.3998419e-06
-7.1355599e-07
4.604893e-08
9.4466904e-06
-9.486749e-07
-1.0643722e-08
9.5871869e-06
-1.1666931e-06
-1.3144003e-07
9.821714e-06
-1.2510968e-06
-2.7690881e-07
1.0119204e-05
-1.1223173e-06
-4.1820761e-07
1.043283e-05
-8.2339598e-07
-5.1752835e-07
1.0703486e-05
-4.5005512e-07
-5.5853112e-07
1.086148e-05
-8.2752049e-08
-5.4686885e-07
1.0947537e-05
1.6149322e-07
-4.4463311e-07
1.0981657e-05
3.1775114e-07
-2.3418512e-07
1.0963557e-05
4.4178765e-07
5.1951362e-08
1.0936125e-05
5.1823364e-07
3.4699542e-07
1.0887423e-05
5.4749021e-07
7.6160287e-07
1.0829256e-05
5.5331205e-07
1.3303223e-06
1.0908409e-05
5.8752338e-07
2.0785101e-06
7.0391011e-07
3.1203057e-06
9.1371344e-06
3.7185968e-08
8.9516301e-06
6.6318517e-08
8.7485319e-06
8.1667634e-08
8.5377328e-06
9.0565016e-08
8.3247396e-06
9.6845532e-08
8.1139318e-06
1.0123709e-07
7.907127e-06
1.041679e-07
7.7039117e-06
1.0637159e-07
7.5023747e-06
1.0871944e-07
7.2990826e-06
1.1224946e-07
7.0881397e-06
1.183947e-07
6.8594364e-06
1.2934442e-07
6.597685e-06
1.4867543e-07
6.2819667e-06
1.8128385e-07
5.8897125e-06
2.3401232e-07
5.4258237e-06
3.2534153e-07
4.9637515e-06
4.9680221e-07
4.642187e-06
8.0178094e-07
4.585014e-06
1.2723103e-06
4.7913841e-06
1.8876293e-06
5.1702328e-06
2.5706743e-06
5.6340258e-06
3.2201428e-06
6.0601666e-06
3.7430149e-06
6.3812248e-06
4.1511456e-06
6.5814581e-06
4.4823163e-06
6.6371356e-06
4.7689576e-06
6.5335082e-06
5.0451366e-06
6.2859039e-06
5.3455805e-06
5.9507885e-06
5.6939382e-06
6.0577571e-06
9.42955e-06
-1.4406517e-07
1.8960069e-08
9.6070679e-06
-1.5148967e-07
3.3571497e-08
9.8020237e-06
-1.6820425e-07
4.1681396e-08
9.9843093e-06
-1.5805398e-07
4.5298317e-08
1.0141575e-05
-1.3709119e-07
4.6338774e-08
1.0274001e-05
-1.184749e-07
4.5619815e-08
1.0383973e-05
-1.0511636e-07
4.3477002e-08
1.0473454e-05
-9.8066222e-08
4.0157231e-08
1.0540021e-05
-9.8433692e-08
3.5902119e-08
1.0589645e-05
-1.0553893e-07
3.1682009e-08
1.0620685e-05
-1.2148815e-07
2.6784496e-08
1.0629973e-05
-1.4785408e-07
2.1197493e-08
1.0609983e-05
-1.8450229e-07
1.506679e-08
1.0578207e-05
-2.591943e-07
4.3932808e-09
1.0531831e-05
-3.5758679e-07
-8.9875742e-09
1.0476971e-05
-4.9165293e-07
-2.4090603e-08
1.0430263e-05
-6.6953997e-07
-4.375194e-08
1.0414719e-05
-8.9338529e-07
-7.0983333e-08
1.0451181e-05
-1.1492175e-06
-1.1253355e-07
1.0544244e-05
-1.3995685e-06
-1.7680634e-07
1.0680683e-05
-1.6011755e-06
-2.6863029e-07
1.0843625e-05
-1.7338173e-06
-3.8436553e-07
1.1022313e-05
-1.8050343e-06
-5.1186445e-07
1.1216275e-05
-1.8328364e-06
-6.3725893e-07
1.142694e-05
-1.8268271e-06
-7.4771171e-07
1.1646276e-05
-1.7751477e-06
-8.3883521e-07
1.1837927e-05
-1.6366647e-06
-9.1677287e-07
1.186183e-05
-1.288077e-06
-9.9812292e-07
1.1371962e-05
-4.6467696e-07
-1.1531182e-06
1.8319e-06
-1.5256265e-06
9.2799121e-06
-1.3738813e-07
2.0115574e-08
9.3755489e-06
-2.1713569e-07
3.7425019e-08
9.4846529e-06
-2.4333815e-07
4.8532691e-08
9.6152329e-06
-2.5303267e-07
5.4879137e-08
9.7674165e-06
-2.5243105e-07
5.8314192e-08
9.9327528e-06
-2.464111e-07
5.9400231e-08
1.0104933e-05
-2.4018183e-07
5.801486e-08
1.0280006e-05
-2.3733034e-07
5.3840339e-08
1.045475e-05
-2.4044977e-07
4.6364378e-08
1.0627673e-05
-2.5194306e-07
3.4878738e-08
1.0796895e-05
-2.7482292e-07
1.7999352e-08
1.0961355e-05
-3.1364603e-07
-6.2103444e-09
1.1120151e-05
-3.7528514e-07
-3.8884162e-08
1.1256584e-05
-4.7221972e-07
-8.5055169e-08
1.1373841e-05
-6.158563e-07
-1.4947202e-07
1.1471334e-05
-8.1542063e-07
-2.4018201e-07
1.1552473e-05
-1.0769757e-06
-3.6792966e-07
1.1630401e-05
-1.395357e-06
-5.4556239e-07
1.1716615e-05
-1.7246057e-06
-7.8416802e-07
1.1807787e-05
-1.9841077e-06
-1.0819512e-06
1.188793e-05
-2.1173811e-06
-1.4124357e-06
1.1947867e-05
-2.141899e-06
-1.7311562e-06
1.1993702e-05
-2.1179715e-06
-2.0012503e-06
1.2042463e-05
-2.0932004e-06
-2.2035829e-06
1.2116364e-05
-2.0736502e-06
-2.3338033e-06
1.2244518e-05
-2.0230171e-06
-2.4014375e-06
1.2517876e-05
-1.9289294e-06
-2.4330279e-06
1.3182082e-05
-1.7573384e-06
-2.5018385e-06
1.4710265e-05
-1.3723388e-06
-2.7403666e-06
-5.1850834e-07
-2.9772202e-06
9.3251373e-06
-1.7561344e-07
2.0324439e-08
9.3632613e-06
-2.244632e-07
3.7910722e-08
9.3895302e-06
-2.3414005e-07
4.9637486e-08
9.4120282e-06
-2.3749403e-07
5.6928995e-08
9.4366679e-06
-2.3648104e-07
6.1597885e-08
9.4647128e-06
-2.3132922e-07
6.4258038e-08
9.4954007e-06
-2.2496077e-07
6.4916404e-08
9.527493e-06
-2.1995457e-07
6.3479275e-08
9.5593984e-06
-2.1798383e-07
5.9764892e-08
9.5892989e-06
-2.2062952e-07
5.3407452e-08
9.6149727e-06
-2.3006142e-07
4.3732219e-08
9.6331495e-06
-2.4994353e-07
2.9318518e-08
9.6380714e-06
-2.8618404e-07
7.7782034e-09
9.6190653e-06
-3.4762865e-07
-2.4550999e-08
9.5678961e-06
-4.4653029e-07
-7.2084895e-08
9.4873336e-06
-6.0097016e-07
-1.4450751e-07
9.3703768e-06
-8.3530666e-07
-2.5612592e-07
9.2535439e-06
-1.1356818e-06
-4.1971277e-07
9.1745001e-06
-1.4226529e-06
-6.4104012e-07
9.1443618e-06
-1.5651102e-06
-9.0624271e-07
9.1402954e-06
-1.5006433e-06
-1.1709843e-06
9.1122694e-06
-1.2925435e-06
-1.3679262e-06
9.0538158e-06
-1.0558624e-06
-1.4479791e-06
9.0022216e-06
-8.7204112e-07
-1.4034014e-06
9.0125918e-06
-7.8172431e-07
-1.249943e-06
9.1001649e-06
-7.7396018e-07
-9.8917069e-07
9.3733914e-06
-8.2005865e-07
-6.1997267e-07
9.9883843e-06
-9.1065551e-07
-1.3079142e-07
1.1316948e-05
-1.1069525e-06
4.8514552e-07
-1.7196763e-06
9.1502997e-07
9.1107061e-06
1.9815025e-08
8.9157645e-06
3.6796771e-08
8.7153393e-06
4.795267e-08
8.5136956e-06
5.4714625e-08
8.3151583e-06
5.8901812e-08
8.1238483e-06
6.1217913e-08
7.9412516e-06
6.1804094e-08
7.7669139e-06
6.0755085e-08
7.5994829e-06
5.8167309e-08
7.4370295e-06
5.4074373e-08
7.2767779e-06
4.8586257e-08
7.1142767e-06
4.1904031e-08
6.9423604e-06
3.4410173e-08
6.7492101e-06
2.680878e-08
6.5155884e-06
2.1108528e-08
6.2182428e-06
2.1726624e-08
5.8397654e-06
4.0003371e-08
5.3982764e-06
1.0768943e-07
4.9745438e-06
2.7365701e-07
4.6931818e-06
6.0439369e-07
4.6376771e-06
1.1262679e-06
4.775292e-06
1.7908264e-06
4.9912956e-06
2.4719896e-06
5.203305e-06
3.067897e-06
5.3652208e-06
3.5394343e-06
5.4561839e-06
3.9047545e-06
5.4584144e-06
4.2235379e-06
5.3253923e-06
4.5686151e-06
4.8976441e-06
5.0153844e-06
5.6463147e-06
9.4242007e-06
-1.4407988e-07
8.0022533e-09
9.5943637e-06
-1.5102628e-07
1.4774617e-08
9.7839658e-06
-1.6666789e-07
1.9204815e-08
9.9626013e-06
-1.5445056e-07
2.1666064e-08
1.011726e-05
-1.3052339e-07
2.2835063e-08
1.0247821e-05
-1.0740755e-07
2.3166274e-08
1.0356481e-05
-8.7325665e-08
2.2902192e-08
1.0445404e-05
-7.0167985e-08
2.2213226e-08
1.0516246e-05
-5.5353984e-08
2.1272964e-08
1.0570672e-05
-4.2139134e-08
2.0295246e-08
1.0608438e-05
-2.9731158e-08
1.9689361e-08
1.0627502e-05
-1.6977283e-08
2.0085081e-08
1.0622962e-05
-2.4926521e-09
2.3106917e-08
1.0609021e-05
-4.8777279e-09
2.4222604e-08
1.0586279e-05
-9.1137209e-09
2.3880628e-08
1.0556471e-05
-1.7955197e-08
2.4684613e-08
1.0522005e-05
-3.7364943e-08
2.908671e-08
1.0488241e-05
-7.5574863e-08
3.935253e-08
1.0465537e-05
-1.4395529e-07
5.5097208e-08
1.0470744e-05
-2.5181448e-07
7.072859e-08
1.0522017e-05
-3.9392527e-07
7.4894714e-08
1.0627686e-05
-5.4509876e-07
5.5887554e-08
1.0775798e-05
-6.7642639e-07
1.7239577e-08
1.0957596e-05
-7.6658827e-07
-5.1679022e-08
1.1142149e-05
-8.0673169e-07
-1.2472656e-07
1.1283175e-05
-7.8978791e-07
-1.8924422e-07
1.1290674e-05
-6.7528218e-07
-2.4813825e-07
1.0929199e-05
-3.2186869e-07
-3.1390439e-07
9.4858044e-06
7.6680503e-07
-4.7562543e-07
3.6984017e-06
-8.5744643e-07
9.2736888e-06
-1.3716133e-07
8.4779097e-09
9.3601499e-06
-2.165648e-07
1.6514707e-08
9.4616774e-06
-2.4200788e-07
2.2368058e-08
9.5863145e-06
-2.5024947e-07
2.6076619e-08
9.7332876e-06
-2.4731556e-07
2.8183101e-08
9.89389e-06
-2.3756788e-07
2.9023426e-08
1.0061582e-05
-2.2556435e-07
2.8643464e-08
1.0232286e-05
-2.1389278e-07
2.6959274e-08
1.0403276e-05
-2.0367842e-07
2.3815354e-08
1.0572741e-05
-1.9557427e-07
1.8982532e-08
1.0739366e-05
-1.9026635e-07
1.2061642e-08
1.0902593e-05
-1.8852998e-07
2.285068e-09
1.1063078e-05
-1.9155215e-07
-1.0121297e-08
1.1206007e-05
-2.0746134e-07
-2.519738e-08
1.1334849e-05
-2.4136943e-07
-4.5841117e-08
1.1447922e-05
-2.9570091e-07
-7.5282921e-08
1.1542309e-05
-3.8160499e-07
-1.1784614e-07
1.1617008e-05
-5.1549416e-07
-1.8011257e-07
1.1675207e-05
-7.1414832e-07
-2.719546e-07
1.1727745e-05
-9.7825154e-07
-4.0784762e-07
1.178768e-05
-1.2632078e-06
-6.028888e-07
1.1857904e-05
-1.4861029e-06
-8.6017053e-07
1.1925367e-05
-1.6009228e-06
-1.1439879e-06
1.197115e-05
-1.6268919e-06
-1.3888008e-06
1.1975999e-05
-1.5939489e-06
-1.5511283e-06
1.1944487e-05
-1.5242039e-06
-1.6351459e-06
1.1914087e-05
-1.4009563e-06
-1.6765308e-06
1.1951172e-05
-1.1047333e-06
-1.7555631e-06
1.2185297e-05
-2.5025541e-07
-1.9567988e-06
2.0480331e-06
-2.1881687e-06
9.3191902e-06
-1.7559393e-07
8.5237799e-09
9.3483876e-06
-2.2447583e-07
1.6624586e-08
9.3672396e-06
-2.3389872e-07
2.2676956e-08
9.3838426e-06
-2.3663194e-07
2.6709868e-08
9.4034737e-06
-2.345823e-07
2.9235943e-08
9.4273851e-06
-2.2778222e-07
3.056463e-08
9.4548646e-06
-2.1885364e-07
3.073144e-08
9.4847319e-06
-2.0993659e-07
2.9663073e-08
9.5156435e-06
-2.0203608e-07
2.7220348e-08
9.5460896e-06
-1.9575129e-07
2.3150227e-08
9.5743814e-06
-1.9180496e-07
1.6993721e-08
9.5986436e-06
-1.9135932e-07
7.9033593e-09
9.6171127e-06
-1.9645103e-07
-5.7710907e-09
9.6222134e-06
-2.1213468e-07
-2.4954039e-08
9.6043513e-06
-2.4458306e-07
-5.0981614e-08
9.5528548e-06
-3.014273e-07
-8.7254279e-08
9.4518104e-06
-3.9773687e-07
-1.3891731e-07
9.2882055e-06
-5.5747441e-07
-2.1409393e-07
9.0667855e-06
-8.0767017e-07
-3.2606189e-07
8.8233117e-06
-1.1477446e-06
-4.9322243e-07
8.6021038e-06
-1.4869859e-06
-7.258887e-07
8.4109975e-06
-1.6748229e-06
-9.878912e-07
8.2234096e-06
-1.6731661e-06
-1.1878253e-06
7.996591e-06
-1.5738726e-06
-1.2291605e-06
7.7279553e-06
-1.4682224e-06
-1.1064791e-06
7.5089642e-06
-1.402751e-06
-8.9098396e-07
7.513335e-06
-1.3902057e-06
-6.3437955e-07
8.0833724e-06
-1.4331546e-06
-3.7165481e-07
1.0153222e-05
-1.5151684e-06
-3.1902369e-07
-1.3304099e-06
-9.7988032e-07
9.1048822e-06
8.2873996e-09
8.9011473e-06
1.6055815e-08
8.6934413e-06
2.1759878e-08
8.4860894e-06
2.543447e-08
8.2828105e-06
2.759836e-08
8.0876556e-06
2.8590738e-08
7.9021114e-06
2.849488e-08
7.7256357e-06
2.7294664e-08
7.5568388e-06
2.4928761e-08
7.3939033e-06
2.1259592e-08
7.2346343e-06
1.6051804e-08
7.0761669e-06
9.0140254e-09
6.9135865e-06
5.4218629e-10
6.7411619e-06
-1.2897886e-08
6.5461526e-06
-2.8461004e-08
6.3128293e-06
-4.6371881e-08
6.0200894e-06
-6.4986274e-08
5.6506453e-06
-8.0327258e-08
5.1996977e-06
-8.3024689e-08
4.7007382e-06
-4.4251339e-08
4.2452685e-06
9.5118903e-08
3.9587884e-06
4.0314747e-07
3.8732716e-06
8.8520491e-07
3.9048303e-06
1.4633888e-06
3.9855117e-06
1.991426e-06
4.1157248e-06
2.3726249e-06
4.2849766e-06
2.6648511e-06
4.438767e-06
2.982387e-06
4.4790853e-06
3.4605709e-06
3.970866e-06
9.4214535e-06
-1.4428836e-07
6.9569843e-14
9.5879045e-06
-1.5133651e-07
-5.973716e-14
9.7745285e-06
-1.6696122e-07
-2.7325937e-13
9.9512803e-06
-1.5453238e-07
-5.6301449e-13
1.0104847e-05
-1.3009814e-07
-9.305719e-13
1.0234922e-05
-1.062077e-07
-1.3982024e-12
1.0343643e-05
-8.505704e-08
-1.980218e-12
1.0433177e-05
-6.6506706e-08
-2.6825592e-12
1.0505252e-05
-4.9938965e-08
-3.5207641e-12
1.056106e-05
-3.460625e-08
-4.5949126e-12
1.0601367e-05
-1.9669572e-08
-6.0894985e-12
1.0627398e-05
-4.9606498e-09
-8.3768773e-12
1.0624879e-05
2.6647799e-08
-1.1922486e-11
1.0620751e-05
2.9373406e-08
-1.6726856e-11
1.0610495e-05
3.5164244e-08
-2.3238788e-11
1.0593074e-05
4.3142434e-08
-3.25811e-11
1.0570464e-05
5.2749757e-08
-4.6343133e-11
1.0542374e-05
6.8524929e-08
-6.6632603e-11
1.0510878e-05
8.7716318e-08
-9.701814e-11
1.0479111e-05
1.0367528e-07
-1.4268154e-10
1.0456495e-05
9.877003e-08
-2.0987901e-10
1.0487707e-05
2.6031791e-08
-2.9699084e-10
1.0586081e-05
-7.9757389e-08
-3.8784854e-10
1.0739785e-05
-2.0398094e-07
-4.9211674e-10
1.0907218e-05
-2.9071243e-07
-5.7824748e-10
1.1012969e-05
-2.9349788e-07
-6.23798e-10
1.0938756e-05
-1.7239869e-07
-6.1601319e-10
1.0297512e-05
3.2889044e-07
-6.121118e-10
8.0101827e-06
1.8128804e-06
-2.0850099e-10
5.0877854e-06
3.3155286e-10
9.2703098e-06
-1.3715086e-07
2.3194463e-13
9.3520443e-06
-2.1654428e-07
3.3080548e-13
9.4493212e-06
-2.4184765e-07
4.8220442e-13
9.5706327e-06
-2.4973232e-07
6.5996367e-13
9.7149349e-06
-2.4616808e-07
8.5292034e-13
9.8732544e-06
-2.3543949e-07
1.067005e-12
1.0038891e-05
-2.2196971e-07
1.2999629e-12
1.0207643e-05
-2.0820141e-07
1.5421787e-12
1.0376695e-05
-1.9506098e-07
1.7793323e-12
1.054418e-05
-1.8297548e-07
2.0190651e-12
1.0709126e-05
-1.7240348e-07
2.2135511e-12
1.0870435e-05
-1.6381387e-07
2.3400257e-12
1.1035399e-05
-1.482416e-07
1.9568624e-12
1.1179315e-05
-1.395185e-07
1.0960411e-12
1.1309099e-05
-1.4021395e-07
-4.3265757e-13
1.1423619e-05
-1.4638502e-07
-3.8460875e-12
1.1520875e-05
-1.6204581e-07
-8.9846406e-12
1.1601514e-05
-1.9188503e-07
-1.702014e-11
1.1663019e-05
-2.4536611e-07
-2.9436698e-11
1.170128e-05
-3.4203402e-07
-4.7883475e-11
1.1714219e-05
-5.166797e-07
-7.2226011e-11
1.1699441e-05
-8.1908528e-07
-9.7838493e-11
1.1682168e-05
-1.2062129e-06
-1.200001e-10
1.1627813e-05
-1.5381641e-06
-9.9852782e-11
1.1489869e-05
-1.7036143e-06
-3.267314e-11
1.1280274e-05
-1.7187973e-06
1.1059275e-10
1.1026835e-05
-1.5954036e-06
3.813061e-10
1.0647016e-05
-1.0471257e-06
9.3840357e-10
9.7348081e-06
7.6753153e-07
1.682288e-09
4.8390998e-06
2.6536182e-09
9.3158962e-06
-1.7556652e-07
2.319313e-13
9.3404234e-06
-2.2444699e-07
3.1964897e-13
9.354994e-06
-2.3374114e-07
4.753539e-13
9.3681679e-06
-2.361956e-07
6.7612374e-13
9.3849551e-06
-2.3371787e-07
9.210894e-13
9.406376e-06
-2.2629327e-07
1.2315085e-12
9.4316088e-06
-2.1646744e-07
1.6147362e-12
9.4593619e-06
-2.0628622e-07
2.0825343e-12
9.4881461e-06
-1.9661806e-07
2.656189e-12
9.5161828e-06
-1.8785324e-07
3.3771159e-12
9.5411272e-06
-1.8034369e-07
4.3174435e-12
9.55964e-06
-1.7441089e-07
5.6405449e-12
9.5754996e-06
-1.698584e-07
7.6733204e-12
9.5793395e-06
-1.68297e-07
1.0306771e-11
9.5625432e-06
-1.7438325e-07
1.387016e-11
9.5181774e-06
-1.8925756e-07
1.8733926e-11
9.4351842e-06
-2.1795593e-07
2.5330657e-11
9.2993257e-06
-2.7011095e-07
3.4278963e-11
9.0907669e-06
-3.6286836e-07
4.6540895e-11
8.7832754e-06
-5.2777872e-07
6.2704534e-11
8.3585093e-06
-8.1783584e-07
8.3543764e-11
7.8243514e-06
-1.2728488e-06
1.0813989e-10
7.219473e-06
-1.789075e-06
1.3181766e-10
6.5560823e-06
-2.1036168e-06
1.7943595e-10
5.8815873e-06
-2.1351301e-06
3.008838e-10
5.3656626e-06
-2.0935161e-06
5.9163315e-10
5.2211755e-06
-2.0855035e-06
1.2014539e-09
5.8425682e-06
-2.0414678e-06
2.2820402e-09
7.7339155e-06
-1.4443387e-06
2.5133217e-09
7.1343898e-07
4.3201128e-09
9.1016692e-06
2.3159188e-13
8.8932776e-06
3.1327088e-13
8.6812958e-06
4.5354895e-13
8.4705339e-06
6.3949447e-13
8.2644136e-06
8.6772899e-13
8.06671e-06
1.1577699e-12
7.8787361e-06
1.5211733e-12
7.699743e-06
1.9841863e-12
7.5280519e-06
2.5656217e-12
7.3614559e-06
3.3296017e-12
7.1971612e-06
4.3703162e-12
7.0317604e-06
5.855242e-12
6.8624388e-06
8.0664303e-12
6.6812362e-06
1.1165937e-11
6.4783809e-06
1.5588786e-11
6.2427351e-06
2.2012185e-11
5.9597687e-06
3.1343308e-11
5.6092947e-06
4.4977479e-11
5.1633493e-06
6.4830822e-11
4.5912462e-06
9.3427569e-11
3.8684532e-06
1.3447636e-10
2.998783e-06
1.9444408e-10
2.0952614e-06
2.9453822e-10
1.4557372e-06
4.7374906e-10
1.3126252e-06
7.7356632e-10
1.5916803e-06
1.2416678e-09
2.1700548e-06
1.9585923e-09
3.108747e-06
3.0761782e-09
5.121364e-06
4.3760821e-09
4.2375539e-10
9.4214534e-06
-1.4428838e-07
-8.0019833e-09
9.5879043e-06
-1.5133673e-07
-1.4774424e-08
9.7745282e-06
-1.6696169e-07
-1.920477e-08
9.9512798e-06
-1.5453316e-07
-2.1666259e-08
1.0104846e-05
-1.3009927e-07
-2.2835579e-08
1.0234921e-05
-1.0620932e-07
-2.3167174e-08
1.0343641e-05
-8.5059287e-08
-2.2903542e-08
1.0433175e-05
-6.6509715e-08
-2.2215084e-08
1.0505249e-05
-4.9942755e-08
-2.1275418e-08
1.0561056e-05
-3.461099e-08
-2.0298469e-08
1.060136e-05
-1.9675073e-08
-1.969348e-08
1.0627387e-05
-4.9679768e-09
-2.008993e-08
1.0624862e-05
2.6635194e-08
-2.3111933e-08
1.0620723e-05
2.9356229e-08
-2.4228059e-08
1.0610451e-05
3.513907e-08
-2.3885877e-08
1.0593006e-05
4.3105805e-08
-2.4689575e-08
1.0570362e-05
5.2696167e-08
-2.9090778e-08
1.0542219e-05
6.8445736e-08
-3.9354489e-08
1.0510646e-05
8.7597023e-08
-5.5094966e-08
1.0478773e-05
1.0348766e-07
-7.0719725e-08
1.0456055e-05
9.8438123e-08
-7.4880536e-08
1.0487188e-05
2.5513818e-08
-5.5885581e-08
1.0585461e-05
-8.0410612e-08
-1.7259844e-08
1.0739172e-05
-2.0499541e-07
5.1701046e-08
1.0906684e-05
-2.9204632e-07
1.2482501e-07
1.1012588e-05
-2.9507921e-07
1.8942299e-07
1.0938518e-05
-1.7405096e-07
2.4841247e-07
1.0298724e-05
3.258187e-07
3.1429889e-07
8.0142689e-06
1.8093272e-06
4.7588474e-07
5.0842107e-06
8.5754485e-07
9.2703099e-06
-1.3715087e-07
-8.477553e-09
9.3520444e-06
-2.1654438e-07
-1.6514253e-08
9.4493214e-06
-2.4184788e-07
-2.2367399e-08
9.570633e-06
-2.4973271e-07
-2.6075735e-08
9.7149352e-06
-2.461687e-07
-2.8181955e-08
9.8732548e-06
-2.3544043e-07
-2.9021998e-08
1.0038891e-05
-2.2197106e-07
-2.8641729e-08
1.0207643e-05
-2.0820329e-07
-2.6957199e-08
1.0376695e-05
-1.9506346e-07
-2.3812892e-08
1.0544179e-05
-1.8297863e-07
-1.8979637e-08
1.0709125e-05
-1.7240729e-07
-1.2058278e-08
1.0870431e-05
-1.6381824e-07
-2.2809375e-09
1.1035391e-05
-1.4824986e-07
1.0125627e-08
1.11793e-05
-1.3953264e-07
2.5202717e-08
1.1309075e-05
-1.4023737e-07
4.5847448e-08
1.1423581e-05
-1.4642264e-07
7.5290699e-08
1.1520815e-05
-1.6210429e-07
1.1785585e-07
1.1601418e-05
-1.9197408e-07
1.8012432e-07
1.1662865e-05
-2.455007e-07
2.7196829e-07
1.1701034e-05
-3.4224234e-07
4.0786464e-07
1.1713815e-05
-5.1702796e-07
6.0291847e-07
1.1698866e-05
-8.1968947e-07
8.6023253e-07
1.1681445e-05
-1.207024e-06
1.1440546e-06
1.162691e-05
-1.5392505e-06
1.3888532e-06
1.1488849e-05
-1.7049348e-06
1.5511661e-06
1.1279317e-05
-1.7202658e-06
1.6351908e-06
1.1026458e-05
-1.596996e-06
1.6766546e-06
1.0648349e-05
-1.0503075e-06
1.7558374e-06
9.7429461e-06
7.598625e-07
1.9574716e-06
4.8285042e-06
2.1885242e-06
9.3158963e-06
-1.7556652e-07
-8.523385e-09
9.3404235e-06
-2.2444702e-07
-1.6624082e-08
9.3549943e-06
-2.3374122e-07
-2.267624e-08
9.3681683e-06
-2.3619574e-07
-2.6708887e-08
9.3849556e-06
-2.337181e-07
-2.9234629e-08
9.4063767e-06
-2.2629361e-07
-3.0562916e-08
9.4316097e-06
-2.1646794e-07
-3.0729242e-08
9.4593629e-06
-2.0628689e-07
-2.9660296e-08
9.4881474e-06
-1.9661897e-07
-2.7216883e-08
9.5161846e-06
-1.878544e-07
-2.3145946e-08
9.5411301e-06
-1.8034512e-07
-1.6988506e-08
9.5596454e-06
-1.744127e-07
-7.8971673e-09
9.5755072e-06
-1.698611e-07
5.7787184e-09
9.5793501e-06
-1.6830169e-07
2.4962106e-08
9.5625576e-06
-1.7439144e-07
5.0990396e-08
9.5181958e-06
-1.8927125e-07
8.7263775e-08
9.4352072e-06
-2.1797792e-07
1.3892689e-07
9.2993549e-06
-2.7014542e-07
2.1410181e-07
9.0908009e-06
-3.6292268e-07
3.2606986e-07
8.7833082e-06
-5.2786508e-07
4.9322702e-07
8.3585076e-06
-8.1798099e-07
7.2588722e-07
7.8242138e-06
-1.2731101e-06
9.8790051e-07
7.2191908e-06
-1.7895137e-06
1.187861e-06
6.5557076e-06
-2.1043073e-06
1.2292162e-06
5.8813619e-06
-2.1360706e-06
1.1065518e-06
5.3661904e-06
-2.0946986e-06
8.9112863e-07
5.2236762e-06
-2.0870318e-06
6.3474598e-07
5.848347e-06
-2.0440524e-06
3.7234387e-07
7.7469429e-06
-1.4525782e-06
3.1737219e-07
7.0049521e-07
9.7506855e-07
9.1016692e-06
-8.2869901e-09
8.8932777e-06
-1.6055285e-08
8.681296e-06
-2.1759127e-08
8.4705343e-06
-2.543345e-08
8.264414e-06
-2.7596997e-08
8.0667106e-06
-2.8588952e-08
7.878737e-06
-2.849258e-08
7.6997443e-06
-2.729174e-08
7.5280537e-06
-2.4925079e-08
7.3614586e-06
-2.1254994e-08
7.1971655e-06
-1.6046139e-08
7.0317679e-06
-9.0071976e-09
6.8624507e-06
-5.3317446e-10
6.6812545e-06
1.2909116e-08
6.478409e-06
2.8474135e-08
6.2427777e-06
4.6387758e-08
5.9598324e-06
6.5005891e-08
5.6093894e-06
8.0351804e-08
5.1634881e-06
8.3055794e-08
4.5914386e-06
4.4298338e-08
3.8687014e-06
-9.5050911e-08
2.9990488e-06
-4.0303745e-07
2.0954828e-06
-8.8501003e-07
1.4558856e-06
-1.4630585e-06
1.3128527e-06
-1.9908977e-06
1.5924112e-06
-2.3718267e-06
2.172038e-06
-2.6637139e-06
3.1127734e-06
-2.9808617e-06
5.1243932e-06
-3.4590606e-06
-3.9749962e-06
9.4242004e-06
-1.4407974e-07
-1.8959711e-08
9.5943633e-06
-1.5102629e-07
-3.3571088e-08
9.7839653e-06
-1.666682e-07
-4.1680862e-08
9.9626006e-06
-1.5445119e-07
-4.5297708e-08
1.011726e-05
-1.3052435e-07
-4.6338102e-08
1.024782e-05
-1.0740895e-07
-4.5619022e-08
1.0356479e-05
-8.7327655e-08
-4.3476011e-08
1.0445402e-05
-7.0170635e-08
-4.0155907e-08
1.0516243e-05
-5.5357395e-08
-3.5900383e-08
1.0570669e-05
-4.2143741e-08
-3.1679743e-08
1.0608433e-05
-2.9737107e-08
-2.6781535e-08
1.0627495e-05
-1.6984326e-08
-2.1193472e-08
1.0622955e-05
-2.5029206e-09
-1.5060727e-08
1.0609013e-05
-4.889767e-09
-4.3856033e-09
1.0586264e-05
-9.1247331e-09
8.9990851e-09
1.0556451e-05
-1.7968805e-08
2.4104678e-08
1.0521976e-05
-3.7381689e-08
4.3774282e-08
1.0488196e-05
-7.5594712e-08
7.1017467e-08
1.0465466e-05
-1.439783e-07
1.1258512e-07
1.0470634e-05
-2.5184429e-07
1.7688405e-07
1.0521857e-05
-3.939785e-07
2.6874768e-07
1.0627473e-05
-5.4521931e-07
3.8454166e-07
1.0775535e-05
-6.7665528e-07
5.1212357e-07
1.0957344e-05
-7.6694676e-07
6.3762872e-07
1.1141999e-05
-8.0723067e-07
7.4820668e-07
1.1283233e-05
-7.9042838e-07
8.3944586e-07
1.1291067e-05
-6.7603278e-07
9.1746202e-07
1.0930248e-05
-3.2283546e-07