/*--------------------------------*- C++ -*----------------------------------*\
| =========                 |                                                 |
| \\      /  F ield         | OpenFOAM: The Open Source CFD Toolbox           |
|  \\    /   O peration     | Version:  v2012                                 |
|   \\  /    A nd           | Website:  www.openfoam.com                      |
|    \\/     M anipulation  |                                                 |
\*---------------------------------------------------------------------------*/
FoamFile
{
    version     2.0;
    format      ascii;
    class       volScalarField;
    location    "80/topAir";
    object      rho;
}
// * * * * * * * * * * * * * * * * * * * * * * * * * * * * * * * * * * * * * //

dimensions      [1 -3 0 0 0 0 0];


internalField   nonuniform List<scalar> 
1200
(
1.1199579
1.0857223
1.0561931
1.0303088
1.0072104
0.98630261
0.96716914
0.94954407
0.93341696
0.91890511
0.90588877
0.89430886
0.88420793
0.87727648
0.87180497
0.86795387
0.8658285
0.86537793
0.86634382
0.86830487
0.87079563
0.87340598
0.87580622
0.87773772
0.87899079
0.8793529
0.87850838
0.87587235
0.87063203
0.86246475
1.157752
1.1560954
1.1538057
1.1509828
1.1477054
1.1440352
1.1400229
1.1357053
1.1306961
1.1242467
1.1160321
1.1051538
1.0913572
1.0747037
1.0555168
1.0351063
1.0153229
0.99781625
0.9835598
0.97281981
0.96537043
0.96067143
0.95794756
0.95636216
0.95512165
0.95342036
0.95023372
0.94391841
0.93136287
0.90852598
1.1586002
1.1585451
1.1584422
1.1582815
1.158054
1.157752
1.1573688
1.1568982
1.1563237
1.1556104
1.1547133
1.15353
1.1508641
1.1450717
1.1342787
1.1173842
1.0952208
1.0704484
1.046102
1.0244059
1.0064661
0.99249631
0.98210514
0.97457396
0.96907217
0.96474753
0.96065836
0.95550328
0.94686651
0.93067437
1.1586181
1.1586163
1.1586119
1.1586034
1.1585888
1.1585656
1.158531
1.1584817
1.1584136
1.1583208
1.1581951
1.1580206
1.1577264
1.1571028
1.1549219
1.1476504
1.1314253
1.1077146
1.0818331
1.0575295
1.0363758
1.0188036
1.0046983
0.99362949
0.98499868
0.97814203
0.97233453
0.96662113
0.95924469
0.94703085
1.1199348
1.0860558
1.057166
1.0321483
1.0101332
0.99055985
0.97305333
0.95736597
0.94337099
0.93104771
0.92044204
0.91168843
0.90495273
0.90246852
0.90209476
0.9036876
0.9068365
0.91084116
0.91491098
0.91847182
0.92129479
0.92339284
0.92478037
0.92541575
0.9252018
0.92390387
0.92092511
0.91488934
0.90468925
0.89325049
1.1577525
1.1561264
1.1539226
1.151258
1.1482265
1.1449061
1.141366
1.1376727
1.1338911
1.1300914
1.126377
1.1228943
1.1197246
1.1170534
1.1149574
1.1134123
1.1122285
1.1110054
1.1093261
1.1070345
1.1042517
1.1011844
1.097857
1.0942579
1.0903943
1.0862539
1.0818033
1.0769832
1.0676546
1.0384209
1.1586003
1.1585466
1.158449
1.1583004
1.1580954
1.1578306
1.1575036
1.1571138
1.156662
1.1561499
1.1555815
1.1549617
1.1542596
1.1533937
1.1522214
1.1505354
1.1479446
1.1436329
1.1369403
1.1282597
1.1187681
1.1095533
1.0994476
1.0878456
1.0747833
1.0611095
1.0467776
1.0314109
1.0149217
0.99583806
1.1586181
1.1586164
1.1586123
1.1586046
1.1585918
1.1585721
1.1585438
1.1585049
1.1584531
1.158386
1.1583009
1.1581935
1.1580526
1.157839
1.1573506
1.1557188
1.1505826
1.1386908
1.1191718
1.0952878
1.0714265
1.0502106
1.0334051
1.0202489
1.0096863
1.0007877
0.99276214
0.98489473
0.97626841
0.9655711
1.119926
1.085968
1.0569947
1.0318896
1.0097731
0.99007162
0.97239577
0.95647816
0.94214303
0.92926252
0.91778622
0.9077097
0.89911731
0.89495692
0.89248772
0.89198271
0.8937583
0.89803641
0.90466989
0.91281855
0.92111297
0.9283026
0.93372689
0.93727516
0.93907046
0.93909676
0.93686215
0.93056833
0.91591258
0.89605624
1.1577521
1.1561199
1.153906
1.1512302
1.1481879
1.1448567
1.141303
1.1375876
1.1337697
1.1299113
1.1260819
1.1223654
1.1188687
1.1158099
1.113341
1.1116149
1.1107407
1.1106943
1.1111425
1.1114164
1.1108753
1.1092965
1.1067958
1.103538
1.0995474
1.0946766
1.0888032
1.0816687
1.0703633
1.035631
1.1586003
1.1585463
1.1584482
1.158299
1.1580937
1.1578293
1.1575039
1.1571176
1.1566715
1.1561686
1.1556144
1.1550174
1.1543903
1.1537527
1.1531307
1.1525542
1.152001
1.1512388
1.1495566
1.145947
1.1400881
1.1326978
1.1246442
1.1161915
1.1069394
1.0959635
1.0830598
1.06815
1.0510613
1.0310658
1.1586181
1.1586164
1.1586123
1.1586045
1.1585917
1.1585723
1.1585444
1.1585064
1.1584565
1.1583929
1.1583139
1.1582178
1.1581028
1.157965
1.1577873
1.1574781
1.1566262
1.1538906
1.1465144
1.1317991
1.1103347
1.0862657
1.0641167
1.0455606
1.0304342
1.0179547
1.007242
0.99743764
0.98757612
0.97665475
1.119929
1.0859511
1.0569283
1.0317476
1.0095249
0.98966942
0.97176339
0.95549443
0.94062008
0.92694608
0.91431045
0.9025644
0.8916635
0.88535138
0.87944113
0.87384787
0.86857052
0.86377368
0.85999574
0.85790543
0.85796361
0.8600816
0.86364721
0.86763875
0.87111073
0.87329008
0.87298758
0.8673699
0.85667134
0.8437196
1.1577521
1.1561181
1.1538983
1.151211
1.1481496
1.1447882
1.141187
1.1373958
1.133457
1.1294075
1.1252805
1.1211074
1.1169211
1.1128918
1.1090791
1.1055531
1.1024203
1.0998333
1.0979705
1.0969159
1.0964283
1.0959566
1.0949457
1.0931007
1.0902354
1.0862117
1.0809385
1.0731784
1.046531
0.98310976
1.1586003
1.1585462
1.1584478
1.1582978
1.1580911
1.1578242
1.157495
1.1571025
1.1566464
1.1561275
1.1555475
1.154909
1.1542161
1.1534794
1.1527141
1.1519415
1.1511917
1.1504983
1.149844
1.1489351
1.1468121
1.1421748
1.1345937
1.1244314
1.1122009
1.0985708
1.0843222
1.0701776
1.0558843
1.0331599
1.1586181
1.1586163
1.1586122
1.1586045
1.1585916
1.1585719
1.1585437
1.1585052
1.1584545
1.1583898
1.1583091
1.1582106
1.1580924
1.1579527
1.1577895
1.1575984
1.1573606
1.156976
1.155959
1.152587
1.1433808
1.1257968
1.1022587
1.0780425
1.0565881
1.0387832
1.0241265
1.0115884
0.99995536
0.98817187
1.1199368
1.0859568
1.0569217
1.0317215
1.0094726
0.98958115
0.97162699
0.95529411
0.94033439
0.92654431
0.91375265
0.9018229
0.89091564
0.88619087
0.88162523
0.87696857
0.87185828
0.86573226
0.85914167
0.85244232
0.8458734
0.83961594
0.83502171
0.83276527
0.83203021
0.83124413
0.82843198
0.82284429
0.81663968
0.80832498
1.1577522
1.1561178
1.1538958
1.1512041
1.1481355
1.1447633
1.141146
1.1373313
1.1333581
1.1292584
1.1250589
1.1207675
1.115777
1.1108944
1.1060635
1.1012436
1.0964182
1.0914814
1.0864762
1.0817272
1.0781507
1.0777892
1.0794071
1.0810688
1.0810628
1.0785609
1.0734428
1.0581276
1.0103965
0.9314508
1.1586003
1.1585462
1.1584476
1.1582973
1.1580899
1.1578219
1.1574909
1.1570956
1.1566354
1.1561103
1.1555209
1.1548674
1.1541371
1.1533367
1.1524735
1.1515546
1.1505909
1.149599
1.1486106
1.1476815
1.1468496
1.1457237
1.1422928
1.1332501
1.1180103
1.0993686
1.0802611
1.0627786
1.0454105
0.99879164
1.1586181
1.1586163
1.1586122
1.1586044
1.1585915
1.1585717
1.1585434
1.1585046
1.1584534
1.158388
1.1583062
1.158206
1.1580848
1.1579401
1.1577693
1.1575693
1.1573362
1.1570626
1.1567255
1.1562334
1.1550444
1.1505776
1.1373536
1.1119132
1.081272
1.0561357
1.0379681
1.0240237
1.0121563
1.0014981
1.1199368
1.0859569
1.0569217
1.0317216
1.0094727
0.98958129
0.97162717
0.95529434
0.94033466
0.92654465
0.91375307
0.90182345
0.89091623
0.8861914
0.8816257
0.87696898
0.87185863
0.86573252
0.8591419
0.85244257
0.84587371
0.8396167
0.83503354
0.83279291
0.83207677
0.83131084
0.82851704
0.82292207
0.81671212
0.80839518
1.1577522
1.1561178
1.1538958
1.1512041
1.1481355
1.1447633
1.1411461
1.1373313
1.1333581
1.1292584
1.125059
1.1207676
1.1157775
1.1108953
1.106065
1.101246
1.0964218
1.0914869
1.0864845
1.0817399
1.0781712
1.0778217
1.0794392
1.0811006
1.0810935
1.0785893
1.0734697
1.0582252
1.0105541
0.93163788
1.1586003
1.1585462
1.1584476
1.1582973
1.1580899
1.1578219
1.1574909
1.1570956
1.1566354
1.1561103
1.1555209
1.1548674
1.1541371
1.1533368
1.1524736
1.1515547
1.1505911
1.1495994
1.1486111
1.1476824
1.1468509
1.1457259
1.1422958
1.133253
1.1180108
1.0993655
1.0802557
1.0627748
1.0454444
0.99898789
1.1586181
1.1586163
1.1586122
1.1586044
1.1585915
1.1585717
1.1585434
1.1585046
1.1584534
1.158388
1.1583062
1.158206
1.1580848
1.1579401
1.1577693
1.1575693
1.1573363
1.1570626
1.1567256
1.1562335
1.1550449
1.1505792
1.137358
1.1119208
1.0812806
1.056144
1.037977
1.0240345
1.0121696
1.00152
1.119929
1.0859511
1.0569284
1.0317477
1.009525
0.98966961
0.97176363
0.95549471
0.94062041
0.92694652
0.91431102
0.9025651
0.89166433
0.88535219
0.87944197
0.87384877
0.86857162
0.86377497
0.85999723
0.85790723
0.8579661
0.86008588
0.8636549
0.86765148
0.87112986
0.8733167
0.87302231
0.86741444
0.85671457
0.84376534
1.1577521
1.1561181
1.1538983
1.151211
1.1481496
1.1447883
1.141187
1.1373958
1.1334571
1.1294075
1.1252806
1.1211075
1.1169213
1.112892
1.1090794
1.1055534
1.1024207
1.0998338
1.0979713
1.0969171
1.0964305
1.095961
1.0949526
1.0931101
1.0902469
1.0862241
1.0809513
1.0732006
1.0465995
0.98321914
1.1586003
1.1585462
1.1584478
1.1582978
1.1580911
1.1578242
1.157495
1.1571025
1.1566464
1.1561275
1.1555475
1.154909
1.1542161
1.1534794
1.1527142
1.1519416
1.1511917
1.1504983
1.1498441
1.1489354
1.1468126
1.1421758
1.134595
1.1244323
1.1122
1.0985669
1.0843142
1.070165
1.0558701
1.0331999
1.1586181
1.1586163
1.1586122
1.1586045
1.1585916
1.1585719
1.1585437
1.1585052
1.1584545
1.1583898
1.1583091
1.1582106
1.1580924
1.1579527
1.1577895
1.1575984
1.1573606
1.1569761
1.1559591
1.1525874
1.1433819
1.125799
1.1022618
1.0780457
1.0565909
1.038785
1.024127
1.0115874
0.99995223
0.98816556
1.119926
1.0859679
1.0569947
1.0318897
1.0097732
0.99007173
0.9723959
0.95647829
0.94214317
0.92926269
0.91778643
0.90770996
0.8991176
0.89495703
0.8924876
0.89198229
0.8937575
0.89803506
0.90466781
0.91281556
0.92110887
0.92829727
0.93372032
0.93726739
0.93906162
0.93908698
0.93685141
0.93055734
0.91590504
0.8960572
1.1577521
1.1561199
1.153906
1.1512302
1.1481879
1.1448567
1.141303
1.1375876
1.1337698
1.1299113
1.1260819
1.1223654
1.1188687
1.1158099
1.113341
1.1116148
1.1107406
1.110694
1.1111421
1.111416
1.1108751
1.1092968
1.1067968
1.1035399
1.0995502
1.09468
1.0888069
1.0816743
1.0703795
1.0356672
1.1586003
1.1585463
1.1584482
1.158299
1.1580937
1.1578293
1.1575039
1.1571176
1.1566715
1.1561687
1.1556144
1.1550174
1.1543903
1.1537527
1.1531307
1.1525542
1.152001
1.1512389
1.1495567
1.1459473
1.1400886
1.1326987
1.1246451
1.1161922
1.1069389
1.0959611
1.0830547
1.0681414
1.0510489
1.0310493
1.1586181
1.1586164
1.1586123
1.1586045
1.1585917
1.1585723
1.1585444
1.1585064
1.1584565
1.1583929
1.1583139
1.1582178
1.1581028
1.157965
1.1577873
1.1574781
1.1566262
1.1538908
1.1465149
1.1318001
1.1103364
1.0862677
1.0641187
1.0455623
1.0304353
1.017955
1.0072412
0.99743523
0.9875714
0.97664634
1.1199348
1.0860559
1.0571661
1.0321484
1.0101332
0.99055996
0.97305344
0.95736607
0.9433711
0.93104786
0.92044223
0.91168867
0.90495303
0.90246869
0.90209474
0.90368731
0.9068359
0.91084024
0.91490975
0.91847023
0.92129278
0.92339029
0.92477719
0.92541185
0.92519708
0.92389813
0.92091801
0.91488076
0.90468164
0.89324451
1.1577525
1.1561265
1.1539227
1.151258
1.1482265
1.1449061
1.141366
1.1376727
1.1338911
1.1300914
1.126377
1.1228943
1.1197246
1.1170533
1.1149573
1.1134123
1.1122284
1.1110053
1.109326
1.1070344
1.1042516
1.1011845
1.0978573
1.0942585
1.0903953
1.0862551
1.0818047
1.0769848
1.0676536
1.0384141
1.1586003
1.1585466
1.158449
1.1583004
1.1580954
1.1578306
1.1575036
1.1571138
1.156662
1.1561499
1.1555815
1.1549617
1.1542596
1.1533938
1.1522214
1.1505355
1.1479447
1.1436331
1.1369407
1.1282603
1.118769
1.1095544
1.0994491
1.0878472
1.0747848
1.0611103
1.0467772
1.0314082
1.014916
0.99582884
1.1586181
1.1586164
1.1586123
1.1586046
1.1585918
1.1585721
1.1585438
1.1585049
1.1584531
1.158386
1.1583009
1.1581935
1.1580526
1.157839
1.1573506
1.1557189
1.1505829
1.1386913
1.1191728
1.095289
1.0714278
1.0502119
1.033406
1.0202496
1.0096864
1.0007872
0.99276075
0.98489208
0.9762639
0.9655639
1.1199579
1.0857224
1.0561932
1.0303089
1.0072105
0.98630276
0.9671693
0.94954425
0.93341717
0.91890537
0.9058891
0.89430926
0.88420846
0.87727698
0.87180536
0.86795402
0.86582836
0.86537752
0.86634321
0.86830405
0.87079459
0.87340471
0.8758047
0.87773591
0.87898863
0.87935027
0.87850513
0.87586831
0.87062746
0.86245984
1.157752
1.1560954
1.1538058
1.1509828
1.1477055
1.1440352
1.1400229
1.1357053
1.1306961
1.1242468
1.1160322
1.105154
1.0913575
1.0747041
1.0555174
1.035107
1.0153235
0.99781672
0.98356012
0.97282
0.96537053
0.9606715
0.95794765
0.95636225
0.95512156
0.95341969
0.95023169
0.94391377
0.93135394
0.9085171
1.1586002
1.1585451
1.1584422
1.1582815
1.158054
1.157752
1.1573688
1.1568982
1.1563237
1.1556104
1.1547133
1.15353
1.1508642
1.1450718
1.134279
1.1173847
1.0952214
1.0704491
1.0461026
1.0244064
1.0064665
0.99249668
0.98210547
0.97457426
0.96907239
0.96474748
0.96065764
0.95550111
0.94686147
0.93066671
1.1586181
1.1586163
1.1586119
1.1586034
1.1585888
1.1585656
1.158531
1.1584817
1.1584136
1.1583208
1.1581951
1.1580206
1.1577264
1.1571028
1.154922
1.1476507
1.1314259
1.1077155
1.0818339
1.0575304
1.0363766
1.0188043
1.0046989
0.99363008
0.98499921
0.9781424
0.97233452
0.96662023
0.95924178
0.94702474
)
;

boundaryField
{
    maxY
    {
        type            calculated;
        value           nonuniform List<scalar> 
300
(
1.1586176
1.1586176
1.1586176
1.1586176
1.1586176
1.1586176
1.1586176
1.1586176
1.1586176
1.1586176
1.1586158
1.1586158
1.1586158
1.1586158
1.1586158
1.1586158
1.1586158
1.1586158
1.1586158
1.1586158
1.1586114
1.1586118
1.1586117
1.1586117
1.1586117
1.1586117
1.1586117
1.1586117
1.1586118
1.1586114
1.1586029
1.1586041
1.158604
1.1586039
1.1586039
1.1586039
1.1586039
1.158604
1.1586041
1.1586029
1.1585882
1.1585913
1.1585912
1.158591
1.158591
1.158591
1.158591
1.1585912
1.1585913
1.1585882
1.158565
1.1585716
1.1585717
1.1585714
1.1585712
1.1585712
1.1585714
1.1585717
1.1585716
1.158565
1.1585304
1.1585433
1.1585439
1.1585432
1.1585428
1.1585428
1.1585432
1.1585439
1.1585433
1.1585304
1.1584812
1.1585043
1.1585059
1.1585047
1.158504
1.158504
1.1585047
1.1585059
1.1585043
1.1584812
1.1584131
1.1584525
1.1584559
1.158454
1.1584529
1.1584529
1.158454
1.1584559
1.1584525
1.1584131
1.1583203
1.1583855
1.1583923
1.1583893
1.1583875
1.1583875
1.1583893
1.1583923
1.1583855
1.1583203
1.1581946
1.1583004
1.1583133
1.1583086
1.1583057
1.1583057
1.1583086
1.1583133
1.1583004
1.1581946
1.15802
1.158193
1.1582173
1.1582101
1.1582055
1.1582055
1.1582101
1.1582173
1.158193
1.15802
1.1577259
1.1580521
1.1581023
1.1580919
1.1580843
1.1580843
1.1580919
1.1581023
1.1580521
1.1577259
1.1571023
1.1578385
1.1579645
1.1579522
1.1579396
1.1579396
1.1579522
1.1579645
1.1578385
1.1571023
1.1549214
1.1573501
1.1577868
1.157789
1.1577688
1.1577688
1.157789
1.1577868
1.1573501
1.1549215
1.1476499
1.1557183
1.1574775
1.1575979
1.1575688
1.1575688
1.1575979
1.1574776
1.1557184
1.1476502
1.1314248
1.1505821
1.1566256
1.1573601
1.1573357
1.1573357
1.1573601
1.1566257
1.1505824
1.1314254
1.1077142
1.1386903
1.1538901
1.1569755
1.157062
1.1570621
1.1569755
1.1538903
1.1386908
1.107715
1.0818326
1.1191713
1.1465139
1.1559584
1.156725
1.156725
1.1559585
1.1465144
1.1191723
1.0818335
1.0575291
1.0952874
1.1317986
1.1525865
1.1562329
1.156233
1.1525869
1.1317996
1.0952886
1.0575299
1.0363754
1.071426
1.1103342
1.1433803
1.1550439
1.1550443
1.1433814
1.1103359
1.0714273
1.0363762
1.0188032
1.0502102
1.0862652
1.1257963
1.1505771
1.1505787
1.1257985
1.0862672
1.0502115
1.0188039
1.0046979
1.0334046
1.0641163
1.1022582
1.1373531
1.1373575
1.1022613
1.0641182
1.0334056
1.0046985
0.9936291
1.0202485
1.0455602
1.078042
1.1119127
1.1119203
1.0780453
1.0455618
1.0202491
0.99362969
0.9849983
1.0096859
1.0304338
1.0565877
1.0812716
1.0812801
1.0565904
1.0304349
1.009686
0.98499883
0.97814166
1.0007873
1.0179543
1.0387828
1.0561353
1.0561435
1.0387846
1.0179546
1.0007869
0.97814203
0.97233416
0.99276175
1.0072416
1.024126
1.0379677
1.0379766
1.0241266
1.0072408
0.99276036
0.97233415
0.96662076
0.98489435
0.99743725
1.011588
1.0240233
1.0240341
1.011587
0.99743484
0.9848917
0.96661986
0.95924433
0.97626803
0.98757574
0.99995497
1.0121559
1.0121692
0.99995183
0.98757102
0.97626352
0.95924142
0.9470305
0.96557073
0.97665438
0.98817149
1.0014977
1.0015196
0.98816518
0.97664597
0.96556354
0.94702439
)
;
    }
    minX
    {
        type            calculated;
        value           nonuniform List<scalar> 
40
(
1.1586217
1.1586207
1.1586196
1.1586186
1.1586217
1.1586207
1.1586196
1.1586186
1.1586217
1.1586207
1.1586196
1.1586186
1.1586217
1.1586207
1.1586196
1.1586186
1.1586217
1.1586207
1.1586196
1.1586186
1.1586217
1.1586207
1.1586196
1.1586186
1.1586217
1.1586207
1.1586196
1.1586186
1.1586217
1.1586207
1.1586196
1.1586186
1.1586217
1.1586207
1.1586196
1.1586186
1.1586217
1.1586207
1.1586196
1.1586186
)
;
    }
    maxX
    {
        type            calculated;
        value           nonuniform List<scalar> 
40
(
0.86249427
0.908551
0.93069733
0.94705244
0.89327813
1.0384369
0.99585729
0.96559157
0.89608328
1.0356504
1.0310842
0.97667461
0.8437489
0.98313644
1.0331872
0.98819167
0.80835639
0.93148623
0.99883504
1.0015211
0.80842652
0.93167331
0.99903142
1.0015429
0.84379459
0.98324581
1.0332272
0.98818535
0.89608422
1.0356866
1.0310677
0.97666618
0.89327215
1.0384301
0.99584806
0.96558437
0.86248935
0.90854212
0.93068966
0.94704633
)
;
    }
    minZ
    {
        type            calculated;
        value           nonuniform List<scalar> 
120
(
1.1199579
1.157752
1.1586002
1.1586181
1.0857223
1.1560954
1.1585451
1.1586163
1.0561931
1.1538057
1.1584422
1.1586119
1.0303088
1.1509828
1.1582815
1.1586034
1.0072104
1.1477054
1.158054
1.1585888
0.98630261
1.1440352
1.157752
1.1585656
0.96716914
1.1400229
1.1573688
1.158531
0.94954407
1.1357053
1.1568982
1.1584817
0.93341696
1.1306961
1.1563237
1.1584136
0.91890511
1.1242467
1.1556104
1.1583208
0.90588877
1.1160321
1.1547133
1.1581951
0.89430886
1.1051538
1.15353
1.1580206
0.88420793
1.0913572
1.1508641
1.1577264
0.87727648
1.0747037
1.1450717
1.1571028
0.87180497
1.0555168
1.1342787
1.1549219
0.86795387
1.0351063
1.1173842
1.1476504
0.8658285
1.0153229
1.0952208
1.1314253
0.86537793
0.99781625
1.0704484
1.1077146
0.86634382
0.9835598
1.046102
1.0818331
0.86830487
0.97281981
1.0244059
1.0575295
0.87079563
0.96537043
1.0064661
1.0363758
0.87340598
0.96067143
0.99249631
1.0188036
0.87580622
0.95794756
0.98210514
1.0046983
0.87773772
0.95636216
0.97457396
0.99362949
0.87899079
0.95512165
0.96907217
0.98499868
0.8793529
0.95342036
0.96474753
0.97814203
0.87850838
0.95023372
0.96065836
0.97233453
0.87587235
0.94391841
0.95550328
0.96662113
0.87063203
0.93136287
0.94686651
0.95924469
0.86246475
0.90852598
0.93067437
0.94703085
)
;
    }
    maxZ
    {
        type            calculated;
        value           nonuniform List<scalar> 
120
(
1.1199579
1.157752
1.1586002
1.1586181
1.0857224
1.1560954
1.1585451
1.1586163
1.0561932
1.1538058
1.1584422
1.1586119
1.0303089
1.1509828
1.1582815
1.1586034
1.0072105
1.1477055
1.158054
1.1585888
0.98630276
1.1440352
1.157752
1.1585656
0.9671693
1.1400229
1.1573688
1.158531
0.94954425
1.1357053
1.1568982
1.1584817
0.93341717
1.1306961
1.1563237
1.1584136
0.91890537
1.1242468
1.1556104
1.1583208
0.9058891
1.1160322
1.1547133
1.1581951
0.89430926
1.105154
1.15353
1.1580206
0.88420846
1.0913575
1.1508642
1.1577264
0.87727698
1.0747041
1.1450718
1.1571028
0.87180536
1.0555174
1.134279
1.154922
0.86795402
1.035107
1.1173847
1.1476507
0.86582836
1.0153235
1.0952214
1.1314259
0.86537752
0.99781672
1.0704491
1.1077155
0.86634321
0.98356012
1.0461026
1.0818339
0.86830405
0.97282
1.0244064
1.0575304
0.87079459
0.96537053
1.0064665
1.0363766
0.87340471
0.9606715
0.99249668
1.0188043
0.8758047
0.95794765
0.98210547
1.0046989
0.87773591
0.95636225
0.97457426
0.99363008
0.87898863
0.95512156
0.96907239
0.98499921
0.87935027
0.95341969
0.96474748
0.9781424
0.87850513
0.95023169
0.96065764
0.97233452
0.87586831
0.94391377
0.95550111
0.96662023
0.87062746
0.93135394
0.94686147
0.95924178
0.86245984
0.9085171
0.93066671
0.94702474
)
;
    }
    topAir_to_rightSolid
    {
        type            calculated;
        value           nonuniform List<scalar> 
130
(
0.64836173
0.64581203
0.64329089
0.64095306
0.6388829
0.6371046
0.63560084
0.63437562
0.63343248
0.63272488
0.63222986
0.63194403
0.63189016
0.65111767
0.64785814
0.64473832
0.64192258
0.63950669
0.63749534
0.63583209
0.63450052
0.63348634
0.63273512
0.63219529
0.6318447
0.63169312
0.65689896
0.6519658
0.64752826
0.64375198
0.64068039
0.63821911
0.63626788
0.63474578
0.63360308
0.63278672
0.63221645
0.63182654
0.63165676
0.66607559
0.65782938
0.65119095
0.64602646
0.64208418
0.63907944
0.63677726
0.63502856
0.633741
0.63284252
0.63224053
0.63186421
0.63168923
0.67757842
0.66366298
0.65433893
0.64781048
0.64312021
0.63966378
0.63709932
0.63520854
0.63385261
0.63291338
0.63229558
0.63191841
0.63174222
0.67757707
0.66366248
0.65433881
0.64781048
0.64312034
0.63966372
0.63709922
0.63520841
0.63385248
0.63291325
0.63229542
0.63191823
0.63174209
0.66607549
0.65782884
0.65119049
0.64602612
0.64208418
0.63907943
0.63677716
0.63502844
0.63374079
0.63284226
0.63224018
0.63186397
0.6316891
0.65689772
0.65196477
0.64752757
0.6437516
0.64068028
0.63821916
0.63626781
0.63474572
0.63360285
0.6327863
0.63221644
0.6318266
0.63165682
0.65111552
0.64785654
0.64473718
0.64192191
0.63950646
0.63749534
0.63583215
0.63450055
0.63348628
0.63273506
0.63219546
0.63184468
0.63169291
0.64835908
0.64581068
0.64328965
0.6409519
0.63888226
0.63710439
0.6356009
0.63437572
0.6334326
0.63272508
0.63223008
0.63194404
0.63188994
)
;
    }
    topAir_to_heater
    {
        type            calculated;
        value           nonuniform List<scalar> 
40
(
0.65484354
0.65414562
0.65275062
0.65076354
0.65953942
0.65864879
0.65684381
0.65424675
0.66991544
0.66862003
0.66589899
0.661844
0.68819312
0.68641554
0.68222446
0.67528258
0.71774313
0.71651871
0.71114775
0.69948952
0.71774281
0.71651834
0.71114715
0.69948883
0.68819078
0.68641435
0.68222306
0.67528282
0.66991435
0.66861862
0.66589768
0.66184283
0.65953921
0.6586479
0.65684197
0.65424453
0.6548442
0.65414528
0.65274847
0.65076066
)
;
    }
    topAir_to_leftSolid
    {
        type            calculated;
        value           nonuniform List<scalar> 
130
(
0.63101025
0.63090385
0.63087263
0.63088343
0.63092199
0.63098751
0.63109815
0.63122326
0.63133851
0.63145621
0.63157663
0.63168034
0.63173114
0.63077831
0.63076181
0.63077942
0.6308092
0.63085116
0.63092457
0.63104399
0.6311808
0.63130938
0.63145503
0.63161225
0.63174024
0.63181558
0.63070954
0.63069827
0.63073008
0.6307485
0.63078805
0.63088133
0.63101978
0.63117756
0.63134422
0.63152459
0.63173147
0.63190488
0.63201676
0.63073802
0.63072205
0.63071671
0.63072435
0.63077415
0.63089437
0.63106695
0.63126146
0.6314613
0.6316812
0.63193115
0.63216335
0.63234212
0.63079575
0.63077537
0.63075683
0.63075249
0.63079511
0.63090386
0.63108429
0.63131182
0.6315651
0.63182211
0.63210571
0.63238901
0.63265617
0.63079587
0.63077555
0.63075702
0.63075269
0.63079535
0.63090416
0.63108461
0.63131214
0.63156525
0.6318225
0.63210625
0.63238988
0.63265763
0.6307381
0.63072231
0.63071711
0.63072471
0.63077453
0.63089477
0.63106741
0.63126186
0.63146171
0.63168213
0.63193222
0.63216441
0.63234268
0.63070938
0.63069835
0.63073031
0.63074902
0.63078846
0.63088171
0.6310202
0.63117785
0.63134466
0.63152537
0.6317325
0.63190611
0.63201807
0.6307785
0.63076196
0.63077952
0.63080949
0.6308515
0.63092492
0.6310442
0.63118103
0.63130987
0.63145585
0.63161346
0.6317418
0.63181749
0.63101063
0.6309041
0.6308728
0.63088364
0.63092224
0.63098778
0.63109837
0.63122357
0.6313391
0.63145713
0.63157776
0.63168171
0.63173344
)
;
    }
}


// ************************************************************************* //
