/*--------------------------------*- C++ -*----------------------------------*\
| =========                 |                                                 |
| \\      /  F ield         | OpenFOAM: The Open Source CFD Toolbox           |
|  \\    /   O peration     | Version:  v2012                                 |
|   \\  /    A nd           | Website:  www.openfoam.com                      |
|    \\/     M anipulation  |                                                 |
\*---------------------------------------------------------------------------*/
FoamFile
{
    version     2.0;
    format      ascii;
    class       volScalarField;
    location    "80/topAir";
    object      T;
}
// * * * * * * * * * * * * * * * * * * * * * * * * * * * * * * * * * * * * * //

dimensions      [0 0 0 1 0 0 0];


internalField   nonuniform List<scalar> 
1200
(
310.35678
320.14311
329.0937
337.36148
345.09821
352.41364
359.38542
366.05619
372.38072
378.26156
383.69663
388.66491
393.10489
396.21085
398.69749
400.4665
401.44953
401.65854
401.21073
400.3046
399.15959
397.96662
396.87595
396.00261
395.43807
395.27523
395.65521
396.84598
399.23459
403.01522
300.22508
300.65529
301.25193
301.99079
302.85314
303.82474
304.89406
306.05316
307.40905
309.17253
311.4482
314.51386
318.48984
323.42514
329.30427
335.79756
342.34053
348.34688
353.39607
357.29759
360.0547
361.81587
362.84467
363.44617
363.91821
364.56758
365.79017
368.2375
373.20165
382.58253
300.00502
300.01931
300.04594
300.08759
300.14654
300.22482
300.32422
300.4464
300.59565
300.78121
301.01487
301.32368
302.02166
303.54945
306.43781
311.07106
317.36603
324.71056
332.26769
339.30484
345.35279
350.21377
353.91921
356.65418
358.67904
360.28688
361.82049
363.77257
367.0907
373.47745
300.00012
300.00059
300.00172
300.00392
300.00772
300.01373
300.02268
300.03544
300.05308
300.07711
300.10968
300.15492
300.23119
300.39299
300.96023
302.86711
307.21037
313.78621
321.29318
328.67697
335.38567
341.17037
345.96018
349.81411
352.87927
355.35291
357.47535
359.58828
362.35346
367.02673
310.36318
320.04479
328.79085
336.76022
344.09968
350.89903
357.21217
363.06543
368.45153
373.32832
377.62994
381.25577
384.09351
385.15079
385.31037
384.63121
383.29562
381.61039
379.91286
378.43997
377.28037
376.42315
375.85836
375.6003
375.68716
376.21493
377.4318
379.92182
384.20531
389.12536
300.22497
300.64722
301.22141
301.91859
302.71572
303.59362
304.53528
305.5239
306.54284
307.57354
308.58779
309.54489
310.42114
311.16346
311.74841
312.18101
312.5133
312.85733
313.33093
313.97953
314.77079
315.64755
316.60422
317.64555
318.77106
319.98611
321.30253
322.74054
325.56048
334.72564
300.00501
300.01892
300.04418
300.08268
300.13579
300.20445
300.28926
300.3904
300.50775
300.64085
300.78874
300.95013
301.13319
301.35926
301.66587
302.10794
302.78977
303.93134
305.72041
308.07257
310.68624
313.26649
316.1459
319.51764
323.40087
327.56833
332.05319
337.00038
342.47554
349.03853
300.00012
300.00057
300.00163
300.00362
300.00694
300.01202
300.01935
300.02944
300.04286
300.06022
300.08228
300.1101
300.14661
300.20199
300.32866
300.75271
302.09527
305.25018
310.57391
317.34632
324.41384
330.96749
336.34979
340.68703
344.25107
347.312
350.11971
352.91649
356.03487
359.9793
310.3656
320.07069
328.84412
336.84465
344.22236
351.07207
357.45372
363.40243
368.93176
374.04551
378.7227
382.92691
386.58634
388.38346
389.45798
389.67848
388.90431
387.05163
384.21358
380.78373
377.35485
374.43227
372.25708
370.84781
370.13883
370.12846
371.01128
373.52058
379.49737
387.90692
300.22507
300.64892
301.22574
301.92588
302.7259
303.60674
304.55207
305.54677
306.57565
307.62256
308.66867
309.69077
310.65862
311.51022
312.20102
312.68579
312.93189
312.94496
312.81874
312.74164
312.89396
313.33928
314.04723
314.97436
316.11748
317.52406
319.23691
321.34253
324.73659
335.62738
300.00501
300.01899
300.04439
300.08305
300.13624
300.20479
300.28916
300.38943
300.50528
300.63597
300.78015
300.93562
301.0991
301.26549
301.42799
301.57878
301.7236
301.92334
302.36518
303.31758
304.87634
306.86548
309.06297
311.40343
314.00623
317.15094
320.9295
325.40921
330.69987
337.11314
300.00012
300.00058
300.00164
300.00363
300.00695
300.01199
300.01921
300.02905
300.04198
300.05845
300.07892
300.10381
300.13361
300.16932
300.21538
300.2956
300.51678
301.22922
303.16721
307.10891
313.04576
319.9821
326.64234
332.43943
337.31952
341.45485
345.08647
348.47851
351.95827
355.89402
310.36479
320.07566
328.86478
336.89102
344.30702
351.21475
357.68634
363.77657
369.52909
374.98026
380.16242
385.10989
389.81798
392.59719
395.23562
397.76542
400.1822
402.40455
404.1723
405.15707
405.12959
404.13194
402.46346
400.61194
399.01522
398.01945
398.15736
400.73609
405.74069
411.96912
300.22507
300.64938
301.22775
301.93092
302.73599
303.62489
304.58304
305.59829
306.66024
307.75978
308.8885
310.03827
311.20031
312.32704
313.40072
314.40028
315.29371
316.03534
316.57152
316.87587
317.01679
317.15322
317.44604
317.98185
318.81753
319.99856
321.5596
323.8848
332.13173
353.55782
300.00501
300.01901
300.04449
300.08335
300.13691
300.20609
300.29147
300.39335
300.5118
300.64666
300.79756
300.96387
301.14455
301.33689
301.53693
301.73917
301.93571
302.11769
302.2896
302.52872
303.08877
304.31934
306.35273
309.12145
312.52075
316.39822
320.55588
324.79269
329.18933
336.42986
300.00012
300.00058
300.00164
300.00365
300.00699
300.01209
300.01938
300.02935
300.04248
300.05925
300.08015
300.10567
300.13631
300.17251
300.21482
300.26438
300.32608
300.4259
300.69023
301.56992
303.99809
308.74628
315.33937
322.42289
328.96979
334.60839
339.39713
343.60378
347.6011
351.74608
310.36262
320.07397
328.86686
336.89954
344.32486
351.24607
357.73655
363.85285
369.64136
375.14285
380.39449
385.42653
390.14521
392.22528
394.25648
396.34996
398.67312
401.49417
404.57408
407.75363
410.92018
413.98267
416.26037
417.38825
417.75699
418.15205
419.57148
422.42066
425.6301
430.00828
300.22503
300.64948
301.22841
301.93273
302.7397
303.6315
304.59397
305.61561
306.68701
307.80042
308.94932
310.13229
311.5194
312.88859
314.25519
315.63061
317.01972
318.4536
319.92066
321.32517
322.39109
322.49924
322.01584
321.52086
321.52265
322.26848
323.80502
328.49173
344.00965
373.16642
300.00501
300.01902
300.04454
300.08349
300.13722
300.20669
300.29254
300.39513
300.51465
300.65114
300.8045
300.97473
301.16517
301.37416
301.5999
301.84056
302.09336
302.35401
302.61421
302.85918
303.07888
303.37671
304.2879
306.71593
310.89686
316.16864
321.76098
327.05388
332.48744
348.00638
300.00012
300.00058
300.00164
300.00366
300.00702
300.01214
300.01948
300.02952
300.04277
300.05972
300.0809
300.10686
300.13826
300.17577
300.22006
300.27192
300.3324
300.40344
300.49097
300.61886
300.92832
302.0966
305.60906
312.60136
321.45988
329.11072
334.87116
339.4312
343.41099
347.06565
310.36262
320.07396
328.86684
336.89951
344.32482
351.24602
357.73649
363.85276
369.64125
375.14272
380.39432
385.4263
390.14495
392.22505
394.25627
396.34978
398.67296
401.49405
404.57397
407.75351
410.92003
413.98229
416.25447
417.3744
417.73362
418.11849
419.5284
422.38073
425.59234
429.97094
300.22503
300.64948
301.22841
301.93273
302.7397
303.6315
304.59397
305.6156
306.687
307.8004
308.9493
310.13226
311.51928
312.88835
314.25477
315.62993
317.01868
318.45201
319.91823
321.32141
322.38495
322.48949
322.00627
321.51142
321.51351
322.26
323.79691
328.46144
343.95602
373.09148
300.00501
300.01902
300.04454
300.08349
300.13722
300.20669
300.29253
300.39513
300.51465
300.65114
300.80449
300.97472
301.16517
301.37415
301.59988
301.84053
302.09331
302.35392
302.61407
302.85896
303.07852
303.37613
304.28711
306.71517
310.89671
316.16953
321.76259
327.05504
332.47665
347.93801
300.00012
300.00058
300.00164
300.00366
300.00702
300.01214
300.01948
300.02952
300.04277
300.05972
300.0809
300.10686
300.13826
300.17577
300.22006
300.27192
300.3324
300.40343
300.49096
300.61883
300.9282
302.09617
305.60789
312.59923
321.45735
329.10815
334.86829
339.42763
343.40646
347.05808
310.36478
320.07565
328.86476
336.89098
344.30697
351.21468
357.68625
363.77646
369.52896
374.98008
380.16218
385.10959
389.81762
392.59684
395.23525
397.76501
400.18169
402.40394
404.1716
405.15622
405.12842
404.12993
402.45987
400.60606
399.00645
398.00731
398.14152
400.71551
405.72022
411.94679
300.22507
300.64938
301.22775
301.93092
302.73599
303.62489
304.58304
305.59828
306.66023
307.75976
308.88847
310.03824
311.20026
312.32698
313.40065
314.40019
315.29359
316.03518
316.5713
316.87552
317.01615
317.15196
317.44405
317.97911
318.81419
319.99489
321.5558
323.87807
332.10999
353.51849
300.00501
300.01901
300.04449
300.08335
300.13691
300.20609
300.29147
300.39335
300.5118
300.64666
300.79756
300.96386
301.14454
301.33689
301.53692
301.73916
301.9357
302.11767
302.28957
302.52867
303.08864
304.31908
306.35239
309.12121
312.521
316.39937
320.55824
324.79651
329.19376
336.41683
300.00012
300.00058
300.00164
300.00365
300.00699
300.01209
300.01938
300.02935
300.04248
300.05925
300.08015
300.10567
300.13631
300.17251
300.21482
300.26438
300.32608
300.4259
300.6902
301.56981
303.99779
308.74567
315.33849
322.42192
328.96894
334.60781
339.39694
343.60411
347.60219
351.74833
310.3656
320.07069
328.84412
336.84463
344.22233
351.07203
357.45368
363.40238
368.9317
374.04545
378.72261
382.9268
386.58622
388.38341
389.45803
389.67866
388.90466
387.05222
384.21446
380.78498
377.35653
374.43442
372.2597
370.85089
370.14231
370.13231
371.01554
373.525
379.5005
387.90651
300.22507
300.64892
301.22574
301.92588
302.7259
303.60674
304.55207
305.54676
306.57565
307.62256
308.66866
309.69077
310.65861
311.51022
312.20103
312.68582
312.93193
312.94504
312.81883
312.74173
312.89402
313.33921
314.04696
314.97382
316.11669
317.52307
319.2358
321.34086
324.73167
335.61565
300.00501
300.01899
300.04439
300.08305
300.13624
300.20479
300.28916
300.38943
300.50528
300.63597
300.78015
300.93562
301.0991
301.26549
301.42799
301.57878
301.7236
301.92334
302.36515
303.3175
304.87618
306.86525
309.0627
311.40325
314.00636
317.15163
320.93104
325.41185
330.70378
337.11855
300.00012
300.00058
300.00164
300.00363
300.00695
300.01199
300.01921
300.02905
300.04198
300.05845
300.07892
300.10381
300.13361
300.16932
300.21538
300.2956
300.51677
301.22917
303.16707
307.10862
313.04529
319.9815
326.64173
332.4389
337.31916
341.45476
345.08675
348.47935
351.95995
355.89709
310.36318
320.04478
328.79083
336.7602
344.09965
350.89899
357.21213
363.06539
368.45148
373.32826
377.62986
381.25567
384.09338
385.15072
385.31037
384.63134
383.29587
381.61078
379.91337
378.44062
377.2812
376.42419
375.85966
375.60189
375.68907
376.21727
377.43471
379.92538
384.20855
389.12796
300.22497
300.64722
301.22141
301.91859
302.71572
303.59362
304.53528
305.5239
306.54283
307.57353
308.58778
309.54488
310.42114
311.16347
311.74842
312.18103
312.51332
312.85737
313.33097
313.97957
314.77081
315.64754
316.60414
317.64538
318.77079
319.98574
321.30212
322.74006
325.56076
334.72785
300.00501
300.01892
300.04418
300.08268
300.13579
300.20445
300.28926
300.3904
300.50775
300.64085
300.78874
300.95013
301.13319
301.35926
301.66587
302.10793
302.78974
303.93128
305.72031
308.0724
310.686
313.26618
316.14548
319.51716
323.40042
327.56807
332.05334
337.00125
342.47745
349.04176
300.00012
300.00057
300.00163
300.00362
300.00694
300.01202
300.01935
300.02944
300.04286
300.06022
300.08228
300.1101
300.14661
300.20199
300.32866
300.75269
302.0952
305.25003
310.57365
317.34598
324.41345
330.96709
336.34949
340.68682
344.25102
347.31216
350.1202
352.91744
356.03652
359.98198
310.35676
320.14309
329.09368
337.36145
345.09816
352.41359
359.38536
366.05612
372.38064
378.26145
383.69649
388.66473
393.10466
396.21062
398.69731
400.46643
401.4496
401.65874
401.21101
400.30498
399.16007
397.9672
396.87664
396.00342
395.43904
395.27641
395.65668
396.84781
399.23669
403.01752
300.22508
300.65529
301.25192
301.99079
302.85314
303.82474
304.89406
306.05316
307.40904
309.17251
311.44817
314.51381
318.48976
323.42501
329.3041
335.79735
342.34033
348.34671
353.39596
357.29751
360.05467
361.81584
362.84463
363.44613
363.91824
364.56784
365.79096
368.23931
373.20523
382.58627
300.00502
300.01931
300.04594
300.08759
300.14654
300.22482
300.32422
300.4464
300.59565
300.78121
301.01487
301.32367
302.02164
303.54942
306.43773
311.07093
317.36585
324.71034
332.26748
339.30466
345.35264
350.21364
353.91909
356.65407
358.67896
360.2869
361.82076
363.7734
367.09265
373.48053
300.00012
300.00059
300.00172
300.00392
300.00772
300.01373
300.02268
300.03544
300.05308
300.07711
300.10968
300.15492
300.23119
300.39299
300.96021
302.86704
307.21021
313.78597
321.29292
328.6767
335.38542
341.17014
345.95996
349.8139
352.87908
355.35278
357.47535
359.58861
362.35456
367.0291
)
;

boundaryField
{
    maxY
    {
        type            zeroGradient;
    }
    minX
    {
        type            fixedValue;
        value           uniform 300;
    }
    maxX
    {
        type            inletOutlet;
        inletValue      uniform 300;
        value           nonuniform List<scalar> 
40
(
403.00145
382.572
373.46825
367.01836
389.11333
334.72046
349.03178
359.97167
387.89523
335.62107
337.1071
355.8868
411.95485
353.54821
336.42093
351.73903
429.99161
373.15222
347.99124
347.05764
429.95431
373.0773
347.92283
347.05009
411.93254
353.50888
336.4079
351.74128
387.89482
335.60934
337.11251
355.88987
389.11594
334.72267
349.03502
359.97435
403.00375
382.57574
373.47133
367.02073
)
;
    }
    minZ
    {
        type            zeroGradient;
    }
    maxZ
    {
        type            zeroGradient;
    }
    topAir_to_rightSolid
    {
        type            compressible::turbulentTemperatureCoupledBaffleMixed;
        refValue        nonuniform List<scalar> 
130
(
536.14297
538.26033
540.37063
542.34243
544.10057
545.61998
546.91143
547.96815
548.78428
549.39802
549.82791
550.07589
550.12158
533.8796
536.56683
539.16428
541.53019
543.57667
545.29226
546.71906
547.86664
548.74376
549.395
549.86343
550.16721
550.29768
529.17816
533.18409
536.83997
539.99092
542.58129
544.67491
546.34606
547.65669
548.6446
549.35227
549.84709
550.18455
550.32976
521.88093
528.42401
533.81192
538.08038
541.38522
543.93178
545.89935
547.40347
548.5162
549.29508
549.81738
550.1433
550.29373
513.01937
523.77789
531.24233
536.59633
540.5097
543.43033
545.61793
547.2423
548.41311
549.22667
549.76252
550.08971
550.24176
513.0204
523.77828
531.24243
536.59633
540.50959
543.43038
545.61801
547.24242
548.41323
549.22681
549.76267
550.08987
550.24189
521.88101
528.42444
533.8123
538.08067
541.38522
543.93178
545.89943
547.40357
548.51638
549.29531
549.8177
550.14352
550.29385
529.17916
533.18493
536.84054
539.99123
542.58138
544.67486
546.34612
547.65674
548.6448
549.35264
549.84709
550.1845
550.3297
533.88136
536.56816
539.16523
541.53075
543.57686
545.29226
546.71901
547.86661
548.74381
549.39505
549.86328
550.16723
550.29786
536.14515
538.26146
540.37168
542.34341
544.10111
545.62016
546.91139
547.96807
548.78418
549.39785
549.82771
550.07588
550.12177
)
;
        refGradient     uniform 0;
        valueFraction   uniform 0.99967867;
        value           nonuniform List<scalar> 
130
(
536.09975
538.21629
540.32562
542.29642
544.05361
545.57218
546.86294
547.91913
548.73495
549.34862
549.77875
550.02741
550.07431
533.83067
536.51649
539.11263
541.4774
543.52296
545.23781
546.66408
547.81131
548.68832
549.33975
549.80882
550.11388
550.24588
529.13249
533.13622
536.78982
539.93865
542.52726
544.6195
546.28967
547.59965
548.58723
549.29496
549.79042
550.1297
550.27756
521.84253
528.38408
533.77057
538.03766
541.34111
543.88632
545.85266
547.35578
548.46783
549.24652
549.76948
550.0969
550.24928
512.98353
523.73958
531.20264
536.55594
540.46904
543.38947
545.57672
547.20068
548.37125
549.18501
549.7216
550.04971
550.20312
512.98456
523.73997
531.20274
536.55594
540.46893
543.38951
545.5768
547.2008
548.37136
549.18513
549.72174
550.04986
550.20324
521.84262
528.38451
533.77095
538.03795
541.34111
543.88632
545.85274
547.35588
548.46801
549.24673
549.76978
550.0971
550.24939
529.13349
533.13706
536.79039
539.93897
542.52735
544.61945
546.28973
547.5997
548.58743
549.29533
549.79043
550.12965
550.2775
533.83243
536.51782
539.11359
541.47797
543.52315
545.23782
546.66402
547.81128
548.68837
549.3398
549.80867
550.1139
550.24606
536.10194
538.21741
540.32667
542.2974
544.05415
545.57236
546.86289
547.91905
548.73485
549.34845
549.77855
550.02741
550.0745
)
;
        Tnbr            T;
        thicknessLayers List<scalar> 0();
        kappaLayers     List<scalar> 0();
        kappaMethod     fluidThermo;
        kappa           none;
        alphaAni        none;
        alpha           none;
        field           T;
    }
    topAir_to_heater
    {
        type            compressible::turbulentTemperatureCoupledBaffleMixed;
        refValue        nonuniform List<scalar> 
40
(
530.83659
531.40227
532.53764
534.16379
527.05972
527.77253
529.22338
531.32508
518.89338
519.8986
522.02347
525.22282
505.10745
506.41498
509.52597
514.76442
484.30673
485.13389
488.79815
496.94621
484.30694
485.13414
488.79857
496.94671
505.10917
506.41586
509.52702
514.76423
518.89422
519.89969
522.0245
525.22375
527.05989
527.77324
529.22487
531.32687
530.83605
531.40255
532.53939
534.16615
)
;
        refGradient     uniform 0;
        valueFraction   uniform 0.99967867;
        value           nonuniform List<scalar> 
40
(
530.79332
531.35963
532.4952
534.12114
527.01412
527.72675
529.17692
531.27751
518.85144
519.85668
521.98094
525.17902
505.07129
506.37925
509.49006
514.72759
484.27714
485.10468
488.76844
496.91463
484.27735
485.10494
488.76886
496.91512
505.07301
506.38013
509.49111
514.72741
518.85228
519.85777
521.98197
525.17995
527.01429
527.72746
529.1784
531.2793
530.79279
531.35991
532.49695
534.1235
)
;
        Tnbr            T;
        thicknessLayers List<scalar> 0();
        kappaLayers     List<scalar> 0();
        kappaMethod     fluidThermo;
        kappa           none;
        alphaAni        none;
        alpha           none;
        field           T;
    }
    topAir_to_leftSolid
    {
        type            compressible::turbulentTemperatureCoupledBaffleMixed;
        refValue        nonuniform List<scalar> 
130
(
550.91885
551.00862
551.033
551.0209
550.98472
550.92513
550.82628
550.71493
550.61233
550.50778
550.40104
550.30904
550.26334
551.12146
551.13275
551.11454
551.08595
551.04692
550.98059
550.87427
550.75294
550.63901
550.51039
550.37194
550.25924
550.1927
551.18156
551.18828
551.15765
551.13896
551.10202
551.01831
550.89533
550.75567
550.60846
550.44952
550.2677
550.1153
550.01672
551.15667
551.1675
551.16932
551.16005
551.11414
551.00687
550.85406
550.68233
550.50616
550.31271
550.09333
549.88963
549.73261
551.10622
551.1209
551.13426
551.13546
551.09581
550.99857
550.83891
550.63836
550.41562
550.1899
549.94131
549.69326
549.45956
551.10611
551.12074
551.13409
551.13528
551.0956
550.99831
550.83863
550.63809
550.41549
550.18956
549.94084
549.69251
549.45829
551.1566
551.16727
551.16898
551.15974
551.1138
551.00652
550.85366
550.68198
550.5058
550.31191
550.09239
549.8887
549.73212
551.18171
551.18821
551.15744
551.13851
551.10166
551.01797
550.89496
550.75541
550.60808
550.44884
550.26681
550.11424
550.01558
551.1213
551.13263
551.11446
551.08569
551.04662
550.98029
550.87408
550.75275
550.63858
550.50968
550.37089
550.25788
550.19103
550.91853
551.0084
551.03285
551.02072
550.9845
550.92489
550.82609
550.71465
550.61181
550.50697
550.40005
550.30785
550.26134
)
;
        refGradient     uniform 0;
        valueFraction   uniform 0.99967867;
        value           nonuniform List<scalar> 
130
(
550.84155
550.93444
550.96169
550.95224
550.91856
550.86134
550.76476
550.65559
550.55505
550.45243
550.34746
550.2571
550.21284
551.0441
551.0585
551.0431
551.01708
550.98042
550.9163
550.81203
550.69263
550.58046
550.45346
550.31643
550.20493
550.13932
551.10418
551.11402
551.08621
551.0701
551.03554
550.95406
550.83317
550.69546
550.55008
550.39283
550.21257
550.06158
549.9642
551.0793
551.09324
551.09789
551.0912
551.04768
550.94267
550.79199
550.62227
550.448
550.25637
550.03872
549.83667
549.68122
551.02886
551.04666
551.06284
551.06661
551.02937
550.93438
550.77685
550.57834
550.35753
550.13365
549.88682
549.64047
549.40836
551.02876
551.04649
551.06267
551.06644
551.02916
550.93412
550.77658
550.57807
550.3574
550.13331
549.88636
549.63972
549.4071
551.07923
551.09301
551.09754
551.09089
551.04735
550.94232
550.79159
550.62192
550.44765
550.25556
550.03779
549.83575
549.68073
551.10433
551.11394
551.08601
551.06965
551.03519
550.95372
550.8328
550.69521
550.54969
550.39215
550.21168
550.06051
549.96306
551.04393
551.05837
551.04302
551.01682
550.98012
550.91599
550.81185
550.69243
550.58003
550.45274
550.31538
550.20357
550.13766
550.84123
550.93422
550.96154
550.95206
550.91834
550.8611
550.76457
550.65531
550.55454
550.45162
550.34648
550.2559
550.21083
)
;
        Tnbr            T;
        thicknessLayers List<scalar> 0();
        kappaLayers     List<scalar> 0();
        kappaMethod     fluidThermo;
        kappa           none;
        alphaAni        none;
        alpha           none;
        field           T;
    }
}


// ************************************************************************* //
