/*--------------------------------*- C++ -*----------------------------------*\
| =========                 |                                                 |
| \\      /  F ield         | OpenFOAM: The Open Source CFD Toolbox           |
|  \\    /   O peration     | Version:  v2012                                 |
|   \\  /    A nd           | Website:  www.openfoam.com                      |
|    \\/     M anipulation  |                                                 |
\*---------------------------------------------------------------------------*/
FoamFile
{
    version     2.0;
    format      ascii;
    class       volVectorField;
    location    "80/topAir";
    object      U;
}
// * * * * * * * * * * * * * * * * * * * * * * * * * * * * * * * * * * * * * //

dimensions      [0 1 -1 0 0 0 0];


internalField   nonuniform List<vector> 
1200
(
(0.10060286 -0.0010693564 0.00084523162)
(0.1066736 -0.0012608694 0.0012677609)
(0.11181374 -0.0013461354 0.0013889197)
(0.11557803 -0.0012225554 0.0013580193)
(0.11876778 -0.00090789998 0.0012126878)
(0.12173789 -0.00048994559 0.00093844178)
(0.12452912 -2.5208233e-05 0.00050813405)
(0.12717503 0.00046315268 -0.00010919341)
(0.12983807 0.00097612603 -0.00094703339)
(0.13263915 0.0015337629 -0.0021108784)
(0.13569807 0.0022181612 -0.0037428986)
(0.13908841 0.0031788493 -0.0060217635)
(0.14268757 0.0045502751 -0.0091293161)
(0.14625337 0.006382694 -0.013239381)
(0.14951565 0.0088654714 -0.018433698)
(0.15210115 0.011983078 -0.024632004)
(0.15363952 0.015508951 -0.031556695)
(0.15398594 0.01906462 -0.038751994)
(0.15329372 0.022266854 -0.045680999)
(0.15192016 0.024852337 -0.051863237)
(0.15028357 0.026698268 -0.056974126)
(0.14876306 0.027798547 -0.060868029)
(0.14762394 0.028261679 -0.063532763)
(0.14695014 0.0282592 -0.065017286)
(0.14660523 0.027977968 -0.065357075)
(0.14618147 0.027640193 -0.064509006)
(0.1448425 0.027633691 -0.062293012)
(0.14094093 0.028795365 -0.058284804)
(0.132077 0.033056507 -0.051604409)
(0.088953528 0.046954317 -0.040482206)
(0.098897351 -0.0019404273 0.0008486461)
(0.098801671 -0.0026198865 0.0012876678)
(0.098759912 -0.0029087605 0.0014823054)
(0.098680205 -0.0028528468 0.001594488)
(0.098790714 -0.0025401463 0.0016654282)
(0.09918622 -0.0021006107 0.0016958922)
(0.099833837 -0.0016195369 0.0016836137)
(0.10070075 -0.0011478779 0.0016236611)
(0.10187115 -0.00066236168 0.0015014816)
(0.10355126 -5.7626655e-05 0.0012672995)
(0.10592443 0.00083815124 0.00082501028)
(0.10928144 0.0024106948 2.3952892e-05)
(0.11383218 0.0050687565 -0.0012681338)
(0.11968237 0.0091086338 -0.0032902855)
(0.12660607 0.014863778 -0.0062992356)
(0.13394668 0.022301426 -0.010432011)
(0.140709 0.030905759 -0.015569512)
(0.14600005 0.039739815 -0.021294404)
(0.14942759 0.047849703 -0.027049094)
(0.15112548 0.054619687 -0.032354312)
(0.15154251 0.059783006 -0.036908621)
(0.1512305 0.063317551 -0.040559071)
(0.15063695 0.065447292 -0.043198765)
(0.14995993 0.066512395 -0.044723803)
(0.14913711 0.066857165 -0.045013031)
(0.14785542 0.066858492 -0.043855913)
(0.14542768 0.067218898 -0.040776057)
(0.14051937 0.069344406 -0.034731707)
(0.13267864 0.076041196 -0.023575038)
(0.09949566 0.092657451 -0.0035007542)
(0.099041663 -0.0021567645 0.00086705258)
(0.098804487 -0.0031574525 0.0013210677)
(0.097885407 -0.0035059003 0.0015286425)
(0.096423257 -0.0036079043 0.0016554258)
(0.094831201 -0.003587072 0.0017528725)
(0.09329245 -0.0034930099 0.0018332724)
(0.091821379 -0.0033707826 0.0019084105)
(0.090383999 -0.0032679448 0.0019951408)
(0.088950064 -0.0031828568 0.0021200994)
(0.087531922 -0.0030478078 0.0023198504)
(0.086212647 -0.0028213397 0.0026261406)
(0.085163828 -0.0023812125 0.0030464678)
(0.085079642 -0.0012221161 0.0034701197)
(0.08688018 0.0014889583 0.0037136827)
(0.091190416 0.0069847281 0.0035434584)
(0.098244394 0.016018628 0.0026310601)
(0.10713403 0.02811903 0.00084069139)
(0.11614122 0.04156248 -0.0014191845)
(0.12399471 0.054355859 -0.0035553951)
(0.1302223 0.065185213 -0.0052652091)
(0.13483508 0.073516285 -0.0065909076)
(0.13809724 0.079299726 -0.0077478462)
(0.14027677 0.082737253 -0.0089133514)
(0.14142006 0.084210227 -0.009902182)
(0.14134923 0.08418261 -0.010323612)
(0.13979527 0.083172103 -0.0096725236)
(0.13632404 0.081922337 -0.0072088044)
(0.12995998 0.081893443 -0.0018812722)
(0.12098764 0.086335811 0.0080093234)
(0.08709918 0.10157782 0.025539133)
(0.097002159 -0.0013301432 0.000835857)
(0.095227263 -0.0019318253 0.0012544858)
(0.092149215 -0.0021146122 0.0014251848)
(0.088246333 -0.0021532283 0.0015124428)
(0.084247488 -0.0021233714 0.0015704985)
(0.080392441 -0.0020393791 0.0016121268)
(0.076672953 -0.0019189085 0.0016500546)
(0.073046737 -0.001782532 0.0017036596)
(0.069475216 -0.0016399075 0.001799843)
(0.065904149 -0.0014942676 0.0019772687)
(0.062238981 -0.0013824627 0.0022929652)
(0.058304751 -0.0014252064 0.0028372011)
(0.053905884 -0.0016795172 0.0037660915)
(0.048864252 -0.0018431449 0.0052959561)
(0.043806972 -0.00062004456 0.0076250564)
(0.040568174 0.004120334 0.010943101)
(0.041927611 0.013647964 0.015070177)
(0.048349327 0.026045807 0.019451862)
(0.057693627 0.038108167 0.023783786)
(0.068047316 0.048157079 0.02789809)
(0.078209329 0.055791842 0.031596311)
(0.087401169 0.061074823 0.034727771)
(0.095136387 0.064114752 0.037253097)
(0.10107826 0.06515172 0.039165353)
(0.10488737 0.064570561 0.040633596)
(0.10621633 0.062888529 0.04206844)
(0.10470025 0.060755666 0.04408029)
(0.10003964 0.059398227 0.047382645)
(0.095566363 0.062029996 0.052416061)
(0.092109126 0.075854418 0.057740437)
(0.1018639 -0.0010554347 0.0010495088)
(0.1088076 -0.0012392465 0.0015438897)
(0.11522329 -0.0013606985 0.0016748415)
(0.12041955 -0.0013290495 0.0016322687)
(0.12495347 -0.0011759613 0.0014658392)
(0.12909707 -0.00099492815 0.0011671952)
(0.13287637 -0.00084568768 0.0007174594)
(0.13630232 -0.00075940435 8.9517341e-05)
(0.13936881 -0.00077499899 -0.00076694686)
(0.14205086 -0.00092738431 -0.0019738345)
(0.14432633 -0.0012499569 -0.0036559663)
(0.14617876 -0.0017932549 -0.0059632583)
(0.14750618 -0.0025777427 -0.0090513837)
(0.14823065 -0.0037776104 -0.013060264)
(0.14853821 -0.0053196996 -0.018011489)
(0.14865957 -0.0071265751 -0.023745289)
(0.14878312 -0.0090233382 -0.029940474)
(0.14905976 -0.010718779 -0.036178487)
(0.14954205 -0.011946428 -0.042047908)
(0.15016978 -0.012645232 -0.047232649)
(0.15085922 -0.012975381 -0.051546223)
(0.15161284 -0.013166325 -0.054912619)
(0.15253243 -0.013292497 -0.057330818)
(0.15373401 -0.013286926 -0.058829213)
(0.15526818 -0.013046307 -0.059390683)
(0.1570715 -0.012414035 -0.058908237)
(0.1589027 -0.01090715 -0.057196376)
(0.1601754 -0.0072194631 -0.054024588)
(0.15941611 0.0021719799 -0.048941489)
(0.13404504 0.027827212 -0.040802655)
(0.10020727 -0.0019344964 0.0010978712)
(0.1010801 -0.0026287006 0.0016919075)
(0.10246077 -0.0029901667 0.0019550663)
(0.10401828 -0.0030796551 0.002096088)
(0.1057341 -0.0029985263 0.0021763987)
(0.10763476 -0.0028820182 0.0021995766)
(0.10967726 -0.0028169183 0.0021628149)
(0.11181238 -0.0028556965 0.0020579762)
(0.1140162 -0.0030647662 0.0018645541)
(0.11627804 -0.0035119914 0.0015326305)
(0.11859108 -0.0042734084 0.00097816324)
(0.12098059 -0.0054527027 9.9906022e-05)
(0.12340849 -0.0070937347 -0.0012061031)
(0.12582019 -0.0093937189 -0.0030879197)
(0.12819234 -0.012240046 -0.0056766573)
(0.1305917 -0.015430646 -0.0089988282)
(0.13312331 -0.018544209 -0.012900428)
(0.13586114 -0.020859185 -0.01706279)
(0.1387218 -0.02172788 -0.021154135)
(0.14145443 -0.021034459 -0.024954433)
(0.14381025 -0.019226215 -0.028331692)
(0.14577537 -0.017063423 -0.031176816)
(0.14755106 -0.01507938 -0.033427607)
(0.14934731 -0.013398221 -0.035061962)
(0.151279 -0.011983048 -0.035928996)
(0.1535861 -0.010741446 -0.03561032)
(0.15699627 -0.0091753712 -0.033557465)
(0.16328067 -0.0062341139 -0.029022708)
(0.1780693 0.00068622146 -0.020894944)
(0.22160424 0.018553167 -0.0091584869)
(0.10035513 -0.002181121 0.0011119758)
(0.10108865 -0.0032002297 0.0017208012)
(0.10160979 -0.0035747992 0.0020087312)
(0.10183459 -0.0037272167 0.0021853233)
(0.10193926 -0.0037859164 0.0023195487)
(0.10204199 -0.0038040929 0.0024253239)
(0.10215752 -0.0038285819 0.0025140729)
(0.10226414 -0.0039038464 0.0026020407)
(0.10234166 -0.0040776928 0.0027117162)
(0.10237451 -0.0044065465 0.002868826)
(0.10235037 -0.0049636173 0.0030869685)
(0.10226393 -0.0058492048 0.0033480863)
(0.10213167 -0.0072051072 0.0035849927)
(0.10200759 -0.0091780656 0.0037462556)
(0.1020166 -0.011831153 0.0038504392)
(0.10236566 -0.015126019 0.0039449784)
(0.10342471 -0.018661771 0.0042567451)
(0.10561702 -0.021490764 0.0052790134)
(0.10912492 -0.022663355 0.0072302701)
(0.11355722 -0.022101858 0.0098468546)
(0.1180812 -0.020510412 0.012738685)
(0.12194891 -0.018743312 0.015639696)
(0.12437786 -0.016206798 0.019617617)
(0.12617444 -0.0128317 0.024884868)
(0.12782783 -0.0088989391 0.031235783)
(0.12915871 -0.0052468448 0.037819989)
(0.13048409 -0.0019852056 0.044988678)
(0.13171126 0.0010941582 0.053478681)
(0.13468908 0.0044715727 0.063872992)
(0.13920769 0.0092231718 0.078187957)
(0.098258539 -0.0013558714 0.0010843736)
(0.097395723 -0.0019832665 0.001673436)
(0.095686295 -0.0021926808 0.0019452711)
(0.093386504 -0.0022651757 0.0021025362)
(0.090985796 -0.0022776783 0.0022142771)
(0.088660747 -0.002247521 0.0022960571)
(0.086411086 -0.0021954832 0.0023623029)
(0.084209676 -0.0021456363 0.0024343732)
(0.082036781 -0.0021211414 0.0025396994)
(0.079867417 -0.0021491215 0.0027147843)
(0.077656482 -0.002272358 0.0030106714)
(0.075323735 -0.0025682403 0.0035050216)
(0.072737425 -0.0031627066 0.004326966)
(0.069694377 -0.0042123042 0.0056403682)
(0.065939099 -0.0058004258 0.0076832501)
(0.061285104 -0.007626458 0.011151796)
(0.05614392 -0.0084239576 0.017326306)
(0.051993719 -0.0062909169 0.027161257)
(0.050682344 -0.00045058261 0.039949429)
(0.052919465 0.0076106399 0.053482315)
(0.057876908 0.015675673 0.06582041)
(0.064130704 0.022543933 0.076127207)
(0.070894669 0.027227579 0.083491979)
(0.076597896 0.029784575 0.088684596)
(0.080713517 0.0304504 0.092504193)
(0.083065016 0.029649307 0.095674257)
(0.083468835 0.027745859 0.098922666)
(0.081597393 0.025353549 0.10295549)
(0.078371908 0.02384994 0.10817039)
(0.072208405 0.024755081 0.11270828)
(0.10174214 -0.0010651689 0.00040083095)
(0.10848606 -0.0012465248 0.0006822146)
(0.11481967 -0.0013506044 0.00083725928)
(0.12005093 -0.0012851766 0.00091495385)
(0.12467457 -0.0010823556 0.00094378574)
(0.12893231 -0.00084075494 0.0009345742)
(0.13283304 -0.00062581267 0.0008939644)
(0.1363518 -0.00046834158 0.00082366164)
(0.13946419 -0.0003859082 0.00070867226)
(0.14217498 -0.0003765676 0.00053529891)
(0.14449517 -0.00045388245 0.00030160797)
(0.14637844 -0.00063314251 5.3034365e-07)
(0.14763176 -0.00091773465 -0.00039380877)
(0.14809113 -0.0015281056 -0.00096275747)
(0.14790604 -0.0024344119 -0.0018057079)
(0.14722888 -0.0037241867 -0.0029968205)
(0.1461826 -0.0055134205 -0.0046414563)
(0.14499703 -0.0078919976 -0.006909372)
(0.14402422 -0.010804488 -0.0099672671)
(0.14360494 -0.013937568 -0.013817078)
(0.14389432 -0.016818429 -0.018187062)
(0.14484097 -0.019100342 -0.022614933)
(0.14631818 -0.020708443 -0.026653632)
(0.14825582 -0.02172026 -0.030017707)
(0.1506594 -0.022187331 -0.032541427)
(0.15352605 -0.022000162 -0.034163886)
(0.15672076 -0.020770441 -0.034955158)
(0.15969559 -0.017185191 -0.035184482)
(0.16137484 -0.007206358 -0.035642207)
(0.13463767 0.021049941 -0.037904391)
(0.10008525 -0.0019358692 0.00040731403)
(0.10074069 -0.0026172228 0.00071210542)
(0.10202887 -0.0029484763 0.00089568708)
(0.10363367 -0.0029881951 0.001006112)
(0.10546516 -0.0028383132 0.0010716907)
(0.10750826 -0.0026386496 0.0010959737)
(0.10970446 -0.0024788361 0.0010745193)
(0.11198591 -0.0024029307 0.00099862435)
(0.11430267 -0.0024398299 0.00085105723)
(0.11662347 -0.0026006998 0.00060580292)
(0.11892538 -0.0029206933 0.00022991401)
(0.12118559 -0.0034438271 -0.00031961341)
(0.12337845 -0.0042208765 -0.0011247199)
(0.12539747 -0.0055329331 -0.0022899398)
(0.12712852 -0.0073956821 -0.0039660605)
(0.12854312 -0.0099297131 -0.0063432066)
(0.12964647 -0.013212435 -0.0096281102)
(0.13050817 -0.017198199 -0.013974915)
(0.13130167 -0.021485047 -0.019300439)
(0.13220824 -0.025290708 -0.025167403)
(0.13325529 -0.027905858 -0.030961318)
(0.13430224 -0.029180997 -0.036159442)
(0.13524522 -0.029528467 -0.040446038)
(0.13616159 -0.029459701 -0.043639024)
(0.13727861 -0.029188561 -0.045584732)
(0.13894994 -0.028493872 -0.046170843)
(0.14180326 -0.026943443 -0.045609689)
(0.14754691 -0.023181606 -0.044745272)
(0.16314443 -0.012477749 -0.046062099)
(0.20796594 0.015617328 -0.050849483)
(0.10023592 -0.0021749236 0.00041245123)
(0.10076062 -0.0031875056 0.00072312564)
(0.10119892 -0.0035457181 0.00091889149)
(0.10148478 -0.0036732345 0.0010481077)
(0.10172964 -0.0036995055 0.001139243)
(0.10201881 -0.0036754017 0.0011979858)
(0.10236365 -0.0036425348 0.001224389)
(0.10274319 -0.0036343081 0.001218189)
(0.10313527 -0.00367863 0.0011766555)
(0.10352078 -0.0038044468 0.00109117)
(0.10387917 -0.004054036 0.00094249085)
(0.10418209 -0.0044898465 0.00069270031)
(0.10438334 -0.0052078139 0.00027329923)
(0.10439749 -0.0063589991 -0.00042128142)
(0.10411983 -0.0080790305 -0.0015647067)
(0.10350356 -0.010555726 -0.0034316274)
(0.10250011 -0.01399626 -0.0062867397)
(0.10122299 -0.018366865 -0.010259191)
(0.10008421 -0.023057614 -0.014873733)
(0.099589571 -0.026928379 -0.019208345)
(0.09990888 -0.02918639 -0.022687571)
(0.10058937 -0.029986635 -0.025185541)
(0.101048 -0.030064449 -0.026510831)
(0.10122665 -0.030109953 -0.026362448)
(0.10161205 -0.030389426 -0.024095071)
(0.10303657 -0.030464221 -0.018398096)
(0.106238 -0.030111235 -0.0090696314)
(0.1130364 -0.029290198 0.0043440803)
(0.12681063 -0.028464738 0.022166791)
(0.16814844 -0.029708007 0.045154399)
(0.09814199 -0.0013499281 0.00040237316)
(0.097072764 -0.001970862 0.00070077329)
(0.095281618 -0.002171611 0.00088507094)
(0.093043521 -0.0022345524 0.0010033618)
(0.090785301 -0.0022363029 0.001085007)
(0.088650764 -0.0021926627 0.0011377414)
(0.086636959 -0.0021227802 0.0011643346)
(0.084720137 -0.0020479723 0.0011688603)
(0.082884247 -0.0019860594 0.0011557641)
(0.08111358 -0.0019532485 0.001128925)
(0.079384943 -0.0019698365 0.0010922825)
(0.077661452 -0.0020677596 0.0010521416)
(0.075883684 -0.0023008952 0.0010211365)
(0.07395458 -0.00275723 0.0010175573)
(0.071716316 -0.0035638287 0.0010773333)
(0.068944724 -0.0049202362 0.0013130155)
(0.065395802 -0.0070640577 0.0021231001)
(0.061006704 -0.009763305 0.0045665473)
(0.056332866 -0.011733023 0.010415233)
(0.052783211 -0.010971375 0.020904858)
(0.051832827 -0.0066600104 0.035042922)
(0.053665677 -9.7027765e-05 0.049974714)
(0.057229414 0.0064499178 0.062980941)
(0.061057941 0.011547067 0.073481584)
(0.064340713 0.014529885 0.081918938)
(0.066745313 0.015298354 0.088970654)
(0.0681028 0.014190892 0.095517629)
(0.067953787 0.011516864 0.10254836)
(0.065613714 0.0069588612 0.11098372)
(0.049359859 -0.0029845257 0.12101397)
(0.10171714 -0.0010641757 0.0002231371)
(0.10838949 -0.0012412836 0.00041359436)
(0.1146453 -0.0013360179 0.00054922198)
(0.11982174 -0.0012532449 0.00063627795)
(0.12441546 -0.0010208398 0.00068771325)
(0.12866293 -0.00073312447 0.00071219996)
(0.13257271 -0.00044893141 0.00071441597)
(0.13612762 -0.00018745565 0.00069764688)
(0.13933967 5.0822421e-05 0.00066648948)
(0.14223452 0.00027419616 0.00064194754)
(0.14482823 0.00049716557 0.00063546445)
(0.14710747 0.00074778239 0.00066332258)
(0.14889539 0.0010666313 0.00076314026)
(0.15002658 0.0011983145 0.00089563863)
(0.15072397 0.0013124839 0.0010374401)
(0.15125209 0.0014248664 0.0012605704)
(0.15168578 0.0014917139 0.0016627217)
(0.15201543 0.0014486922 0.0022968731)
(0.1522436 0.001192677 0.0030831877)
(0.15244482 0.00060520089 0.0037530042)
(0.15279776 -0.00036174385 0.0039156542)
(0.15352849 -0.0016078763 0.0032590243)
(0.1547455 -0.0029265345 0.0018215643)
(0.15645482 -0.0040425271 -8.1299149e-05)
(0.15852649 -0.0047693288 -0.0020752196)
(0.16058398 -0.0049340961 -0.0039682665)
(0.16196408 -0.004054126 -0.0058389403)
(0.16121979 -0.00064104901 -0.0079350708)
(0.15471214 0.0095244759 -0.012293338)
(0.089935433 0.04358751 -0.022650445)
(0.10006038 -0.0019349625 0.00022883304)
(0.1006348 -0.0026109433 0.00043437715)
(0.1018243 -0.0029283755 0.00058650113)
(0.10334876 -0.0029414575 0.00068775877)
(0.10512035 -0.0027464609 0.00074960501)
(0.10711343 -0.0024763126 0.00077778564)
(0.10926377 -0.0022097867 0.00077237482)
(0.11150275 -0.0019730819 0.0007304707)
(0.11378451 -0.0017691301 0.00064699838)
(0.11608243 -0.0015929113 0.00051589412)
(0.11837886 -0.0014367686 0.00032688034)
(0.12066176 -0.001284109 6.6296475e-05)
(0.12292727 -0.0011178555 -0.00028966565)
(0.12509548 -0.0012345225 -0.00075792709)
(0.12707812 -0.0014915502 -0.0013942963)
(0.12886019 -0.0019227962 -0.002283399)
(0.13041802 -0.0026540144 -0.0035482222)
(0.13170803 -0.0038603874 -0.0053712841)
(0.13269992 -0.0057499939 -0.0080033683)
(0.13342744 -0.0084187223 -0.011684855)
(0.13404453 -0.011570631 -0.016414923)
(0.13477729 -0.014499725 -0.021754657)
(0.13570207 -0.016619691 -0.026969284)
(0.13664439 -0.017761964 -0.031266969)
(0.13735153 -0.018027627 -0.034232774)
(0.13768223 -0.017476579 -0.036060221)
(0.13779527 -0.015604039 -0.037398754)
(0.13859925 -0.0098781548 -0.03979789)
(0.14917962 0.0096004861 -0.045701567)
(0.16049928 0.054309498 -0.052660114)
(0.100212 -0.0021721512 0.00023057022)
(0.10065887 -0.003181945 0.00043754936)
(0.10100142 -0.003533261 0.00059406331)
(0.101208 -0.0036474669 0.00070264154)
(0.10139342 -0.0036525152 0.00077418397)
(0.10163501 -0.0035956484 0.00081453614)
(0.10194087 -0.0035122337 0.00082456133)
(0.10229082 -0.0034260906 0.00080287476)
(0.10266499 -0.0033512331 0.00074627663)
(0.10304745 -0.0032988828 0.0006490229)
(0.10342204 -0.0032836341 0.00050087557)
(0.10377022 -0.0033267088 0.00028372804)
(0.10407355 -0.003460865 -3.3036946e-05)
(0.1042861 -0.0037698267 -0.00046960043)
(0.10431718 -0.0043067909 -0.0010599727)
(0.10405528 -0.0051727463 -0.001882046)
(0.10335781 -0.006548211 -0.0031091466)
(0.1020582 -0.0086934124 -0.0049926491)
(0.10006231 -0.011885819 -0.00786296)
(0.097509247 -0.016170826 -0.011821201)
(0.094892086 -0.020900253 -0.016233556)
(0.092827549 -0.024862246 -0.019920468)
(0.09140748 -0.027411535 -0.021971709)
(0.090084332 -0.028735035 -0.021953195)
(0.08838909 -0.029216955 -0.020070202)
(0.086599862 -0.029215312 -0.017080447)
(0.086165547 -0.02881313 -0.013438768)
(0.089843365 -0.02742084 -0.009250279)
(0.10436054 -0.022070257 -0.0043954386)
(0.17228178 -0.003325898 -0.0090647972)
(0.098118272 -0.001351433 0.00022464997)
(0.096972791 -0.0019743739 0.00042373613)
(0.095087998 -0.0021751923 0.00057211193)
(0.092772307 -0.0022355101 0.00067244124)
(0.090456776 -0.0022315335 0.00073586023)
(0.088277619 -0.0021776734 0.00076917782)
(0.086228048 -0.002090954 0.00077467397)
(0.084283884 -0.0019896801 0.00075286903)
(0.082429 -0.0018872087 0.00070320152)
(0.080647954 -0.0017931207 0.00062356299)
(0.078920506 -0.0017165472 0.00050984776)
(0.077219889 -0.0016691091 0.00035600413)
(0.075506384 -0.0016697273 0.00015590046)
(0.073723316 -0.0017611433 -8.9127897e-05)
(0.071776965 -0.0019982806 -0.00037331094)
(0.069518656 -0.0024730177 -0.00068145772)
(0.066751931 -0.0033594632 -0.00098583567)
(0.063263099 -0.0049568795 -0.0012255147)
(0.058896399 -0.0076329847 -0.0011395151)
(0.053740003 -0.011359327 0.0002897595)
(0.048561607 -0.014694957 0.0051474889)
(0.044907701 -0.015195092 0.014855129)
(0.043872456 -0.01228473 0.027744635)
(0.04485844 -0.0078408352 0.040510443)
(0.046666226 -0.0039671866 0.051112812)
(0.048817119 -0.0017412721 0.059421007)
(0.051385785 -0.0013802922 0.066530786)
(0.054137151 -0.0030275801 0.074072219)
(0.057223474 -0.0077649616 0.084204013)
(0.059486828 -0.018481388 0.098537563)
(0.10170291 -0.0010660006 6.5167612e-05)
(0.10833866 -0.0012447775 0.00011979653)
(0.11455263 -0.0013405127 0.00015680193)
(0.11969693 -0.0012572434 0.00017783478)
(0.12427208 -0.0010218599 0.00018769446)
(0.12851223 -0.00072812189 0.00019034822)
(0.13242404 -0.00043474582 0.00018844057)
(0.13599061 -0.00016086338 0.00018408285)
(0.13922602 9.3109619e-05 0.00017944946)
(0.14215593 0.00033540003 0.00017730297)
(0.14480104 0.00058292546 0.00017910577)
(0.14716983 0.00086279164 0.00018996556)
(0.14897513 0.0012397106 0.0002270374)
(0.15001386 0.0013608089 0.00023851644)
(0.15061895 0.0014677056 0.00019634807)
(0.15115237 0.0016088547 0.00011915851)
(0.15174587 0.0018035336 3.7269125e-05)
(0.15242461 0.0021231454 -4.9344779e-06)
(0.153153 0.0025901675 2.5374884e-05)
(0.15388945 0.0032000625 0.00011152464)
(0.15466508 0.0038898698 0.00015683724)
(0.15578701 0.0044638949 -2.8363316e-06)
(0.15752236 0.0046951133 -0.00048017145)
(0.15985162 0.0047191549 -0.001247429)
(0.16250849 0.0049931168 -0.0021571658)
(0.16491018 0.0059856314 -0.0030294664)
(0.1660729 0.0084130375 -0.0037940717)
(0.16296471 0.013888188 -0.0047063751)
(0.1498024 0.027083327 -0.0070741818)
(0.051657815 0.066335868 -0.012774703)
(0.10004587 -0.001936458 6.6609585e-05)
(0.10057867 -0.002613249 0.00012536588)
(0.1017157 -0.0029296273 0.00016655531)
(0.10319517 -0.0029385648 0.00019052281)
(0.10493352 -0.0027349394 0.00020138374)
(0.10690098 -0.0024505414 0.00020214556)
(0.10902936 -0.0021632136 0.00019384001)
(0.11124827 -0.0018978246 0.00017633329)
(0.11351136 -0.0016553715 0.00014875611)
(0.11579195 -0.0014287062 0.00010952114)
(0.1180745 -0.0012061013 5.6156419e-05)
(0.12034851 -0.00096892284 -1.3575678e-05)
(0.12270752 -0.00059408529 -0.00010380617)
(0.12500445 -0.00049551917 -0.00020567398)
(0.12712376 -0.00043565777 -0.0003389072)
(0.12906933 -0.0003816939 -0.0005325837)
(0.13084885 -0.00035371458 -0.00082409959)
(0.13246827 -0.00033187939 -0.0012681802)
(0.1339136 -0.00037958913 -0.0019508281)
(0.13511394 -0.00065544162 -0.0030267955)
(0.13591593 -0.0015105308 -0.0047483449)
(0.13601779 -0.00363166 -0.0073943559)
(0.13553676 -0.0071143284 -0.010855689)
(0.13474746 -0.010932978 -0.014312605)
(0.13362238 -0.013741427 -0.016894087)
(0.13190166 -0.01486922 -0.018356846)
(0.12945338 -0.013507038 -0.019031333)
(0.12798098 -0.0049330791 -0.020000167)
(0.13449409 0.02382713 -0.022857882)
(0.10662703 0.083255913 -0.02706746)
(0.1001977 -0.002171568 6.6813301e-05)
(0.10060396 -0.0031810746 0.00012560798)
(0.10089473 -0.003530506 0.00016763653)
(0.10105577 -0.0036403116 0.00019315262)
(0.10120635 -0.0036379747 0.00020603298)
(0.10142001 -0.0035699561 0.00020907261)
(0.10170117 -0.0034703271 0.00020310109)
(0.10202801 -0.003360967 0.0001878287)
(0.10237963 -0.0032531364 0.00016220057)
(0.10273822 -0.0031544556 0.00012411048)
(0.1030828 -0.0030748962 6.9595282e-05)
(0.10338347 -0.0030283318 -9.1114194e-06)
(0.10363826 -0.0029561959 -0.00012773014)
(0.10382737 -0.002952443 -0.00029319894)
(0.10385943 -0.0030274825 -0.00052183313)
(0.10364005 -0.0032101466 -0.00084492691)
(0.1030721 -0.0035764854 -0.0013090602)
(0.10202749 -0.0042391065 -0.0019852993)
(0.10033213 -0.005398419 -0.0030037138)
(0.097749591 -0.0074062282 -0.0046138745)
(0.09400101 -0.010830191 -0.0071508341)
(0.088847991 -0.016309722 -0.010535848)
(0.082409283 -0.02319157 -0.013451665)
(0.075494262 -0.029103026 -0.013919385)
(0.069017318 -0.032310282 -0.011618933)
(0.063440458 -0.033468069 -0.0077288011)
(0.060289852 -0.033323584 -0.0032064037)
(0.062032337 -0.029542985 0.00093565746)
(0.080767534 -0.0096662723 -0.0018294779)
(0.12862405 0.048791887 -0.018949262)
(0.098104117 -0.0013510565 6.5083312e-05)
(0.096918614 -0.0019735229 0.00012152113)
(0.094982708 -0.002172973 0.00016106226)
(0.092621581 -0.0022308433 0.00018396153)
(0.090271107 -0.0022233744 0.00019410817)
(0.088063724 -0.0021646874 0.00019448159)
(0.085988332 -0.0020712368 0.00018617742)
(0.084018146 -0.0019605936 0.00016916817)
(0.082134693 -0.0018450875 0.00014268437)
(0.080319161 -0.0017326986 0.00010497759)
(0.078546119 -0.0016295164 5.2855923e-05)
(0.076782385 -0.0015400344 -1.9084909e-05)
(0.074993232 -0.0014607963 -0.0001185102)
(0.073125654 -0.0014195283 -0.00024760968)
(0.071087953 -0.0014449995 -0.00041433514)
(0.068764543 -0.0015664181 -0.00062222784)
(0.066017857 -0.001840236 -0.00086133086)
(0.062667725 -0.0023703261 -0.0011043689)
(0.058465116 -0.0033541579 -0.0013388416)
(0.053090623 -0.0051670426 -0.0016099411)
(0.046170738 -0.0085218617 -0.0018782345)
(0.037442151 -0.013944393 -0.0011278406)
(0.027464571 -0.019728095 0.0030556733)
(0.018821198 -0.021935427 0.012145528)
(0.015067223 -0.019705351 0.02310476)
(0.016737718 -0.017217823 0.031615895)
(0.022381528 -0.016630828 0.037892986)
(0.031779648 -0.01766739 0.044284873)
(0.046357558 -0.019067009 0.05322307)
(0.11004138 -0.014882393 0.058960295)
(0.10170291 -0.0010660008 -6.5164543e-05)
(0.10833866 -0.0012447793 -0.00011979737)
(0.11455262 -0.0013405169 -0.00015680903)
(0.11969691 -0.0012572507 -0.00017785132)
(0.12427206 -0.0010218715 -0.00018772352)
(0.1285122 -0.00072813957 -0.00019039342)
(0.13242401 -0.00043477136 -0.00018850619)
(0.13599055 -0.00016089889 -0.00018417366)
(0.13922595 9.3062749e-05 -0.00017957123)
(0.14215584 0.00033533841 -0.00017746467)
(0.14480091 0.00058284629 -0.00017932168)
(0.14716962 0.00086269478 -0.00019025824)
(0.14897485 0.0012395794 -0.00022744265)
(0.15001346 0.0013606276 -0.00023906882)
(0.15061837 0.001467451 -0.00019709262)
(0.15115152 0.0016085004 -0.00012018375)
(0.15174462 0.0018030383 -3.8709371e-05)
(0.15242275 0.0021224448 2.8765223e-06)
(0.15315021 0.0025891494 -2.8366664e-05)
(0.15388532 0.0031985147 -0.00011593317)
(0.15465932 0.0038872706 -0.00016337119)
(0.15577955 0.0044590558 -6.6349206e-06)
(0.15751163 0.0046867333 0.00046756224)
(0.15983704 0.0047065858 0.0012313789)
(0.16249058 0.0049757426 0.002138062)
(0.16488977 0.0059631641 0.0030084677)
(0.16605082 0.0083858693 0.0037728513)
(0.1629539 0.01385718 0.0046849981)
(0.14981407 0.027042573 0.007061742)
(0.05177039 0.066285061 0.012780041)
(0.10004588 -0.0019364583 -6.6602756e-05)
(0.10057867 -0.0026132514 -0.00012535607)
(0.10171571 -0.0029296326 -0.00016654069)
(0.10319517 -0.0029385739 -0.00019050267)
(0.10493352 -0.002734954 -0.00020135751)
(0.10690098 -0.0024505634 -0.00020211264)
(0.10902936 -0.0021632452 -0.00019379977)
(0.11124828 -0.0018978682 -0.00017628519)
(0.11351136 -0.0016554286 -0.00014869983)
(0.11579194 -0.0014287801 -0.00010945631)
(0.11807448 -0.0012061935 -5.6083717e-05)
(0.12034847 -0.00096903155 1.3654135e-05)
(0.12270741 -0.00059425194 0.00010388363)
(0.12500423 -0.00049577826 0.00020573201)
(0.12712338 -0.00043605892 0.00033891982)
(0.12906872 -0.00038230393 0.00053252287)
(0.13084788 -0.00035463267 0.00082392237)
(0.13246674 -0.00033325504 0.0012678139)
(0.1339112 -0.00038166761 0.001950161)
(0.13511014 -0.00065868407 0.0030256746)
(0.1359098 -0.0015160313 0.0047466314)
(0.13600836 -0.0036415708 0.0073920731)
(0.13552526 -0.0071287153 0.010852815)
(0.13473406 -0.01095218 0.014309959)
(0.13360723 -0.013765302 0.016892824)
(0.13188603 -0.014896987 0.018359054)
(0.12944217 -0.013538074 0.01904076)
(0.12796851 -0.0049851458 0.020023236)
(0.13451967 0.023760343 0.022901314)
(0.10684441 0.083161537 0.027131996)
(0.10019771 -0.0021715681 -6.6806201e-05)
(0.10060396 -0.0031810754 -0.00012559815)
(0.10089473 -0.0035305077 -0.00016762192)
(0.10105577 -0.0036403145 -0.00019313189)
(0.10120635 -0.0036379792 -0.00020600469)
(0.10142002 -0.0035699627 -0.00020903494)
(0.10170118 -0.0034703363 -0.00020305185)
(0.10202802 -0.0033609795 -0.00018776534)
(0.10237965 -0.0032531527 -0.00016211995)
(0.10273823 -0.0031544759 -0.00012400849)
(0.10308282 -0.0030749194 -6.9466255e-05)
(0.10338351 -0.0030283568 9.2759213e-06)
(0.10363832 -0.00295625 0.00012794451)
(0.10382747 -0.0029525497 0.00029348019)
(0.10385956 -0.0030276752 0.00052220425)
(0.10364022 -0.0032104739 0.0008454203)
(0.1030723 -0.0035770149 0.0013097193)
(0.10202775 -0.0042399338 0.0019861808)
(0.10033244 -0.0053996913 0.0030048885)
(0.097749913 -0.0074082031 0.0046154245)
(0.094001167 -0.010833463 0.007152853)
(0.088847301 -0.016315288 0.010538438)
(0.082407066 -0.023199261 0.013454977)
(0.075490395 -0.029113519 0.013924023)
(0.069013144 -0.032323401 0.011626686)
(0.063440609 -0.03348321 0.0077441581)
(0.06030578 -0.033341534 0.0032382691)
(0.06209436 -0.029582195 -0.00087515509)
(0.080839071 -0.0098013226 0.0018810797)
(0.12892364 0.048530007 0.019037785)
(0.098104117 -0.0013510565 -6.5076125e-05)
(0.096918615 -0.0019735231 -0.00012151135)
(0.09498271 -0.0021729735 -0.00016104806)
(0.092621584 -0.0022308442 -0.00018394162)
(0.090271111 -0.0022233758 -0.00019408115)
(0.08806373 -0.0021646896 -0.00019444563)
(0.08598834 -0.0020712401 -0.00018613036)
(0.084018157 -0.0019605981 -0.00016910717)
(0.08213471 -0.0018450938 -0.00014260595)
(0.080319185 -0.0017327069 -0.00010487678)
(0.078546156 -0.0016295271 -5.2725825e-05)
(0.076782446 -0.0015400486 1.9254573e-05)
(0.074993331 -0.0014608196 0.00011873517)
(0.073125811 -0.0014195662 0.00024791332)
(0.071088196 -0.0014450593 0.00041475177)
(0.068764913 -0.0015665098 0.00062280754)
(0.066018414 -0.0018403728 0.00086214758)
(0.062668554 -0.0023705286 0.0011055336)
(0.058466338 -0.0033544693 0.0013405137)
(0.053092375 -0.0051675422 0.0016123475)
(0.046173121 -0.008522697 0.0018817313)
(0.03744508 -0.013946087 0.0011329933)
(0.027467517 -0.019731588 -0.0030475829)
(0.018823301 -0.021942328 -0.012131923)
(0.015068813 -0.019716152 -0.023081721)
(0.016742402 -0.017232776 -0.031578179)
(0.022396674 -0.016651415 -0.037833163)
(0.031816254 -0.017697653 -0.044191337)
(0.046434125 -0.019129449 -0.053092821)
(0.10999733 -0.015080307 -0.058967095)
(0.10171713 -0.0010641746 -0.00022313163)
(0.10838948 -0.0012412833 -0.00041358768)
(0.11464528 -0.0013360202 -0.00054921364)
(0.11982172 -0.0012532504 -0.00063626905)
(0.12441543 -0.0010208496 -0.00068770472)
(0.1286629 -0.00073313972 -0.00071219169)
(0.13257266 -0.000448954 -0.00071440719)