/*--------------------------------*- C++ -*----------------------------------*\
| =========                 |                                                 |
| \\      /  F ield         | OpenFOAM: The Open Source CFD Toolbox           |
|  \\    /   O peration     | Version:  v2012                                 |
|   \\  /    A nd           | Website:  www.openfoam.com                      |
|    \\/     M anipulation  |                                                 |
\*---------------------------------------------------------------------------*/
FoamFile
{
    version     2.0;
    format      ascii;
    class       volScalarField;
    location    "520/rightSolid";
    object      T;
}
// * * * * * * * * * * * * * * * * * * * * * * * * * * * * * * * * * * * * * //

dimensions      [0 0 0 1 0 0 0];


internalField   nonuniform List<scalar> 
130
(
753.30839
761.24704
769.55227
777.81736
785.71776
793.02141
799.5811
805.29465
810.09063
813.94298
816.84161
818.7789
819.7503
747.43831
756.73093
766.23413
775.46587
784.08711
791.90385
798.80872
804.75297
809.70635
813.66358
816.62777
818.60537
819.59657
735.6789
748.08986
760.14545
771.28849
781.27284
790.03307
797.56563
803.90976
809.12033
813.24175
816.31419
818.3546
819.37081
718.1922
736.44687
752.57866
766.41813
778.15908
788.05424
796.30871
803.10861
808.6071
812.8987
816.06597
818.1605
819.20567
697.6175
725.46363
746.41427
762.8281
776.01599
786.75787
795.52105
802.63376
808.32028
812.73121
815.97225
818.10999
819.17455
697.77282
725.61107
746.54728
762.94458
776.11652
786.84068
795.59262
802.69917
808.38316
812.79735
816.04714
818.18795
819.25348
718.69255
736.89156
752.96849
766.75855
778.45315
788.30218
796.52445
803.30539
808.78782
813.08227
816.26519
818.36811
819.41556
736.40638
748.74895
760.72768
771.80042
781.72495
790.42695
797.90871
804.21245
809.38853
813.49083
816.55713
818.59456
819.61298
748.22542
757.48634
766.92131
776.08013
784.63661
792.38892
799.22623
805.09673
809.98708
813.90628
816.85689
818.82556
819.81108
754.0838
762.018
770.27504
778.47473
786.30882
793.54027
800.01355
805.63477
810.3576
814.16729
817.04602
818.96989
819.93381
)
;

boundaryField
{
    maxX
    {
        type            zeroGradient;
    }
    minZ
    {
        type            zeroGradient;
    }
    maxZ
    {
        type            zeroGradient;
    }
    rightSolid_to_bottomWater
    {
        type            compressible::turbulentTemperatureCoupledBaffleMixed;
        refValue        nonuniform List<scalar> 
130
(
929.39869
927.28565
924.47224
923.74729
924.13377
924.86453
927.3049
930.79355
931.76838
932.31519
933.5001
934.0855
934.44546
926.43408
923.30501
922.05924
924.5892
925.29024
926.23868
926.56407
928.33794
930.09926
931.69234
932.49782
933.15394
933.7297
922.27353
921.26848
922.6668
925.02528
925.13928
927.46781
928.38313
927.55713
927.14114
927.42917
929.86263
930.99098
930.68205
920.53541
921.37634
922.3106
922.97562
924.03951
928.06688
929.06004
928.06356
928.99191
927.84281
927.07647
927.46557
928.47538
918.1021
921.2341
922.09503
923.79192
925.12579
928.47625
928.77692
928.66615
928.29072
927.64042
927.15232
928.27029
929.54709
917.73797
922.67113
923.92459
925.23089
926.55326
928.47207
928.47266
928.20089
927.74617
927.26139
928.07093
928.63117
929.36576
926.88187
925.73947
926.33759
927.34295
928.15041
928.96076
928.40522
928.04324
927.63219
928.3445
930.4855
930.908
931.16553
935.22277
929.28046
928.17593
929.14196
929.72902
930.13883
929.38629
929.05463
928.46673
929.6397
931.88105
932.66015
933.31489
937.18353
932.96386
927.99743
928.21164
929.12344
929.63452
929.66636
929.06067
928.3531
929.72371
931.98325
932.75604
933.02641
938.75119
937.2848
930.97028
927.61414
927.87197
928.38899
928.71629
928.55284
927.67713
928.71929
930.8917
931.31738
931.52551
)
;
        refGradient     uniform 0;
        valueFraction   nonuniform List<scalar> 
130
(
0.0075140686
0.0075140686
0.0075140686
0.0075140686
0.0075140686
0.0075140686
0.0075140686
0.0075140686
0.0075140686
0.0075140686
0.0075140686
0.0075140686
0.0075140686
0.0075140686
0.0075140686
0.0075140686
0.0075140686
0.0075140686
0.0075140686
0.0075140686
0.0075140686
0.0075140686
0.0075140686
0.0075140686
0.0075140686
0.0075140686
0.0075140686
0.0075140686
0.0075140686
0.0075140686
0.0075140686
0.0075140686
0.0075140686
0.0075140686
0.0075140686
0.0075140686
0.0075140686
0.0075140686
0.0075140686
0.0075140686
0.0075140686
0.0075140686
0.0075140686
0.0075140686
0.0075140686
0.0075140686
0.0075140686
0.0075140686
0.0075140686
0.0075140686
0.0075140686
0.0075140686
0.0075140686
0.0075140686
0.0075140686
0.0075140686
0.0075140686
0.0075140686
0.0075140686
0.0075140686
0.0075140686
0.0075140686
0.0075140686
0.0075140686
0.0075140686
0.0075140686
0.0075140686
0.0075140686
0.0075140686
0.0075140686
0.0075140686
0.0075140686
0.0075140686
0.0075140686
0.0075140686
0.0075140686
0.0075140686
0.0075140686
0.0075140686
0.0075140686
0.0075140686
0.0075140686
0.0075140686
0.0075140686
0.0075140686
0.0075140686
0.0075140686
0.0075140686
0.0075140686
0.0075140686
0.0075140686
0.0075140686
0.0075140686
0.0075140686
0.0075140686
0.0075140686
0.0075140686
0.0075140686
0.0075140686
0.0075140686
0.0075140686
0.0075140686
0.0075140686
0.0075140686
0.0075140686
0.0075140686
0.0075140686
0.0075140686
0.0075140686
0.0075140686
0.0075140686
0.0075140686
0.0075140686
0.0075140686
0.0075140686
0.0075140686
0.0075140686
0.0075140686
0.0075140686
0.0075140686
0.0075140686
0.0075140686
0.0075140686
0.0075140686
0.0075140686
0.0075140686
0.0075140686
0.0075140686
0.0075140686
0.0075140686
)
;
        value           nonuniform List<scalar> 
130
(
754.63174
762.49487
770.71653
778.91404
786.75794
794.01215
800.54085
806.23765
811.0049
814.83241
817.71814
819.64526
820.61208
748.78347
757.98277
767.40519
776.58653
785.14823
792.91331
799.7687
805.68162
810.61098
814.55042
817.49838
819.46606
820.45415
737.08105
749.39127
761.36677
772.44378
782.35397
791.06582
798.5486
804.83884
810.00715
814.09975
817.16737
819.20094
820.2072
719.71259
737.83646
753.85409
767.59459
779.25533
789.10633
797.30618
804.04748
809.51163
813.76235
816.90006
818.98176
820.02664
699.2742
726.93467
747.7344
764.03764
777.13645
787.82277
796.52233
803.58073
809.22169
813.5946
816.80763
818.93768
820.0038
699.42559
727.09176
747.88009
764.164
777.2469
787.9049
796.59107
803.64218
809.28005
813.65745
816.88894
819.01787
820.08091
720.25694
738.31059
754.27118
767.96516
779.57796
789.35909
797.51545
804.24274
809.68089
813.9484
817.1235
819.21381
820.25532
737.90034
750.10551
761.98591
772.9827
782.83706
791.47677
798.89669
805.15058
810.28334
814.36356
817.42367
819.45167
820.46736
749.64528
758.80495
768.13171
777.22331
785.72234
793.42024
800.20642
806.02826
810.87654
814.77654
817.72195
819.68165
820.6618
755.4713
763.33486
771.48252
779.59543
787.37259
794.55358
800.98068
806.55842
811.23919
815.02808
817.90149
819.81411
820.77235
)
;
        Tnbr            T;
        thicknessLayers List<scalar> 0();
        kappaLayers     List<scalar> 0();
        kappaMethod     solidThermo;
        kappa           none;
        alphaAni        none;
        alpha           none;
        field           T;
    }
    rightSolid_to_topAir
    {
        type            compressible::turbulentTemperatureCoupledBaffleMixed;
        refValue        nonuniform List<scalar> 
130
(
493.76062
486.85022
480.85681
476.0594
472.50511
470.12004
468.79527
468.44309
469.03834
470.6552
473.52927
478.23345
485.68224
437.29862
431.94473
428.79095
427.10796
426.36179
426.25205
426.66433
427.61077
429.20814
431.67963
435.44968
441.57805
451.80127
449.11049
440.72394
433.41428
427.14461
421.94558
417.97711
415.45388
414.52823
415.20593
417.41422
421.17368
427.53962
438.66537
503.79216
505.4097
506.12825
505.54792
503.54358
500.20718
495.80502
490.89046
486.56395
484.66224
487.17264
493.67232
504.2019
506.7442
510.84777
515.22538
519.55079
523.50167
526.77644
529.1437
530.52895
531.15103
531.67042
533.22432
537.39233
546.12211
504.54869
508.41609
512.39178
516.10195
519.22972
521.55424
522.98023
523.5651
523.57386
523.64764
524.89681
528.75239
536.75821
497.9492
497.90418
496.61156
493.84388
489.90295
485.3665
480.7764
476.50044
472.95159
471.35584
474.15697
483.13067
493.81696
445.78666
436.90545
429.4313
423.35849
418.72526
415.61587
414.07996
414.05789
415.36032
417.7868
421.36664
427.05984
438.27401
437.9512
432.41622
428.9917
427.00559
426.00836
425.77862
426.24444
427.39286
429.25672
431.9704
435.96697
442.32593
451.84609
493.71409
486.64935
480.48707
475.5054
471.76977
469.23655
467.82281
467.44431
468.05016
469.67243
472.51806
477.13002
484.24401
)
;
        refGradient     uniform 0;
        valueFraction   nonuniform List<scalar> 
130
(
0.00032132529
0.00032132529
0.00032132529
0.00032132529
0.00032132529
0.00032132529
0.00032132529
0.00032132529
0.00032132529
0.00032132529
0.00032132529
0.00032132529
0.00032132529
0.00032132529
0.00032132529
0.00032132529
0.00032132529
0.00032132529
0.00032132529
0.00032132529
0.00032132529
0.00032132529
0.00032132529
0.00032132529
0.00032132529
0.00032132529
0.00032132529
0.00032132529
0.00032132529
0.00032132529
0.00032132529
0.00032132529
0.00032132529
0.00032132529
0.00032132529
0.00032132529
0.00032132529
0.00032132529
0.00032132529
0.00032132529
0.00032132529
0.00032132529
0.00032132529
0.00032132529
0.00032132529
0.00032132529
0.00032132529
0.00032132529
0.00032132529
0.00032132529
0.00032132529
0.00032132529
0.00032132529
0.00032132529
0.00032132529
0.00032132529
0.00032132529
0.00032132529
0.00032132529
0.00032132529
0.00032132529
0.00032132529
0.00032132529
0.00032132529
0.00032132529
0.00032132529
0.00032132529
0.00032132529
0.00032132529
0.00032132529
0.00032132529
0.00032132529
0.00032132529
0.00032132529
0.00032132529
0.00032132529
0.00032132529
0.00032132529
0.00032132529
0.00032132529
0.00032132529
0.00032132529
0.00032132529
0.00032132529
0.00032132529
0.00032132529
0.00032132529
0.00032132529
0.00032132529
0.00032132529
0.00032132529
0.00032132529
0.00032132529
0.00032132529
0.00032132529
0.00032132529
0.00032132529
0.00032132529
0.00032132529
0.00032132529
0.00032132529
0.00032132529
0.00032132529
0.00032132529
0.00032132529
0.00032132529
0.00032132529
0.00032132529
0.00032132529
0.00032132529
0.00032132529
0.00032132529
0.00032132529
0.00032132529
0.00032132529
0.00032132529
0.00032132529
0.00032132529
0.00032132529
0.00032132529
0.00032132529
0.00032132529
0.00032132529
0.00032132529
0.00032132529
0.00032132529
0.00032132529
0.00032132529
0.00032132529
0.00032132529
)
;
        value           nonuniform List<scalar> 
130
(
753.22519
761.15907
769.45969
777.72055
785.61723
792.91771
799.47484
805.1864
809.98102
813.83264
816.73124
818.66941
819.64291
747.33883
756.62676
766.12588
775.35407
783.97227
791.78641
798.68916
804.63181
809.58408
813.54081
816.50524
818.48418
819.47836
735.58688
747.99123
760.04059
771.17801
781.15748
789.91357
797.44285
803.78463
808.99376
813.11455
816.18719
818.22901
819.24847
718.12328
736.37265
752.49952
766.33438
778.07094
787.96178
796.21212
803.00823
808.50357
812.79318
815.96023
818.05617
819.10436
697.55613
725.39468
746.34003
762.74998
775.93489
786.67435
795.43544
802.54627
808.23117
812.64085
815.88136
818.01973
819.08671
697.71067
725.54125
746.47202
762.86525
776.03397
786.75543
795.505
802.60946
808.29164
812.70445
815.95363
818.09499
819.16275
718.62166
736.81478
752.8861
766.67083
778.36041
788.20483
796.42303
803.20044
808.67998
812.9725
816.15532
818.26046
819.311
736.31304
748.64878
760.62124
771.68846
781.60831
790.30653
797.78543
804.08714
809.26197
813.36366
816.43014
818.46876
819.49046
748.12574
757.38194
766.81278
775.96802
784.52142
792.27116
799.10644
804.97542
809.86479
813.78355
816.7345
818.70459
819.69285
754.00004
761.92941
770.18193
778.37743
786.20781
793.43611
799.90686
805.52614
810.24765
814.05663
816.93534
818.86008
819.82597
)
;
        Tnbr            T;
        thicknessLayers List<scalar> 0();
        kappaLayers     List<scalar> 0();
        kappaMethod     solidThermo;
        kappa           none;
        alphaAni        none;
        alpha           none;
        field           T;
    }
    rightSolid_to_heater
    {
        type            compressible::turbulentTemperatureCoupledBaffleMixed;
        refValue        nonuniform List<scalar> 10(746.22667 739.00614 723.98527 699.29849 658.3479 658.50578 699.83752 724.7318 739.77773 746.95691);
        refGradient     uniform 0;
        valueFraction   nonuniform List<scalar> 10(0.50000003 0.50000003 0.50000003 0.50000003 0.50000003 0.50000003 0.50000003 0.50000003 0.50000003 0.50000003);
        value           nonuniform List<scalar> 10(749.76763 743.22231 729.83211 708.74533 677.98268 678.13927 709.26505 730.56911 744.00158 750.52031);
        Tnbr            T;
        thicknessLayers List<scalar> 0();
        kappaLayers     List<scalar> 0();
        kappaMethod     solidThermo;
        kappa           none;
        alphaAni        none;
        alpha           none;
        field           T;
    }
}


// ************************************************************************* //
