/*--------------------------------*- C++ -*----------------------------------*\
| =========                 |                                                 |
| \\      /  F ield         | OpenFOAM: The Open Source CFD Toolbox           |
|  \\    /   O peration     | Version:  v2012                                 |
|   \\  /    A nd           | Website:  www.openfoam.com                      |
|    \\/     M anipulation  |                                                 |
\*---------------------------------------------------------------------------*/
FoamFile
{
    version     2.0;
    format      ascii;
    class       volScalarField;
    location    "560/leftSolid";
    object      T;
}
// * * * * * * * * * * * * * * * * * * * * * * * * * * * * * * * * * * * * * //

dimensions      [0 0 0 1 0 0 0];


internalField   nonuniform List<scalar> 
130
(
916.45612
916.42037
916.34223
916.22008
916.05456
915.8544
915.63595
915.40154
915.15049
914.89523
914.67342
914.50748
914.4113
916.48393
916.44625
916.36262
916.22629
916.03254
915.80077
915.54891
915.27502
914.98121
914.69566
914.46262
914.29333
914.19151
916.53901
916.49828
916.40637
916.25274
916.02329
915.74633
915.44849
915.13012
914.79774
914.47549
914.21318
914.02472
913.92614
916.60567
916.56399
916.47056
916.3149
916.08729
915.78722
915.45421
915.09318
914.70881
914.31344
914.00931
913.80419
913.69304
916.67085
916.62951
916.53677
916.38157
916.1539
915.86293
915.52245
915.12996
914.69256
914.2202
913.85293
913.59755
913.44368
916.71774
916.67826
916.58906
916.43931
916.2236
915.95252
915.61989
915.21821
914.76291
914.25893
913.86188
913.58412
913.41742
916.7129
916.679
916.6006
916.46959
916.28479
916.03738
915.72188
915.33334
914.88812
914.40925
914.01219
913.725
913.55925
916.66779
916.63851
916.57092
916.45739
916.29109
916.06282
915.77068
915.41971
915.02948
914.62501
914.2663
913.98082
913.82461
916.63293
916.60893
916.54979
916.44958
916.30262
916.10288
915.84614
915.5352
915.188
914.83682
914.51348
914.23857
914.0793
916.61656
916.59441
916.54001
916.44797
916.31244
916.12948
915.89474
915.60988
915.294
914.97879
914.68409
914.42365
914.25341
)
;

boundaryField
{
    minX
    {
        type            zeroGradient;
    }
    minZ
    {
        type            zeroGradient;
    }
    maxZ
    {
        type            zeroGradient;
    }
    leftSolid_to_bottomWater
    {
        type            compressible::turbulentTemperatureCoupledBaffleMixed;
        refValue        nonuniform List<scalar> 
130
(
969.13364
968.76103
968.15051
967.75205
967.20854
966.17375
966.62363
967.63507
967.77534
965.53408
963.79559
962.26541
960.21285
968.77702
968.58082
968.35744
968.0547
965.70768
963.43398
962.97219
961.85694
958.63145
955.46089
955.06366
954.98402
951.49406
969.08182
968.98609
968.74825
968.52361
963.24187
958.35181
956.63751
955.02679
952.85223
949.64967
948.36236
945.87681
945.93611
969.35035
969.2469
969.2128
969.09771
968.19738
961.86456
959.1765
957.29863
955.17752
945.02698
943.65932
944.48878
944.42129
969.59126
969.49099
969.4938
969.27312
966.67496
963.5778
962.06428
959.57588
956.49914
940.51952
937.31677
935.71702
929.521
970.36689
970.23469
970.08683
969.1444
965.83161
964.84306
964.06746
960.61851
957.54122
939.51914
935.80969
934.48449
928.35118
968.95346
969.06323
968.89841
967.92137
968.00796
967.35681
966.28915
962.51033
956.50892
942.50434
936.6748
933.22508
928.04854
965.97628
965.85988
965.66851
965.18398
964.77407
963.3801
961.53545
959.13342
956.01537
949.06429
944.32791
936.45972
933.66343
964.81202
965.01994
964.73151
964.22388
963.75608
963.24261
962.30798
960.2556
956.33777
951.8654
947.75359
938.69682
934.39985
964.68754
964.7623
964.50597
964.23019
963.48047
962.68716
961.55721
959.28523
956.24792
953.57386
950.91409
943.30673
934.58241
)
;
        refGradient     uniform 0;
        valueFraction   nonuniform List<scalar> 
130
(
0.0075140686
0.0075140686
0.0075140686
0.0075140686
0.0075140686
0.0075140686
0.0075140686
0.0075140686
0.0075140686
0.0075140686
0.0075140686
0.0075140686
0.0075140686
0.0075140686
0.0075140686
0.0075140686
0.0075140686
0.0075140686
0.0075140686
0.0075140686
0.0075140686
0.0075140686
0.0075140686
0.0075140686
0.0075140686
0.0075140686
0.0075140686
0.0075140686
0.0075140686
0.0075140686
0.0075140686
0.0075140686
0.0075140686
0.0075140686
0.0075140686
0.0075140686
0.0075140686
0.0075140686
0.0075140686
0.0075140686
0.0075140686
0.0075140686
0.0075140686
0.0075140686
0.0075140686
0.0075140686
0.0075140686
0.0075140686
0.0075140686
0.0075140686
0.0075140686
0.0075140686
0.0075140686
0.0075140686
0.0075140686
0.0075140686
0.0075140686
0.0075140686
0.0075140686
0.0075140686
0.0075140686
0.0075140686
0.0075140686
0.0075140686
0.0075140686
0.0075140686
0.0075140686
0.0075140686
0.0075140686
0.0075140686
0.0075140686
0.0075140686
0.0075140686
0.0075140686
0.0075140686
0.0075140686
0.0075140686
0.0075140686
0.0075140686
0.0075140686
0.0075140686
0.0075140686
0.0075140686
0.0075140686
0.0075140686
0.0075140686
0.0075140686
0.0075140686
0.0075140686
0.0075140686
0.0075140686
0.0075140686
0.0075140686
0.0075140686
0.0075140686
0.0075140686
0.0075140686
0.0075140686
0.0075140686
0.0075140686
0.0075140686
0.0075140686
0.0075140686
0.0075140686
0.0075140686
0.0075140686
0.0075140686
0.0075140686
0.0075140686
0.0075140686
0.0075140686
0.0075140686
0.0075140686
0.0075140686
0.0075140686
0.0075140686
0.0075140686
0.0075140686
0.0075140686
0.0075140686
0.0075140686
0.0075140686
0.0075140686
0.0075140686
0.0075140686
0.0075140686
0.0075140686
0.0075140686
0.0075140686
0.0075140686
)
;
        value           nonuniform List<scalar> 
130
(
916.85021
916.81193
916.72979
916.60557
916.4372
916.23076
916.01732
915.79226
915.54412
915.27388
915.04062
914.86441
914.75353
916.87517
916.8363
916.75162
916.61404
916.4041
916.157
915.90359
915.62338
915.30751
915.00018
914.76587
914.59725
914.47
916.93218
916.89104
916.79802
916.64385
916.37644
916.06485
915.75638
915.4283
915.08205
914.73809
914.46806
914.26237
914.16499
917.00039
916.95824
916.86526
916.70989
916.47723
916.13184
915.78114
915.40871
915.01129
914.54259
914.23051
914.03319
913.92239
917.06692
917.02514
916.93311
916.77741
916.53195
916.21992
915.87063
915.46238
915.00512
914.41621
914.02765
913.76221
913.56298
917.11932
917.07914
916.9895
916.83378
916.59484
916.3184
915.98244
915.55786
915.08288
914.44724
914.02532
913.73975
913.52828
917.10392
917.0711
916.99205
916.8547
916.67196
916.42154
916.10041
915.68641
915.19949
914.61897
914.18113
913.87025
913.66692
917.0368
917.00687
916.93835
916.82206
916.65396
916.41694
916.11313
915.74671
915.336
914.88242
914.49091
914.14856
913.97259
916.99348
916.97122
916.91036
916.80712
916.65778
916.45572
916.19391
915.86989
915.49589
915.11382
914.76214
914.42137
914.23108
916.97629
916.95487
916.89895
916.80555
916.66545
916.47798
916.23657
915.93683
915.60052
915.26768
914.95533
914.63983
914.40537
)
;
        Tnbr            T;
        thicknessLayers List<scalar> 0();
        kappaLayers     List<scalar> 0();
        kappaMethod     solidThermo;
        kappa           none;
        alphaAni        none;
        alpha           none;
        field           T;
    }
    leftSolid_to_heater
    {
        type            compressible::turbulentTemperatureCoupledBaffleMixed;
        refValue        nonuniform List<scalar> 10(734.32382 724.77962 704.8382 672.63743 625.86031 626.04815 673.2825 705.54974 725.39149 734.78895);
        refGradient     uniform 0;
        valueFraction   nonuniform List<scalar> 10(2.08329e-05 2.08329e-05 2.08329e-05 2.08329e-05 2.08329e-05 2.08329e-05 2.08329e-05 2.08329e-05 2.08329e-05 2.08329e-05);
        value           nonuniform List<scalar> 10(914.4056 914.18575 913.9201 913.68646 913.43617 913.41007 913.55303 913.81917 914.07445 914.24887);
        Tnbr            T;
        thicknessLayers List<scalar> 1(0.001);
        kappaLayers     List<scalar> 1(0.0005);
        kappaMethod     solidThermo;
        kappa           none;
        alphaAni        none;
        alpha           none;
        field           T;
    }
    leftSolid_to_topAir
    {
        type            compressible::turbulentTemperatureCoupledBaffleMixed;
        refValue        nonuniform List<scalar> 
130
(
325.06146
348.23405
369.20384
388.57342
406.84386
424.31247
441.08127
456.9972
471.75802
485.32149
497.55962
508.23543
516.82625
325.05625
347.98003
368.46201
387.10478
404.37271
420.50364
435.55167
449.44856
461.97972
472.79074
481.38995
487.19425
489.43889
325.05516
348.02202
368.56454
387.28298
404.64815
420.91133
436.1848
450.48808
463.7435
475.75265
486.14392
494.28867
499.03229
325.05762
348.0422
368.62566
387.41549
404.90229
421.37087
436.98157
451.82404
465.92787
479.23553
491.52465
502.22386
510.09899
325.05932
348.0505
368.64613
387.45327
404.96375
421.46617
437.11986
452.0105
466.15285
479.44415
491.5419
501.63451
508.41264
325.06121
348.05444
368.65248
387.46266
404.97707
421.48347
437.13962
452.02649
466.15092
479.38696
491.32954
501.07467
507.42042
325.06175
348.05077
368.63927
387.43526
404.9301
421.40941
437.03041
451.87756
465.96481
479.21208
491.35064
501.71978
509.0222
325.0601
348.03235
368.58148
387.30868
404.68622
420.96494
436.24933
450.5621
463.82155
475.80621
486.10822
494.03393
498.33925
325.06181
347.99113
368.47934
387.12954
404.40619
420.54789
435.61272
449.52549
462.06578
472.88081
481.45565
487.15979
489.16564
325.06749
348.24659
369.22393
388.60256
406.88408
424.36628
441.15672
457.1087
471.90553
485.50504
497.7728
508.45801
517.0152
)
;
        refGradient     uniform 0;
        valueFraction   nonuniform List<scalar> 
130
(
0.00032132529
0.00032132529
0.00032132529
0.00032132529
0.00032132529
0.00032132529
0.00032132529
0.00032132529
0.00032132529
0.00032132529
0.00032132529
0.00032132529
0.00032132529
0.00032132529
0.00032132529
0.00032132529
0.00032132529
0.00032132529
0.00032132529
0.00032132529
0.00032132529
0.00032132529
0.00032132529
0.00032132529
0.00032132529
0.00032132529
0.00032132529
0.00032132529
0.00032132529
0.00032132529
0.00032132529
0.00032132529
0.00032132529
0.00032132529
0.00032132529
0.00032132529
0.00032132529
0.00032132529
0.00032132529
0.00032132529
0.00032132529
0.00032132529
0.00032132529
0.00032132529
0.00032132529
0.00032132529
0.00032132529
0.00032132529
0.00032132529
0.00032132529
0.00032132529
0.00032132529
0.00032132529
0.00032132529
0.00032132529
0.00032132529
0.00032132529
0.00032132529
0.00032132529
0.00032132529
0.00032132529
0.00032132529
0.00032132529
0.00032132529
0.00032132529
0.00032132529
0.00032132529
0.00032132529
0.00032132529
0.00032132529
0.00032132529
0.00032132529
0.00032132529
0.00032132529
0.00032132529
0.00032132529
0.00032132529
0.00032132529
0.00032132529
0.00032132529
0.00032132529
0.00032132529
0.00032132529
0.00032132529
0.00032132529
0.00032132529
0.00032132529
0.00032132529
0.00032132529
0.00032132529
0.00032132529
0.00032132529
0.00032132529
0.00032132529
0.00032132529
0.00032132529
0.00032132529
0.00032132529
0.00032132529
0.00032132529
0.00032132529
0.00032132529
0.00032132529
0.00032132529
0.00032132529
0.00032132529
0.00032132529
0.00032132529
0.00032132529
0.00032132529
0.00032132529
0.00032132529
0.00032132529
0.00032132529
0.00032132529
0.00032132529
0.00032132529
0.00032132529
0.00032132529
0.00032132529
0.00032132529
0.00032132529
0.00032132529
0.00032132529
0.00032132529
0.00032132529
0.00032132529
0.00032132529
0.00032132529
0.00032132529
)
;
        value           nonuniform List<scalar> 
130
(
916.26435
916.23606
916.16468
916.0488
915.88919
915.6947
915.4817
915.25246
915.00621
914.75533
914.53747
914.37499
914.2816
916.29219
916.26188
916.18486
916.05456
915.86641
915.63992
915.393
915.12367
914.83395
914.55186
914.32162
914.15424
914.05321
916.3473
916.31396
916.22868
916.0811
915.85731
915.58569
915.29287
914.9792
914.65115
914.33281
914.0739
913.88814
913.79114
916.41397
916.37969
916.2929
916.14332
915.92141
915.62674
915.29885
914.9427
914.56299
914.17199
913.87195
913.67036
913.5618
916.47916
916.44522
916.35913
916.21001
915.98806
915.70252
915.36717
914.97959
914.54684
914.07887
913.71563
913.46361
913.31201
916.52607
916.49399
916.41143
916.26776
916.05779
915.79213
915.46464
915.06788
914.61728
914.11769
913.72463
913.45015
913.2856
916.52126
916.49476
916.423
916.29808
916.11898
915.87698
915.56662
915.18298
914.74249
914.26801
913.87502
913.59133
913.42805
916.47619
916.4543
916.39333
916.28588
916.12525
915.9023
915.61516
915.26886
914.88304
914.48263
914.12744
913.84471
913.69001
916.44136
916.42473
916.3722
916.27804
916.13671
915.94226
915.69047
915.3841
915.04108
914.69357
914.37321
914.10035
913.94185
916.42499
916.4103
916.36266
916.27689
916.14733
915.97012
915.74091
915.46131
915.15031
914.83967
914.54912
914.29235
914.12497
)
;
        Tnbr            T;
        thicknessLayers List<scalar> 0();
        kappaLayers     List<scalar> 0();
        kappaMethod     solidThermo;
        kappa           none;
        alphaAni        none;
        alpha           none;
        field           T;
    }
}


// ************************************************************************* //
