/*--------------------------------*- C++ -*----------------------------------*\
| =========                 |                                                 |
| \\      /  F ield         | OpenFOAM: The Open Source CFD Toolbox           |
|  \\    /   O peration     | Version:  v2012                                 |
|   \\  /    A nd           | Website:  www.openfoam.com                      |
|    \\/     M anipulation  |                                                 |
\*---------------------------------------------------------------------------*/
FoamFile
{
    version     2.0;
    format      ascii;
    class       volScalarField;
    location    "630/bottomWater";
    object      p_rgh;
}
// * * * * * * * * * * * * * * * * * * * * * * * * * * * * * * * * * * * * * //

dimensions      [1 -1 -2 0 0 0 0];


internalField   nonuniform List<scalar> 
1460
(
0.27871613
0.28456073
0.30375942
0.30537308
0.29523374
0.30171182
0.29112858
0.2905004
0.29690706
0.30126774
0.3047974
0.30027998
0.29905984
0.30998902
0.30674915
0.30833212
0.30942601
0.30137604
0.30441466
0.30961215
0.31550412
0.32097468
0.32387421
0.32076293
0.31879597
0.32496793
0.3085263
0.33786317
0.31621367
0.30921719
-0.22700485
-0.22003498
-0.18838242
-0.24637312
-0.27722916
-0.26852131
-0.26179608
-0.24672838
-0.21545402
-0.22272816
-0.26590328
-0.26715087
-0.25136186
-0.22606323
-0.23741914
-0.27031385
-0.27861437
-0.26795398
-0.24369452
-0.21429198
-0.20423858
-0.2129081
-0.2350762
-0.29851987
-0.28832785
-0.28448689
-0.29030382
-0.20859902
-0.2258772
-0.2620546
0.092180303
0.052186075
0.02869303
0.040614961
0.068198976
0.11152004
0.089720462
0.062629165
0.073370703
0.061483679
0.10048538
0.09644535
0.12088818
0.084444939
0.08627756
0.090904266
0.096879333
0.072230401
0.046732205
0.061512975
0.062042726
0.073479203
0.060822705
0.077668888
0.12618643
0.11683902
0.08377849
0.055073179
0.054637611
0.12318479
-0.022442852
-0.048066112
-0.060620683
-0.072671495
-0.041046415
-0.043476697
-0.049207227
-0.076736562
-0.049056601
-0.041963634
-0.065994211
-0.038315026
-0.071025235
-0.039382384
-0.086579753
-0.067372577
-0.058555977
-0.068565613
-0.075746777
-0.055994827
-0.049136098
-0.060413853
-0.097572231
-0.071736418
-0.057749592
-0.033750321
-0.093102062
-0.08489382
-0.08609349
-0.038556018
-0.004105877
-0.03209684
-0.0083126763
0.0081189555
0.0098061426
0.025040602
0.020161667
0.022948145
-0.0035971999
0.0011970797
0.026038552
0.0031327065
0.0096270558
-0.018313581
-0.0073165552
0.0021694281
0.0096613421
0.019782251
0.014743757
-0.008601789
-0.008455699
-0.0068232482
0.0038314422
0.011250659
0.030021419
0.03309538
0.0279927
0.027297573
-0.0018192566
0.0020747171
0.28476057
0.27715435
0.29663082
0.31719829
0.29665442
0.30460966
0.30238748
0.29578782
0.29421734
0.30359781
0.30241068
0.30654292
0.30487246
0.30289274
0.30410829
0.32187363
0.3176883
0.31424374
0.30466013
0.31147104
0.31575897
0.31789038
0.3167533
0.32176742
0.30864992
0.31328418
0.30865089
0.31097349
0.30878797
0.31008013
-0.24441303
-0.26169042
-0.19816139
-0.19203881
-0.27379373
-0.27881632
-0.27056858
-0.27265361
-0.25667546
-0.21283853
-0.21211145
-0.23855918
-0.26634069
-0.27366383
-0.26057107
-0.23050695
-0.25815316
-0.27815238
-0.2716227
-0.23662401
-0.21425262
-0.20622157
-0.21130242
-0.23268159
-0.27731774
-0.29452747
-0.29306274
-0.26527896
-0.27597357
-0.28268613
0.091128219
0.069096881
0.037107735
0.036422903
0.056714864
0.093255558
0.1077276
0.079762223
0.077177299
0.042954175
0.06164921
0.058365606
0.14141954
0.076480836
0.10303687
0.037358513
0.11190489
0.070181963
0.072485135
0.036272312
0.062959928
0.070941826
0.078894624
0.043249812
0.071233405
0.10207828
0.11693218
0.1024241
0.10860871
0.13425423
-0.034439257
-0.056568828
-0.070046077
-0.067433123
-0.080830494
-0.036365391
-0.036725302
-0.057496657
-0.075336846
-0.082222396
-0.069459705
-0.046580712
-0.05735251
-0.039714389
-0.093916866
-0.074047868
-0.10714842
-0.04101999
-0.083235078
-0.08115701
-0.06405604
-0.051142923
-0.072375559
-0.10087759
-0.11006729
-0.053390483
-0.05692177
-0.10800111
-0.10103975
-0.054529078
-0.006427075
-0.017391056
-0.0050006308
0.016023999
0.025485404
0.029451361
0.035901912
0.018255228
0.005604053
0.0064192182
-0.0093373701
-0.011601995
-0.01097197
-0.020430593
-0.0020315734
0.024493541
0.049495873
0.027856755
0.014520326
0.0047770834
-0.0059935129
-0.012112667
-0.0073489814
0.012324511
0.022689979
0.021227971
0.01392887
0.049494241
0.015815743
-0.0011543502
0.28704557
0.2839666
0.28269395
0.30848439
0.28510643
0.29712802
0.28870569
0.28926459
0.29113933
0.2932415
0.29395509
0.2874339
0.30886572
0.29142892
0.31416696
0.31755872
0.31205855
0.31691071
0.31083961
0.30715972
0.30982686
0.32414519
0.31898029
0.31980879
0.31184093
0.31044271
0.29946093
0.30273887
0.29480059
0.30084172
-0.25542337
-0.25819955
-0.24121642
-0.20961757
-0.25875921
-0.27389815
-0.25039594
-0.25467327
-0.25814796
-0.26484869
-0.25595333
-0.24733583
-0.22490422
-0.23740177
-0.2019366
-0.2266576
-0.28942102
-0.28613349
-0.28224165
-0.28661647
-0.2634672
-0.21165756
-0.22160471
-0.23754779
-0.24471723
-0.28540655
-0.28314889
-0.26719734
-0.27547531
-0.28581156
0.10340698
0.078135744
0.065717595
0.021263871
0.081142677
0.087744784
0.10415587
0.09033
0.099696663
0.094909433
0.092758865
0.10766568
0.073560105
0.074684181
0.049818973
0.051806645
0.084299228
0.11240294
0.10481666
0.062243903
0.056530866
0.030594979
0.063037607
0.073932922
0.08308216
0.095524574
0.11059724
0.10036049
0.10103677
0.13163021
-0.031901604
-0.037953587
-0.054447966
-0.058413442
-0.066587337
-0.048367048
-0.089660397
-0.096320994
-0.071903684
-0.048001726
-0.055601683
-0.034764053
-0.056022874
-0.079749365
-0.078373936
-0.075925895
-0.086812735
-0.038090855
-0.05583188
-0.064049373
-0.093976046
-0.071056528
-0.064850148
-0.069319896
-0.12311627
-0.060974411
-0.066133249
-0.11437628
-0.099809102
-0.050629427
0.0030231593
-0.0031917569
-0.0095121875
0.00023010658
0.02710892
0.015847517
0.053766988
0.034525487
0.0021471719
-0.0061695682
-0.012868412
-0.0082918158
-0.014253379
-0.013363943
0.020033307
0.02643946
0.031700774
0.042245852
0.025284149
0.0091489643
0.0061345276
-0.00012076243
-0.007931855
-0.003249687
0.013399054
0.0048106603
-0.0060077547
0.029294522
0.0060547076
-0.0055917889
0.28808749
0.28623559
0.2782789
0.29840932
0.29341218
0.29290255
0.30099522
0.3025141
0.29844853
0.29756585
0.28503197
0.28515694
0.28661119
0.28788665
0.28645312
0.28975722
0.29852631
0.3023637
0.30076351
0.30576273
0.30180657
0.30640569
0.30553665
0.31051483
0.30242527
0.30714508
0.29850007
0.3279753
0.32651411
0.31974874
-0.25854311
-0.26306996
-0.25315556
-0.23834083
-0.2569274
-0.25235626
-0.22404131
-0.20908502
-0.21366323
-0.21648974
-0.24928379
-0.26579122
-0.27098287
-0.26955344
-0.25106976
-0.25745483
-0.28072019
-0.28073079
-0.2755236
-0.28087637
-0.27515728
-0.26076042
-0.26546993
-0.28227049
-0.26163808
-0.26103357
-0.27245305
-0.22495749
-0.23268929
-0.26727684
0.1196194
0.086908922
0.080152157
0.057906721
0.088468516
0.073604199
0.037864645
0.058168664
0.057298954
0.041505046
0.065310567
0.087524843
0.11960479
0.11301674
0.10825036
0.10746368
0.11877471
0.11912486
0.11136909
0.1080447
0.088522378
0.085630081
0.096009934
0.09142402
0.1095844
0.10177053
0.12065595
0.078236677
0.058463334
0.083158143
-0.039651721
-0.048138063
-0.055214247
-0.052338285
-0.055035251
-0.068542688
-0.088747498
-0.063524347
-0.056487158
-0.055487882
-0.05771732
-0.039031807
-0.040144357
-0.055608876
-0.10041582
-0.053320619
-0.0547226
-0.047588782
-0.065362429
-0.046605693
-0.050497624
-0.066818305
-0.10194866
-0.049217384
-0.092292939
-0.075305507
-0.072209614
-0.074079295
-0.07436032
-0.079204501
0.018832539
0.012489934
0.0074571141
-0.0090123514
0.010609108
-0.00085982436
0.011367782
-0.0085248318
-0.01820536
-0.0057311283
-0.00042615386
-0.012630844
0.00028209512
-0.011567533
0.037916609
0.011895135
0.01484219
0.018907597
0.021423991
0.016140438
0.0060484712
-0.0054974147
0.019695782
-0.0086279625
-0.019276371
-0.019177351
-0.023551163
-0.027914262
-0.029733205
-0.021375096
0.28861497
0.28311277
0.28452533
0.30024399
0.29290683
0.29356366
0.28937645
0.30003435
0.30194358
0.30950931
0.29967376
0.28805102
0.29725004
0.29894942
0.30521501
0.30467427
0.3055645
0.31449291
0.3134301
0.31096655
0.31824708
0.32827098
0.31804767
0.32219372
0.33082235
0.32766627
-0.25937228
-0.26325875
-0.24274983
-0.22302809
-0.24429508
-0.26026966
-0.24452378
-0.21932093
-0.16608795
-0.15579494
-0.22711577
-0.26191341
-0.26279664
-0.24917878
-0.24177549
-0.26606008
-0.26307484
-0.28925025
-0.2807525
-0.26171791
-0.23839324
-0.23947859
-0.28163806
-0.26379994
-0.24805537
-0.27874704
0.10892177
0.0681752
0.059788892
0.049736882
0.081355935
0.061474729
0.090744236
0.056841698
0.038126788
0.042492204
0.043947461
0.058995554
0.07356427
0.081615162
0.068739514
0.0891471
0.055410244
0.096414051
0.086599571
0.073111954
0.063994264
0.072130816
0.12085259
0.11172495
0.04636094
0.11482446
-0.041501525
-0.058928688
-0.073653029
-0.035090086
-0.058768332
-0.018634806
-0.075079963
-0.045651935
-0.082623357
-0.071329543
-0.060463364
-0.051216647
-0.035284803
-0.088953341
-0.074230971
-0.059660976
-0.10234153
-0.048166607
-0.053769354
-0.12079034
-0.071639249
-0.042570356
-0.041242371
-0.067721675
-0.084777626
-0.079263221
0.019048268
0.010366675
0.0040700058
-0.010515294
0.012466372
-0.0031188728
-0.0074581661
-0.011449939
0.0063236303
-0.0088955808
-0.027789451
-0.019647268
-0.0066138939
0.012095815
0.0031738057
-0.012227321
0.011411505
0.010200406
0.015891779
0.0067417594
-0.02030384
-0.01535661
-0.012943144
-0.00727164
9.2406298e-05
0.0028182901
0.29239641
0.2841405
0.30227399
0.28863754
0.30147428
0.29554221
0.29739815
0.29185927
0.29941937
0.30129593
0.27663567
0.28506373
0.28425769
0.32076451
0.31881295
0.32150393
0.32121114
0.31724485
0.31932
0.3223375
0.31884329
0.32267208
0.31661826
0.31259464
0.32637181
0.31958269
-0.25762437
-0.25648974
-0.20285448
-0.19829837
-0.20818389
-0.22310524
-0.24941756
-0.25582139
-0.21112282
-0.20221671
-0.24812315
-0.25164015
-0.25576685
-0.19537485
-0.1942153
-0.19533083
-0.23220998
-0.27852813
-0.28815418
-0.25448513
-0.22244495
-0.22345745
-0.27366707
-0.25269175
-0.26315483
-0.29621125
0.089720336
0.045780632
0.037117853
0.066341283
0.06435782
0.081084709
0.079416404
0.065344096
0.038115552
0.03494983
0.05700884
0.08122499
0.095729687
0.07583672
0.074719175
0.057031782
0.030653222
0.081507255
0.070055242
0.068957957
0.051935493
0.081815042
0.1154209
0.10582416
0.078297036
0.12426611
-0.037904939
-0.09080511
-0.074594551
-0.066792047
-0.042134183
-0.058376545
-0.055519705
-0.082696052
-0.06912772
-0.076091585
-0.083794334
-0.055884461
-0.047910456
-0.034099595
-0.040378572
-0.059926863
-0.072997055
-0.070673932
-0.049204774
-0.12152682
-0.088420389
-0.064844882
-0.087445882
-0.10417324
-0.11583588
-0.068215047
0.023679218
0.017689793
0.0084776433
-0.017054987
-0.010360002
-0.012232773
-0.0023723667
0.008882963
0.028209122
0.02082322
0.0034120889
-0.0039397794
0.0075719874
-0.01361291
-0.016355436
-0.0087952221
0.0082506884
0.010138734
0.022364158
0.020146814
-0.0044489963
-0.01738174
-0.012997147
0.011579375
0.023435307
0.021216797
0.29713811
0.29202338
0.31132235
0.2880333
0.30077526
0.29078315
0.29002219
0.29251428
0.29368174
0.29459438
0.29013615
0.2900178
0.29793428
0.31336081
0.28538967
0.30395091
0.29241638
0.30650377
0.30768161
0.31886869
0.31206283
0.3117738
0.3156104
0.30319623
0.31914023
0.32711583
0.31918317
0.33981067
0.33566304
0.33339617
-0.25655262
-0.24781837
-0.18429019
-0.20116389
-0.20288598
-0.23551017
-0.26604631
-0.27327543
-0.26561709
-0.25670989
-0.27147302
-0.2759776
-0.23424384
-0.20485794
-0.24676824
-0.2566681
-0.24203183
-0.21894047
-0.21175962
-0.22128596
-0.26480564
-0.28613733
-0.28283233
-0.26567793
-0.22081714
-0.22446487
-0.24657868
-0.23567485
-0.29288388
-0.3024311
0.081772208
0.046647346
0.038200821
0.071069752
0.067370766
0.042600244
0.086950103
0.10440504
0.094604643
0.10086689
0.089908701
0.060558429
0.066666799
0.039154663
0.077968148
0.10254183
0.083501921
0.066528181
0.058202401
0.042529522
0.045036454
0.078812687
0.086466282
0.072400313
0.036895635
0.072875628
0.07968821
0.045415582
0.07191549
0.11101993
-0.041351301
-0.099893102
-0.081177662
-0.063396377
-0.046920102
-0.08553221
-0.065182162
-0.056796765
-0.073360177
-0.070087082
-0.047094819
-0.051651423
-0.072213657
-0.071317236
-0.078198592
-0.049359317
-0.052651895
-0.055281272
-0.06295652
-0.07488152
-0.10242963
-0.052757141
-0.041422091
-0.10526634
-0.081788426
-0.055758701
-0.087274847
-0.10347617
-0.12739628
-0.045342963
0.022620061
0.018277044
0.011558472
-0.008064909
-0.0051787969
0.003687001
0.0083040284
0.015317557
0.034600964
0.029683869
0.008682599
-0.001731236
0.013270865
0.014674901
0.005089882
-0.0090621801
-0.0047907174
-0.0083145622
-0.01926975
-0.00083080554
0.012118838
0.017542752
0.022128362
0.023352089
0.0077175865
-0.0087622298
-0.010714853
0.021131468
0.038039846
0.042681974
0.29370448
0.29703317
0.29682565
0.28569302
0.2909331
0.28248648
0.29196414
0.28999959
0.29179758
0.28725593
0.28098489
0.30578979
0.29038336
0.29681121
0.29395735
0.30068984
0.29760658
0.298539
0.30241244
0.3056705
0.30932023
0.31496253
0.31229119
0.30706669
0.31410148
0.31492534
0.30487022
0.33701056
0.33135657
0.33201901
-0.24979808
-0.20546897
-0.19310002
-0.22453567
-0.23263405
-0.26279105
-0.26995644
-0.26701481
-0.26935125
-0.26818078
-0.25079797
-0.22570121
-0.26381524
-0.2771078
-0.2731016
-0.27954454
-0.27671045
-0.26296386
-0.25734314
-0.27267881
-0.28625068
-0.28710699
-0.28844875
-0.26736256
-0.24430031
-0.27278068
-0.26629529
-0.24797305
-0.28818688
-0.29960585
0.084954372
0.033372576
0.059583257
0.078525503
0.0562848
0.08679132
0.10375461
0.12421138
0.11471514
0.073490649
0.067805107
0.035593125
0.086272203
0.076345476
0.10985966
0.11505714
0.104228
0.0995631
0.089674249
0.087193005
0.087705647
0.14604088
0.099070754
0.095711242
0.04760702
0.11770603
0.10189332
0.052671313
0.073573929
0.11844901
-0.055135962
-0.08927244
-0.051200174
-0.055277742
-0.086708255
-0.070656433
-0.053427027
-0.041018626
-0.034154175
-0.05077305
-0.084579065
-0.058599889
-0.068434766
-0.040262164
-0.040652527
-0.029986691
-0.068446393
-0.086523615
-0.068159324
-0.071272996
-0.059114793
-0.038645053
-0.039072477
-0.092825261
-0.090860964
-0.043428362
-0.075159674
-0.08386586
-0.12112926
-0.029289255
0.003120151
0.0017029767
-0.0077480254
-0.011766546
0.013236007
0.014544891
0.023658914
0.032495742
0.032654198
0.021443957
0.022547028
0.024395439
0.024238682
0.0022176158
-0.0018342636
0.0084320591
0.013712208
0.031902413
0.025059198
0.019457139
0.023099516
0.043064846
0.031421962
0.036671757
0.025006564
0.0015071328
0.0050470352
0.024897125
0.046940371
0.055989888
0.29093232
0.29390407
0.29574299
0.2781732
0.28132777
0.28133319
0.2853075
0.28411867
0.28708656
0.2818665
0.28447018
0.30097832
0.30681187
0.30185898
0.29767597
0.30618408
0.30705916
0.30261078
0.30059352
0.31533753
0.30400966
0.31090845
0.31314128
0.30738642
0.30417499
0.31044514
0.29681271
0.33781316
0.33234965
0.33482395
-0.2518306
-0.21329907
-0.21305992
-0.24846754
-0.2581136
-0.26199847
-0.26017785
-0.26089879
-0.26532652
-0.26052504
-0.24868851
-0.20279457
-0.21129434
-0.2587697
-0.27266147
-0.28157587
-0.2797557
-0.27777774
-0.26096328
-0.2343353
-0.26868603
-0.28819272
-0.29249618
-0.28602638
-0.27289043
-0.26526999
-0.27290516
-0.24705057
-0.28404256
-0.29974563
0.08627068
0.032702258
0.061370164
0.09692637
0.079018575
0.10474607
0.10260549
0.10702363
0.10367371
0.071537426
0.053410417
0.048965461
0.050859491
0.078633607
0.069904836
0.1029167
0.12103275
0.064768809
0.072555592
0.060056104
0.068912041
0.089526318
0.12171185
0.11211137
0.078178811
0.10516942
0.10029344
0.056175358
0.068423686
0.094738985
-0.064678802
-0.091902222
-0.045180707
-0.057562228
-0.06977926
-0.060788687
-0.068342133
-0.06969407
-0.052993303
-0.074586347
-0.077391964
-0.065901932
-0.061372026
-0.063863344
-0.067330715
-0.056041978
-0.039410125
-0.062283183
-0.073891326
-0.056523093
-0.096484653
-0.058740939
-0.046528574
-0.063398708
-0.10992229
-0.049820186
-0.091136389
-0.10553278
-0.13158977
-0.049346297
-0.0045361839
-0.012740694
-0.018220683
-0.01310952
-0.010213107
0.004641541
0.029083372
0.018562649
0.012797246
0.006078055
-0.002473784
-0.01225005
-0.01385939
-0.011064028
0.0039329932
0.0097427648
0.029388814
0.01283311
0.0070861312
0.0035408631
0.018200559
0.024118731
0.031198941
0.02000171
0.017200117
0.004355555
-0.0095665932
-0.0013336439
0.022888187
0.029427313
0.27868312
0.2748871
0.27608829
0.27627827
0.27819359
0.27641015
0.29907461
0.28543037
0.28928842
0.2814933
0.29594678
0.28058531
0.30204713
0.3033915
0.30781458
0.32127775
0.30982574
0.31008871
0.31543817
0.31614774
0.31583449
0.31283956
0.31233603
0.30516147
0.31702548
0.32266611
0.32705149
0.33758557
0.33311765
0.33344518
-0.24925951
-0.23322761
-0.2335169
-0.2460603
-0.24181182
-0.23039168
-0.18994745
-0.21704742
-0.25252148
-0.2340541
-0.21275197
-0.23561786
-0.19707678
-0.200853
-0.22288723
-0.23475791
-0.28248347
-0.21987479
-0.21001919
-0.19565219
-0.23004645
-0.27244929
-0.27834942
-0.26248897
-0.2243077
-0.21456567
-0.21168355
-0.21593407
-0.26019745
-0.2870554
0.11660876
0.084412774
0.10095127
0.1127493
0.10527645
0.066586409
0.051504453
0.068854603
0.079891995
0.083240665
0.067466695
0.10556216
0.062208661
0.066892299
0.054574747
0.068766652
0.064761701
0.050971715
0.062758297
0.067469751
0.043732747
0.082495308
0.072818817
0.091436781
0.035926913
0.072823083
0.057520801
0.073937421
0.046681526
0.084607338
-0.062275357
-0.10112855
-0.084270431
-0.045541073
-0.062507691
-0.084362544
-0.070111123
-0.079035863
-0.036257698
-0.076969814
-0.04355845
-0.029723723
-0.023226529
-0.043273089
-0.06490386
-0.096069073
-0.042351486
-0.077510713
-0.03707132
-0.038347102
-0.059813277
-0.061789821
-0.045597834
-0.078203249
-0.076356212
-0.040076927
-0.034150332
-0.06141059
-0.10512982
-0.064464549
0.012356841
0.02635139
-0.0015099558
-0.004555241
-0.0079883866
0.017437875
0.028685161
0.0085484488
-0.0021526066
0.0092470549
-0.022335024
-0.012128281
-0.0089774757
-0.011379914
-0.010701668
0.015975612
0.0048289503
-0.001586224
-0.010033893
-0.0067272047
0.0048044688
0.028662005
0.010589569
0.011727194
-0.0039456324
-0.010835156
-0.0098338762
-0.020222688
-0.0013333078
0.0053067509
)
;

boundaryField
{
    minX
    {
        type            fixedFluxPressure;
        gradient        uniform 0;
        value           nonuniform List<scalar> 
50
(
0.27871613
-0.22700485
0.092180303
-0.022442852
-0.004105877
0.28476057
-0.24441303
0.091128219
-0.034439257
-0.006427075
0.28704557
-0.25542337
0.10340698
-0.031901604
0.0030231593
0.28808749
-0.25854311
0.1196194
-0.039651721
0.018832539
0.28861497
-0.25937228
0.10892177
-0.041501525
0.019048268
0.29239641
-0.25762437
0.089720336
-0.037904939
0.023679218
0.29713811
-0.25655262
0.081772208
-0.041351301
0.022620061
0.29370448
-0.24979808
0.084954372
-0.055135962
0.003120151
0.29093232
-0.2518306
0.08627068
-0.064678802
-0.0045361839
0.27868312
-0.24925951
0.11660876
-0.062275357
0.012356841
)
;
    }
    maxX
    {
        type            fixedFluxPressure;
        gradient        uniform 0;
        value           nonuniform List<scalar> 
50
(
0.30921719
-0.2620546
0.12318479
-0.038556018
0.0020747171
0.31008013
-0.28268613
0.13425423
-0.054529078
-0.0011543502
0.30084172
-0.28581156
0.13163021
-0.050629427
-0.0055917889
0.31974874
-0.26727684
0.083158143
-0.079204501
-0.021375096
0.32766627
-0.27874704
0.11482446
-0.079263221
0.0028182901
0.31958269
-0.29621125
0.12426611
-0.068215047
0.021216797
0.33339617
-0.3024311
0.11101993
-0.045342963
0.042681974
0.33201901
-0.29960585
0.11844901
-0.029289255
0.055989888
0.33482395
-0.29974563
0.094738985
-0.049346297
0.029427313
0.33344518
-0.2870554
0.084607338
-0.064464549
0.0053067509
)
;
    }
    minY
    {
        type            fixedValue;
        value           uniform 0;
    }
    minZ
    {
        type            fixedFluxPressure;
        gradient        uniform 0;
        value           nonuniform List<scalar> 
150
(
0.27871613
-0.22700485
0.092180303
-0.022442852
-0.004105877
0.28456073
-0.22003498
0.052186075
-0.048066112
-0.03209684
0.30375942
-0.18838242
0.02869303
-0.060620683
-0.0083126763
0.30537308
-0.24637312
0.040614961
-0.072671495
0.0081189555
0.29523374
-0.27722916
0.068198976
-0.041046415
0.0098061426
0.30171182
-0.26852131
0.11152004
-0.043476697
0.025040602
0.29112858
-0.26179608
0.089720462
-0.049207227
0.020161667
0.2905004
-0.24672838
0.062629165
-0.076736562
0.022948145
0.29690706
-0.21545402
0.073370703
-0.049056601
-0.0035971999
0.30126774
-0.22272816
0.061483679
-0.041963634
0.0011970797
0.3047974
-0.26590328
0.10048538
-0.065994211
0.026038552
0.30027998
-0.26715087
0.09644535
-0.038315026
0.0031327065
0.29905984
-0.25136186
0.12088818
-0.071025235
0.0096270558
0.30998902
-0.22606323
0.084444939
-0.039382384
-0.018313581
0.30674915
-0.23741914
0.08627756
-0.086579753
-0.0073165552
0.30833212
-0.27031385
0.090904266
-0.067372577
0.0021694281
0.30942601
-0.27861437
0.096879333
-0.058555977
0.0096613421
0.30137604
-0.26795398
0.072230401
-0.068565613
0.019782251
0.30441466
-0.24369452
0.046732205
-0.075746777
0.014743757
0.30961215
-0.21429198
0.061512975
-0.055994827
-0.008601789
0.31550412
-0.20423858
0.062042726
-0.049136098
-0.008455699
0.32097468
-0.2129081
0.073479203
-0.060413853
-0.0068232482
0.32387421
-0.2350762
0.060822705
-0.097572231
0.0038314422
0.32076293
-0.29851987
0.077668888
-0.071736418
0.011250659
0.31879597
-0.28832785
0.12618643
-0.057749592
0.030021419
0.32496793
-0.28448689
0.11683902
-0.033750321
0.03309538
0.3085263
-0.29030382
0.08377849
-0.093102062
0.0279927
0.33786317
-0.20859902
0.055073179
-0.08489382
0.027297573
0.31621367
-0.2258772
0.054637611
-0.08609349
-0.0018192566
0.30921719
-0.2620546
0.12318479
-0.038556018
0.0020747171
)
;
    }
    maxZ
    {
        type            fixedFluxPressure;
        gradient        uniform 0;
        value           nonuniform List<scalar> 
150
(
0.27868312
-0.24925951
0.11660876
-0.062275357
0.012356841
0.2748871
-0.23322761
0.084412774
-0.10112855
0.02635139
0.27608829
-0.2335169
0.10095127
-0.084270431
-0.0015099558
0.27627827
-0.2460603
0.1127493
-0.045541073
-0.004555241
0.27819359
-0.24181182
0.10527645
-0.062507691
-0.0079883866
0.27641015
-0.23039168
0.066586409
-0.084362544
0.017437875
0.29907461
-0.18994745
0.051504453
-0.070111123
0.028685161
0.28543037
-0.21704742
0.068854603
-0.079035863
0.0085484488
0.28928842
-0.25252148
0.079891995
-0.036257698
-0.0021526066
0.2814933
-0.2340541
0.083240665
-0.076969814
0.0092470549
0.29594678
-0.21275197
0.067466695
-0.04355845
-0.022335024
0.28058531
-0.23561786
0.10556216
-0.029723723
-0.012128281
0.30204713
-0.19707678
0.062208661
-0.023226529
-0.0089774757
0.3033915
-0.200853
0.066892299
-0.043273089
-0.011379914
0.30781458
-0.22288723
0.054574747
-0.06490386
-0.010701668
0.32127775
-0.23475791
0.068766652
-0.096069073
0.015975612
0.30982574
-0.28248347
0.064761701
-0.042351486
0.0048289503
0.31008871
-0.21987479
0.050971715
-0.077510713
-0.001586224
0.31543817
-0.21001919
0.062758297
-0.03707132
-0.010033893
0.31614774
-0.19565219
0.067469751
-0.038347102
-0.0067272047
0.31583449
-0.23004645
0.043732747
-0.059813277
0.0048044688
0.31283956
-0.27244929
0.082495308
-0.061789821
0.028662005
0.31233603
-0.27834942
0.072818817
-0.045597834
0.010589569
0.30516147
-0.26248897
0.091436781
-0.078203249
0.011727194
0.31702548
-0.2243077
0.035926913
-0.076356212
-0.0039456324
0.32266611
-0.21456567
0.072823083
-0.040076927
-0.010835156
0.32705149
-0.21168355
0.057520801
-0.034150332
-0.0098338762
0.33758557
-0.21593407
0.073937421
-0.06141059
-0.020222688
0.33311765
-0.26019745
0.046681526
-0.10512982
-0.0013333078
0.33344518
-0.2870554
0.084607338
-0.064464549
0.0053067509
)
;
    }
    bottomWater_to_rightSolid
    {
        type            fixedFluxPressure;
        gradient        uniform 0;
        value           nonuniform List<scalar> 
130
(
0.019782251
0.014743757
-0.008601789
-0.008455699
-0.0068232482
0.0038314422
0.011250659
0.030021419
0.03309538
0.0279927
0.027297573
-0.0018192566
0.0020747171
0.027856755
0.014520326
0.0047770834
-0.0059935129
-0.012112667
-0.0073489814
0.012324511
0.022689979
0.021227971
0.01392887
0.049494241
0.015815743
-0.0011543502
0.042245852
0.025284149
0.0091489643
0.0061345276
-0.00012076243
-0.007931855
-0.003249687
0.013399054
0.0048106603
-0.0060077547
0.029294522
0.0060547076
-0.0055917889
0.018907597
0.021423991
0.016140438
0.0060484712
-0.0054974147
0.019695782
-0.0086279625
-0.019276371
-0.019177351
-0.023551163
-0.027914262
-0.029733205
-0.021375096
0.012095815
0.0031738057
-0.012227321
0.011411505
0.010200406
0.015891779
0.0067417594
-0.02030384
-0.01535661
-0.012943144
-0.00727164
9.2406298e-05
0.0028182901
-0.01361291
-0.016355436
-0.0087952221
0.0082506884
0.010138734
0.022364158
0.020146814
-0.0044489963
-0.01738174
-0.012997147
0.011579375
0.023435307
0.021216797
-0.0083145622
-0.01926975
-0.00083080554
0.012118838
0.017542752
0.022128362
0.023352089
0.0077175865
-0.0087622298
-0.010714853
0.021131468
0.038039846
0.042681974
0.031902413
0.025059198
0.019457139
0.023099516
0.043064846
0.031421962
0.036671757
0.025006564
0.0015071328
0.0050470352
0.024897125
0.046940371
0.055989888
0.01283311
0.0070861312
0.0035408631
0.018200559
0.024118731
0.031198941
0.02000171
0.017200117
0.004355555
-0.0095665932
-0.0013336439
0.022888187
0.029427313
-0.001586224
-0.010033893
-0.0067272047
0.0048044688
0.028662005
0.010589569
0.011727194
-0.0039456324
-0.010835156
-0.0098338762
-0.020222688
-0.0013333078
0.0053067509
)
;
    }
    bottomWater_to_leftSolid
    {
        type            fixedFluxPressure;
        gradient        uniform 0;
        value           nonuniform List<scalar> 
130
(
-0.004105877
-0.03209684
-0.0083126763
0.0081189555
0.0098061426
0.025040602
0.020161667
0.022948145
-0.0035971999
0.0011970797
0.026038552
0.0031327065
0.0096270558
-0.006427075
-0.017391056
-0.0050006308
0.016023999
0.025485404
0.029451361
0.035901912
0.018255228
0.005604053
0.0064192182
-0.0093373701
-0.011601995
-0.01097197
0.0030231593
-0.0031917569
-0.0095121875
0.00023010658
0.02710892
0.015847517
0.053766988
0.034525487
0.0021471719
-0.0061695682
-0.012868412
-0.0082918158
-0.014253379
0.018832539
0.012489934
0.0074571141
-0.0090123514
0.010609108
-0.00085982436
0.011367782
-0.0085248318
-0.01820536
-0.0057311283
-0.00042615386
-0.012630844
0.00028209512
0.019048268
0.010366675
0.0040700058
-0.010515294
0.012466372
-0.0031188728
-0.0074581661
-0.011449939
0.0063236303
-0.0088955808
-0.027789451
-0.019647268
-0.0066138939
0.023679218
0.017689793
0.0084776433
-0.017054987
-0.010360002
-0.012232773
-0.0023723667
0.008882963
0.028209122
0.02082322
0.0034120889
-0.0039397794
0.0075719874
0.022620061
0.018277044
0.011558472
-0.008064909
-0.0051787969
0.003687001
0.0083040284
0.015317557
0.034600964
0.029683869
0.008682599
-0.001731236
0.013270865
0.003120151
0.0017029767
-0.0077480254
-0.011766546
0.013236007
0.014544891
0.023658914
0.032495742
0.032654198
0.021443957
0.022547028
0.024395439
0.024238682
-0.0045361839
-0.012740694
-0.018220683
-0.01310952
-0.010213107
0.004641541
0.029083372
0.018562649
0.012797246
0.006078055
-0.002473784
-0.01225005
-0.01385939
0.012356841
0.02635139
-0.0015099558
-0.004555241
-0.0079883866
0.017437875
0.028685161
0.0085484488
-0.0021526066
0.0092470549
-0.022335024
-0.012128281
-0.0089774757
)
;
    }
    bottomWater_to_heater
    {
        type            fixedFluxPressure;
        gradient        uniform 0;
        value           nonuniform List<scalar> 
92
(
-0.018313581
-0.0073165552
0.0021694281
0.0096613421
-0.020430593
-0.0020315734
0.024493541
0.049495873
-0.013363943
0.020033307
0.02643946
0.031700774
0.28788665
0.28645312
0.28975722
0.29852631
-0.26955344
-0.25106976
-0.25745483
-0.28072019
0.11301674
0.10825036
0.10746368
0.11877471
-0.055608876
-0.10041582
-0.053320619
-0.0547226
-0.011567533
-0.011567533
0.037916609
0.037916609
0.011895135
0.011895135
0.01484219
0.01484219
0.29725004
0.29894942
-0.26279664
-0.24917878
0.07356427
0.081615162
-0.035284803
-0.088953341
-0.0066138939
0.012095815
0.28425769
0.31336081
0.28538967
0.30395091
0.32076451
0.29241638
-0.25576685
-0.20485794
-0.24676824
-0.2566681
-0.19537485
-0.24203183
0.095729687
0.039154663
0.077968148
0.10254183
0.07583672
0.083501921
-0.047910456
-0.071317236
-0.078198592
-0.049359317
-0.034099595
-0.052651895
0.0075719874
0.014674901
0.005089882
-0.0090621801
-0.01361291
-0.0047907174
0.014674901
0.005089882
-0.0090621801
-0.0047907174
0.0022176158
-0.0018342636
0.0084320591
0.013712208
-0.011064028
0.0039329932
0.0097427648
0.029388814
-0.011379914
-0.010701668
0.015975612
0.0048289503
)
;
    }
}


// ************************************************************************* //
