/*--------------------------------*- C++ -*----------------------------------*\
| =========                 |                                                 |
| \\      /  F ield         | OpenFOAM: The Open Source CFD Toolbox           |
|  \\    /   O peration     | Version:  v2012                                 |
|   \\  /    A nd           | Website:  www.openfoam.com                      |
|    \\/     M anipulation  |                                                 |
\*---------------------------------------------------------------------------*/
FoamFile
{
    version     2.0;
    format      ascii;
    class       volScalarField;
    location    "630/bottomWater";
    object      T;
}
// * * * * * * * * * * * * * * * * * * * * * * * * * * * * * * * * * * * * * //

dimensions      [0 0 0 1 0 0 0];


internalField   nonuniform List<scalar> 
1460
(
971.4433
963.7596
961.68924
966.58717
968.84336
956.80017
951.53153
948.16644
945.88439
943.47336
944.60545
938.89798
934.5971
927.48217
930.22776
932.09825
933.89906
932.7031
930.9216
929.93197
930.06236
930.2192
930.23877
930.77587
932.3197
930.8265
931.06004
929.32961
929.91829
931.22974
970.64929
957.48522
958.65324
959.4937
961.60649
955.71042
947.17931
945.14653
945.72995
942.19816
941.12361
936.3762
931.32654
926.33535
927.23333
928.16853
930.58638
930.6427
929.55961
928.35037
929.06682
931.00347
931.57283
931.34471
931.42425
930.99111
931.10768
930.94377
929.99627
930.72076
957.55935
956.67409
958.50363
959.26011
960.26025
952.40476
947.06076
945.13072
946.13988
942.14704
938.18456
936.05664
930.96017
926.08482
926.52992
927.66488
929.95129
930.26643
930.20713
928.23377
928.53398
931.24438
932.7703
931.6515
931.77671
931.0415
931.18127
930.96255
929.99928
929.59242
955.45107
954.30934
957.54259
957.36737
958.23581
952.06235
946.62282
945.72427
947.00502
944.29576
938.54899
935.22014
930.52347
923.86104
925.78111
927.62973
929.90704
930.04135
930.05264
927.55322
928.08683
930.59974
932.23638
932.23328
932.16527
931.27829
931.30612
931.56171
930.85435
929.47373
954.53193
952.53372
951.59711
951.54112
951.01417
950.66332
948.47556
947.58448
947.43148
944.20245
940.43672
936.55175
936.78621
924.2181
924.47395
925.79076
927.40328
928.06091
927.33966
926.50901
927.71712
931.59164
931.88168
931.89497
932.02082
930.86886
930.64299
930.5591
930.10756
929.52321
975.67977
968.48346
965.49201
962.01889
965.84741
964.29619
955.72126
950.31168
945.99586
943.21418
940.74871
937.90792
938.63061
933.49136
931.20048
927.92619
931.7206
932.02823
930.91604
929.38131
928.18142
926.5938
929.17711
929.32199
930.32903
930.45603
931.88584
931.15334
931.54658
928.917
969.8955
964.08783
964.62907
960.68168
961.69809
961.20657
952.66616
947.22989
944.65177
942.09292
938.51475
934.71045
936.01928
933.75294
930.88587
929.4149
928.77183
930.15335
929.50025
928.70594
927.45552
926.76735
929.69227
929.90914
929.4701
929.13099
930.76857
931.17588
930.80594
930.20246
968.19707
965.44013
964.84855
959.99977
959.76358
959.25271
952.16994
947.15586
945.66178
943.41244
938.50848
933.92168
928.21646
933.65338
932.59835
929.99596
929.42704
930.28931
929.99598
929.4127
926.73553
926.55809
929.72139
929.8098
929.1399
928.84567
930.6481
930.5303
930.46512
930.194
958.84388
959.17196
959.85551
957.51133
957.41292
958.14835
952.49704
947.85723
946.62288
946.10877
942.85398
936.10015
925.46863
930.9809
931.05134
929.57126
929.57216
930.29549
929.98547
928.92442
926.58775
926.60317
929.69214
931.17477
930.10671
928.86281
930.5137
930.42424
929.93339
929.57256
958.77286
956.22079
955.15848
954.93226
955.30059
956.03011
952.60679
949.53276
948.21434
947.21163
945.66773
939.06418
924.59229
924.1006
925.8319
926.83101
928.10072
928.65119
927.62477
926.58506
925.36347
926.70852
930.537
930.52731
930.07601
928.81361
929.65292
929.6937
929.19138
928.2015
975.73336
970.38018
966.87679
963.10173
969.42399
967.8508
961.24432
957.07082
953.76337
948.21043
943.57156
940.32008
936.65097
935.57058
931.25329
929.31891
930.45722
926.86131
928.44636
927.59645
925.60226
923.61182
924.45205
925.85808
926.91273
926.9496
929.76348
930.8413
932.01831
926.1967
970.54579
966.15548
964.49931
962.4947
963.3675
962.11055
954.80596
951.52289
951.1348
944.19022
940.43526
938.6877
936.68341
933.71161
931.5724
927.8531
928.95096
927.26988
927.16464
926.62929
925.14171
923.84488
924.22538
927.02035
926.51481
926.30449
928.88099
929.97605
930.69497
928.84074
970.48947
967.92316
966.77887
962.75021
961.17376
960.7192
952.39226
948.55988
949.11202
943.54669
940.90977
944.34508
936.56506
933.2414
931.53593
925.83471
928.66051
926.97579
927.01949
925.60082
923.95984
923.4895
924.01621
927.10663
926.48747
926.61107
928.75695
929.29008
929.66944
928.98168
969.67277
965.94417
963.66808
961.00382
958.57811
960.55603
956.42896
947.32335
946.83882
944.78125
946.14297
943.18585
929.59305
927.93186
927.56765
925.82385
926.98345
927.04351
927.07642
924.85126
923.99135
922.98933
922.52017
927.19953
926.16005
926.75712
928.80972
929.03095
929.13058
928.6214
964.27863
960.10888
956.23317
955.39998
956.61418
957.94957
955.59339
949.35514
948.51636
948.20593
947.6284
941.59752
923.94736
923.4666
924.96551
924.80971
925.55162
926.00552
926.01707
924.93566
923.88248
922.43464
922.43988
927.99962
926.95836
927.11904
928.1542
928.58481
928.28665
927.34645
974.08897
970.41024
967.37452
963.8693
962.88042
957.52796
954.11892
952.47706
954.34449
953.29739
955.3332
957.49062
957.31779
937.48728
931.08923
929.53782
925.28512
911.68628
917.88911
920.70601
922.74002
922.73842
925.28038
925.35014
925.37763
925.02194
926.67504
925.792
926.90075
922.52491
969.7563
966.47762
964.33386
961.67655
960.87698
954.86288
953.01464
950.57688
950.69916
948.46923
949.35279
951.22825
952.56386
938.428
928.49769
927.6063
926.45852
913.94442
917.436
919.99902
922.25762
922.85741
924.55145
925.37335
924.72801
925.20034
926.33323
927.31218
928.31397
927.57302
969.77358
966.96261
965.30773
961.74193
960.44533
956.17495
953.87191
950.47919
949.73618
946.86457
947.70137
951.80881
952.39785
939.81841
933.89671
920.82896
925.8005
918.29081
918.94505
919.70831
921.76161
922.3227
925.59048
925.5427
924.80449
924.91061
926.37059
927.29613
928.44203
928.2691
969.61989
967.6207
965.51828
959.66521
958.89973
956.89331
955.04773
951.24281
950.71998
947.74606
947.48032
946.0946
941.05286
938.00476
934.38964
920.19164
923.1438
921.43301
922.65018
920.01451
921.16302
920.55018
922.1408
924.23222
923.49645
924.3692
926.3396
927.25882
927.63844
928.08961
968.65621
967.44258
964.87454
956.61483
957.12989
956.5487
954.8641
951.47195
951.84859
948.36566
946.16812
942.36372
926.17102
923.66504
928.0697
919.14316
920.21548
922.76282
923.20159
920.68203
919.47146
918.68664
921.00782
921.7973
922.97313
924.59351
926.2685
927.21029
926.4904
925.69138
972.2417
969.5861
966.90725
963.39986
967.21039
963.43926
960.06333
957.76987
956.59969
949.64717
949.14122
952.8059
947.97878
896.22873
915.59203
916.74284
917.63639
919.08416
922.00756
923.06525
922.70306
922.67599
923.86255
923.69583
925.36377
918.02208
967.34669
965.04579
962.90744
961.2146
961.94869
959.0039
955.74119
955.7127
954.9169
947.71663
945.23461
947.36132
944.49335
904.12342
918.44943
918.83239
918.61123
918.79063
923.29224
923.16256
923.04674
924.14156
924.61804
926.05665
927.6121
927.46073
967.36099
965.67555
965.32329
961.32044
959.29428
959.0906
955.59966
956.1945
954.68113
946.71527
943.90213
942.30916
942.33137
910.43132
919.69839
919.04054
919.3044
919.01933
923.49675
924.67876
922.83077
924.10436
925.45713
926.18572
927.28878
927.73659
967.46626
966.86085
965.8411
961.65874
957.88233
958.46408
955.40493
956.62014
946.70357
944.27758
943.34844
939.42835
939.67658
913.67575
921.29647
919.17079
919.96998
919.60696
923.59789
923.93107
922.01153
923.3286
925.52409
926.48473
927.71768
927.97132
966.8855
966.49217
965.85082
962.7578
957.84558
955.84198
954.63966
956.63883
954.81153
949.3622
946.62229
937.6484
927.63326
916.68364
921.05602
918.94546
919.29595
919.79032
922.56313
922.37459
921.64135
922.86609
925.09307
925.48211
925.80674
926.08318
970.2689
968.13152
965.97097
965.64789
963.86646
964.7293
965.69732
963.69674
960.63582
955.84235
959.49621
961.85503
949.41029
902.68501
913.58375
916.90131
917.80819
917.31088
919.02375
922.25772
922.73259
922.3302
923.36386
921.99554
920.27081
913.39204
966.28882
965.24866
964.79045
962.70814
961.80167
961.20498
960.48502
958.78895
958.82247
949.3443
952.76681
956.2388
943.74321
910.21044
919.21408
920.21223
920.81742
920.23666
921.83979
923.41296
923.24432
923.63222
924.22615
924.70965
926.41706
925.2741
966.19016
965.76764
965.4673
962.84416
961.8143
960.86473
960.11533
959.74932
958.82144
947.9566
945.57968
949.96213
933.59378
913.0439
920.6008
920.60725
921.37743
920.51832
922.06627
923.90426
923.15107
923.45077
924.91674
925.69713
926.73127
925.89276
966.15159
966.38116
965.91388
963.72759
962.38363
961.10622
960.85282
960.77861
956.70625
943.57327
942.43332
942.18064
931.84657
915.51769
921.09831
921.93359
921.6344
920.98037
922.21743
923.07934
922.52742
922.82033
924.45167
925.80763
927.05787
926.17345
965.78097
965.74914
965.52565
964.8565
962.23462
961.18606
960.85615
960.25045
957.98079
949.0136
945.88059
938.34514
926.84347
916.84439
920.55998
920.42572
920.48894
920.45592
921.57539
921.94661
921.66834
922.47849
924.76348
925.28021
925.5951
925.15672
969.09552
966.88976
964.93675
966.44929
964.93399
966.28683
968.29948
962.60887
948.84243
940.17451
935.87973
930.64891
924.18246
918.13158
913.85314
916.33541
918.15359
922.52098
923.89796
923.39895
922.64369
921.54429
923.36827
924.46258
923.40438
922.1705
923.57579
922.05412
917.34344
912.61805
965.37152
964.65811
964.85535
963.58644
962.73057
962.57797
963.08407
960.43797
952.82646
942.30799
937.13252
931.20132
926.89518
921.42571
916.39266
914.3009
919.6865
923.75293
924.91732
925.05424
924.21309
923.24374
923.66187
924.18414
924.20216
923.80165
924.3986
925.38827
925.67422
923.91813
965.25623
965.43773
965.11542
963.92893
962.7325
962.78809
962.37639
960.55369
957.1199
948.19605
936.50402
933.19416
931.75861
922.3024
918.4073
917.16138
921.38756
924.25528
925.24341
925.6565
924.93715
923.08157
923.57205
924.3579
924.2036
923.54795
924.33313
925.56435
925.70384
924.38513
965.24605
965.53346
965.44229
964.43876
962.84126
962.80984
962.26966
960.83073
960.07502
943.23109
936.28174
933.56125
933.04776
925.80984
922.49457
920.91323
922.39077
924.75205
924.2272
925.4125
924.25702
922.99957
923.54109
923.85748
923.51108
923.09711
924.02247
925.57176
925.47315
924.61372
965.02253
965.12732
965.07624
964.80174
963.12728
962.91628
962.34291
961.31185
960.46773
949.22957
942.91096
939.29621
934.14044
925.64946
922.19076
921.62112
922.99332
924.74479
922.79544
922.3749
922.46028
921.9799
922.30012
922.58602
922.33929
922.72042
924.04879
924.38991
924.30954
924.09315
969.3744
966.46118
965.31999
968.07157
968.57865
970.17344
971.61896
969.68123
960.46666
954.30102
949.70441
944.82703
940.84536
936.40134
934.83896
932.49463
927.58356
926.71462
924.47551
925.02063
924.7772
923.36103
924.15674
924.43976
923.8468
922.63805
923.55368
921.96809
915.45129
910.82128
964.78048
964.09807
963.79036
963.61047
963.86673
964.85122
966.15496
965.47746
954.77959
950.52286
948.1238
943.26075
940.44375
932.78479
926.49705
926.63984
924.52895
926.36365
925.88392
925.60843
925.39619
924.70188
924.6747
924.97035
925.16906
923.9491
924.34354
925.04511
925.2239
923.08007
964.68682
964.46141
964.01928
963.56843
964.7433
965.4745
965.80002
965.16274
956.67778
951.73706
951.09657
941.33813
932.57692
928.57188
925.89234
926.84403
925.90311
927.18867
927.981
926.44646
925.75745
924.79358
924.78469
925.34807
925.00294
924.15407
924.41467
924.86112
924.80417
923.29742
964.78845
965.11292
964.68499
963.85801
964.90765
965.70313
965.57436
964.99904
958.15543
954.60418
954.81735
945.85366
934.18005
926.88439
927.64061
926.13511
926.95904
927.81369
927.62753
926.3479
925.76097
924.84199
924.88386
925.19123
925.16904
923.65501
923.77283
924.46166
924.00577
923.46656
964.74702
964.80638
964.73744
964.01695
964.44118
965.04884
965.00144
964.25106
960.14056
958.63408
957.37479
951.23755
940.54213
932.09563
927.15308
926.9485
927.57171
927.20557
924.81008
923.59919
924.26386
924.078
923.87207
924.00466
923.78637
923.30988
923.24972
923.4917
923.33563
923.13392
967.77501
965.464
964.703
968.76766
970.72808
972.8366
971.53116
968.5535
961.98887
957.26056
954.2516
951.38858
942.35259
941.80054
940.24808
936.08221
929.73431
928.42135
927.6823
926.6257
926.9801
926.13162
924.22128
925.68857
925.7496
924.84946
924.40763
921.7301
917.69752
914.3631
964.08206
963.67152
963.30594
963.71036
965.37194
967.02283
966.46191
964.94114
958.19933
954.68148
953.8084
952.98562
940.85348
938.92136
937.72715
936.16362
930.1977
927.28508
926.85355
926.75588
926.76631
926.60293
925.77133
925.59044
925.53695
925.16483
924.80715
924.44027
924.64722
922.75005
964.2938
963.93644
963.44431
962.42787
964.68294
966.28959
965.98017
964.69846
958.64676
955.7101
954.79571
953.45265
939.12221
931.26749
936.77422
936.0392
930.82772
927.83806
928.38888
926.66352
926.31493
926.30278
925.83219
925.56637
925.49937
925.04374
923.99355
924.25462
924.11823
922.95766
964.20931
964.04628
963.86544
962.12611
964.02536
965.34954
964.82707
963.20291
957.6558
956.11647
956.10882
953.50039
948.67663
931.89579
933.75363
935.05791
931.07466
929.29357
928.36069
925.3211
926.12764
926.0051
925.96587
925.7032
925.85515
924.68574
923.48872
924.01738
923.60026
923.14803
963.9663
963.84931
963.81247
962.22834
962.72982
963.4559
963.42
962.26529
959.35103
958.37149
957.78725
954.24842
945.98384
930.2656
929.58599
932.51542
930.33415
929.04716
927.33413
923.74487
924.46642
924.58094
925.22565
924.82248
924.62998
923.98948
922.88671
923.02393
923.05792
922.86108
972.33319
970.44628
969.84458
971.61419
968.64554
966.01239
963.11115
964.60505
965.35216
958.5188
955.01906
952.12419
947.30143
939.1751
936.62752
935.45605
929.02596
926.5769
925.65669
925.41544
926.0693
925.80468
925.41399
925.9066
925.16851
924.48851
923.69967
921.7559
920.67621
917.72207
967.29193
966.43711
966.22824
966.83209
964.19488
961.63526
962.39069
961.35519
959.99773
954.96101
954.74065
950.46393
947.70908
938.27408
934.34494
933.73115
930.00218
927.03299
925.70228
925.4317
926.38849
926.45437
926.153
926.19994
926.01451
925.31904
924.20531
924.04342
924.42676
923.26549
966.11163
964.33311
964.76165
965.48644
961.29945
961.96464
962.60077
960.98744
959.39542
957.6116
956.25195
952.58384
948.33835
936.21496
932.53873
933.22923
930.25436
928.66347
925.64962
925.29515
926.40011
926.62744
926.32731
926.53835
926.11325
925.16566
923.86719
923.71311
924.41072
923.59591
965.46035
964.07062
963.16172
962.68807
959.81018
962.48315
960.29587
959.65532
958.61693
957.49385
956.81331
954.25127
947.71904
932.98707
931.06488
932.52905
930.63518
927.88473
925.45133
924.43755
925.854
926.71171
926.61836
926.8702
926.556
924.94277
923.44107
923.18934
924.1292
924.00234
964.54633
964.00048
963.69606
962.93004
960.18842
960.43474
960.13416
960.06592
958.99287
958.03006
957.43879
955.09797
946.73861
928.67383
929.30685
930.67984
929.48557
927.75101
925.61856
923.71728
924.29137
924.89688
925.18299
925.2019
924.89462
924.5233
922.98656
922.71141
922.80458
922.98474
)
;

boundaryField
{
    minX
    {
        type            zeroGradient;
    }
    maxX
    {
        type            zeroGradient;
    }
    minY
    {
        type            fixedValue;
        value           uniform 1073;
    }
    minZ
    {
        type            zeroGradient;
    }
    maxZ
    {
        type            zeroGradient;
    }
    bottomWater_to_rightSolid
    {
        type            compressible::turbulentTemperatureCoupledBaffleMixed;
        refValue        nonuniform List<scalar> 
130
(
752.59499
760.69666
769.14894
777.53865
785.53518
792.88162
799.42719
805.08385
809.80417
813.58048
816.40773
818.28654
819.22313
746.80394
756.22477
765.82413
775.11915
783.79784
791.65891
798.56973
804.47893
809.37526
813.27436
816.18066
818.10613
819.06381
735.13806
747.60649
759.68666
770.83563
780.82701
789.60092
797.16349
803.51199
808.71099
812.81155
815.84858
817.85207
818.8459
717.69104
735.93609
752.03542
765.84387
777.5641
787.45634
795.72772
802.5534
808.07206
812.38282
815.55393
817.63552
818.66663
697.06056
724.87273
745.77713
762.15625
775.32326
786.05782
794.82941
801.96254
807.6812
812.1239
815.37727
817.51108
818.56824
697.09283
724.90517
745.81586
762.19127
775.34747
786.06694
794.82872
801.95303
807.66207
812.09876
815.34901
817.48105
818.53605
717.8047
736.03088
752.12607
765.92517
777.62276
787.47747
795.71148
802.5038
807.99684
812.29219
815.45526
817.53693
818.57031
735.31635
747.73524
759.77594
770.89387
780.84786
789.5708
797.06997
803.38238
808.55665
812.6405
815.67145
817.67607
818.67424
747.02523
756.36986
765.89253
775.12578
783.73564
791.52644
798.38569
804.26489
809.14588
813.03099
815.9359
817.86778
818.83257
752.82827
760.83717
769.19682
777.49699
785.40469
792.68569
799.18667
804.81664
809.52667
813.29408
816.12153
818.00868
818.95385
)
;
        refGradient     uniform 0;
        valueFraction   uniform 0.99248593;
        value           nonuniform List<scalar> 
130
(
753.91346
761.94883
770.33136
778.66717
786.63271
793.92613
800.4226
806.03771
810.71388
814.46011
817.26549
819.12677
820.05193
748.17037
757.51268
767.03212
776.24812
784.87171
792.70249
799.56131
805.42272
810.27276
814.14885
817.03361
818.94083
819.88387
736.57225
748.94708
760.92837
771.98566
781.89108
790.59907
798.14665
804.43961
809.60074
813.67825
816.69569
818.68188
819.66117
719.23206
737.3433
753.30266
766.99825
778.62452
788.45987
796.67504
803.45827
808.94763
813.23858
816.39292
818.45346
819.47083
698.71093
726.34695
747.07835
763.33704
776.40885
787.08353
795.78778
802.8618
808.54674
812.97278
816.20462
818.32485
819.37612
698.74411
726.37536
747.12791
763.38074
776.43783
787.08518
795.7839
802.85259
808.52484
812.94535
816.17505
818.29344
819.33722
719.35968
737.43426
753.40536
767.10139
778.70747
788.49054
796.66482
803.40425
808.8589
813.13195
816.27381
818.33923
819.36323
736.75824
749.06579
761.00695
772.04632
781.9241
790.57996
798.02378
804.28711
809.41894
813.47165
816.48164
818.47002
819.45917
748.39298
757.6545
767.07867
776.24795
784.79398
792.53108
799.33576
805.16933
810.00885
813.85648
816.74058
818.65821
819.61427
754.14266
762.07536
770.35792
778.60004
786.45286
793.68132
800.13359
805.71895
810.39081
814.11837
816.92248
818.79615
819.73557
)
;
        Tnbr            T;
        thicknessLayers List<scalar> 0();
        kappaLayers     List<scalar> 0();
        kappaMethod     fluidThermo;
        kappa           none;
        alphaAni        none;
        alpha           none;
        field           T;
    }
    bottomWater_to_leftSolid
    {
        type            compressible::turbulentTemperatureCoupledBaffleMixed;
        refValue        nonuniform List<scalar> 
130
(
921.76342
921.71008
921.61262
921.47707
921.30899
921.11283
920.88876
920.65283
920.41017
920.15673
919.91365
919.70585
919.58345
921.86526
921.80974
921.70991
921.57297
921.40848
921.2156
920.9816
920.72647
920.47084
920.21647
919.96499
919.71863
919.5258
922.03655
921.97233
921.85668
921.70679
921.53849
921.34305
921.10292
920.82985
920.56401
920.30062
920.03955
919.77898
919.55987
922.2369
922.17647
922.05291
921.87135
921.68357
921.47024
921.22529
920.95428
920.67569
920.37804
920.08875
919.82068
919.6049
922.37143
922.32062
922.21314
922.04637
921.83859
921.61106
921.36415
921.0986
920.78984
920.4445
920.11116
919.80801
919.60088
922.4604
922.4176
922.3247
922.17942
921.98611
921.76443
921.51387
921.22494
920.88653
920.50054
920.13535
919.81573
919.60706
922.50895
922.46937
922.38234
922.2457
922.0626
921.8479
921.59606
921.30121
920.95978
920.56244
920.18845
919.88343
919.69564
922.52562
922.48532
922.3972
922.26005
922.08616
921.87904
921.63279
921.34472
921.01704
920.67626
920.34537
920.04863
919.84881
922.52026
922.47797
922.38639
922.24205
922.06261
921.8522
921.60713
921.32833
921.02326
920.71634
920.42131
920.15637
919.97352
922.5207
922.4763
922.38219
922.23446
922.03779
921.81889
921.57403
921.30688
921.02157
920.7344
920.46206
920.22221
920.05359
)
;
        refGradient     uniform 0;
        valueFraction   uniform 0.99248593;
        value           nonuniform List<scalar> 
130
(
922.00966
921.94172
921.83791
921.70287
921.53212
921.3348
921.09601
920.85518
920.6132
920.33743
920.06797
919.8325
919.71274
922.14254
922.06831
921.96123
921.82353
921.66305
921.47715
921.21926
920.94291
920.67929
920.41929
920.15814
919.86401
919.56381
922.35382
922.25888
922.11505
921.95988
921.80197
921.61809
921.36208
921.0442
920.77405
920.51031
920.24686
919.943
919.59282
922.58567
922.51657
922.37459
922.13233
921.94989
921.73379
921.47801
921.18356
920.90991
920.58832
920.28471
919.99012
919.65428
922.7059
922.65252
922.54101
922.35223
922.10913
921.86824
921.61415
921.3657
921.04556
920.66179
920.3103
919.94206
919.66117
922.78591
922.74319
922.64931
922.50008
922.28853
922.06065
921.80952
921.51819
921.16526
920.71489
920.32883
919.95478
919.66154
922.82841
922.78991
922.70314
922.56547
922.37114
922.15649
921.90225
921.60187
921.25669
920.7779
920.35923
920.0292
919.80416
922.84289
922.80333
922.71536
922.57379
922.40439
922.20342
921.95867
921.66709
921.3111
920.96155
920.62364
920.28293
920.00434
922.83169
922.78884
922.69768
922.54248
922.36814
922.16477
921.92125
921.63587
921.31123
920.99928
920.70208
920.41244
920.1688
922.83647
922.78832
922.69263
922.54027
922.32442
922.109
921.86372
921.59806
921.30684
921.01461
920.73986
920.48417
920.254
)
;
        Tnbr            T;
        thicknessLayers List<scalar> 0();
        kappaLayers     List<scalar> 0();
        kappaMethod     fluidThermo;
        kappa           none;
        alphaAni        none;
        alpha           none;
        field           T;
    }
    bottomWater_to_heater
    {
        type            compressible::turbulentTemperatureCoupledBaffleMixed;
        refValue        nonuniform List<scalar> 
92
(
733.05804
735.21315
739.39787
745.33339
723.76833
726.284
731.19767
738.21869
704.18032
707.40964
713.86549
723.35858
345.7456
342.94075
342.92864
345.54782
422.60819
419.18705
419.3571
422.85199
488.30904
485.45194
486.12529
489.84449
544.14245
542.42844
544.33157
548.84136
672.24929
590.23946
676.28794
590.52677
684.89719
595.1835
698.79009
602.80179
345.7456
345.54782
422.60819
422.85199
488.30904
489.84449
544.14245
548.84136
590.23946
602.80179
345.64257
345.64257
342.85988
342.87092
345.52388
345.52388
422.41986
422.41986
419.0583
419.26417
422.80247
422.80247
488.10339
488.10339
485.32719
486.05085
489.79494
489.79494
544.02626
544.02626
542.35728
544.29579
548.81828
548.81828
590.22881
590.22881
590.51107
595.18144
602.80199
602.80199
672.38802
676.39885
685.02215
698.91523
704.43129
707.63753
714.0916
723.57506
724.10101
726.60885
731.52578
738.51288
733.4346
735.5889
739.765
745.65467
)
;
        refGradient     uniform 0;
        valueFraction   nonuniform List<scalar> 
92
(
0.99248593
0.99248593
0.99248593
0.99248593
0.99248593
0.99248593
0.99248593
0.99248593
0.99248593
0.99248593
0.99248593
0.99248593
0.99248593
0.99248593
0.99248593
0.99248593
0.99248593
0.99248593
0.99248593
0.99248593
0.99248593
0.99248593
0.99248593
0.99248593
0.99248593
0.99248593
0.99248593
0.99248593
0.99248593
0.99248593
0.99248593
0.99248593
0.99248593
0.99248593
0.99248593
0.99248593
0.99248593
0.99248593
0.99248593
0.99248593
0.99248593
0.99248593
0.99248593
0.99248593
0.99248593
0.99248593
0.99248593
0.99248593
0.99248593
0.99248593
0.99248593
0.99248593
0.99248593
0.99248593
0.99248593
0.99248593
0.99248593
0.99248593
0.99248593
0.99248593
0.99248593
0.99248593
0.99248593
0.99248593
0.99248593
0.99248593
0.99248593
0.99248593
0.99248593
0.99248593
0.99248593
0.99248593
0.99248593
0.99248593
0.99248593
0.99248593
0.99248593
0.99248593
0.99248593
0.99248593
0.99248593
0.99248593
0.99248593
0.99248593
0.99248593
0.99248593
0.99248593
0.99248593
0.99248593
0.99248593
0.99248593
0.99248593
)
;
        value           nonuniform List<scalar> 
92
(
734.49437
736.63524
740.79841
746.70147
725.27358
727.78336
732.6676
739.64547
705.828
709.04435
715.45057
724.87789
350.19193
347.36016
347.33653
349.90411
426.48397
423.01408
423.17619
426.63621
491.70166
488.8216
489.39183
493.12037
547.1018
545.37348
547.15574
551.65402
674.13818
592.74458
678.17967
593.06291
686.65724
597.61766
700.45393
605.1869
350.27092
349.68575
426.52973
426.4684
491.72066
493.00489
547.11457
551.58273
592.77459
605.16043
350.17927
349.94427
347.15026
347.17998
349.71044
349.82661
426.33685
426.16947
422.79541
422.98387
426.4649
426.53612
491.45039
491.3661
488.58144
489.29028
492.97529
493.038
546.94035
546.89503
545.21366
547.12571
551.57372
551.62535
592.75826
592.74925
593.00338
597.63434
605.16178
605.20795
674.29111
678.24579
686.79998
700.59899
706.1419
709.28694
715.69101
725.10793
725.65016
728.13398
733.03601
739.95426
734.90164
737.04449
741.19954
747.03601
)
;
        Tnbr            T;
        thicknessLayers List<scalar> 0();
        kappaLayers     List<scalar> 0();
        kappaMethod     fluidThermo;
        kappa           none;
        alphaAni        none;
        alpha           none;
        field           T;
    }
}


// ************************************************************************* //
