/*--------------------------------*- C++ -*----------------------------------*\
| =========                 |                                                 |
| \\      /  F ield         | OpenFOAM: The Open Source CFD Toolbox           |
|  \\    /   O peration     | Version:  v2012                                 |
|   \\  /    A nd           | Website:  www.openfoam.com                      |
|    \\/     M anipulation  |                                                 |
\*---------------------------------------------------------------------------*/
FoamFile
{
    version     2.0;
    format      ascii;
    class       volVectorField;
    location    "630/bottomWater";
    object      U;
}
// * * * * * * * * * * * * * * * * * * * * * * * * * * * * * * * * * * * * * //

dimensions      [0 1 -1 0 0 0 0];


internalField   nonuniform List<vector> 
1460
(
(-0.0019482231 -0.01350861 0.00055674928)
(-0.0020591105 -0.0097876431 0.0016078592)
(0.00056750912 -0.012141988 0.00071907291)
(0.0025123399 -0.016396 -0.00095982169)
(0.0017167438 -0.016608346 -0.00058450921)
(-0.00040542719 -0.019532389 -0.0003872524)
(-0.0018112404 -0.01494749 -0.00027877108)
(-0.0035088851 -0.013453495 0.00088433163)
(-0.002484696 -0.010461995 0.0017145767)
(-0.00052964608 -0.010603728 0.0016722269)
(0.00072555034 -0.019340187 -0.00088593165)
(-0.0010098309 -0.017653527 -0.001279065)
(-0.0022173715 -0.016411695 -0.00052941299)
(-0.00063154363 -0.010889295 0.0014783927)
(0.0016664904 -0.015626923 0.0013939806)
(0.00067921765 -0.017274921 -0.00073475458)
(-2.7054081e-05 -0.016906785 -0.00025678067)
(-0.0026867107 -0.013543919 0.00058909161)
(-0.0035196729 -0.011752379 0.001407974)
(-0.0027935464 -0.011974551 0.0013012075)
(-0.0013969191 -0.012218487 0.00066437321)
(0.0015595906 -0.013128909 -7.3938608e-05)
(0.0031584522 -0.016054275 -1.3772881e-06)
(0.0035487849 -0.016337854 -0.00010194724)
(0.001895973 -0.017874211 0.0012271524)
(0.0002515773 -0.018084152 0.0018261841)
(-0.0031953427 -0.013586825 0.00026064087)
(-0.00080253048 -0.013167443 0.00015449467)
(0.0019638821 -0.011395839 0.00099984033)
(0.0017986281 -0.015584659 0.0011181804)
(-0.0024987207 0.015640248 0.0021331409)
(0.0018572292 0.0021636153 0.0011859475)
(0.0033242606 0.0010161689 0.00032285156)
(0.0080747553 0.014442256 -0.002020183)
(0.0067381678 0.018145128 -0.0014680961)
(0.0007434798 0.020624699 0.0013656734)
(-0.0037769653 0.016709493 0.0022585359)
(-0.0040316821 0.011825783 0.0024498745)
(-0.00076174813 0.00092697943 0.0014364895)
(0.0013071659 0.0010148731 0.0017719424)
(0.0048627954 0.017914013 -0.0021021467)
(-0.0012683263 0.01888626 -0.0016341016)
(-0.004505776 0.016814767 0.00099169423)
(0.0011974741 0.0010186179 0.00097323093)
(0.0037623653 0.012614644 -0.00011594541)
(0.005878633 0.017926873 -0.0020166723)
(0.00016641452 0.018717402 -0.001080958)
(-0.0051140198 0.01537882 0.0013030834)
(-0.0026099521 0.0073521926 0.00074526955)
(-0.0020842296 0.0038959603 0.001577994)
(0.0001326881 0.0017742449 0.00026809497)
(0.0032445252 0.0048851239 -0.00091264696)
(0.0066275885 0.011619106 -0.0023284175)
(0.0076236786 0.016708598 -0.0039377087)
(0.0050584312 0.01892282 -0.0031145803)
(-0.0025122786 0.019008639 -0.00069632243)
(-0.0070820218 0.01356181 -0.0012277863)
(-2.9967762e-05 -0.0027369586 -0.0018703265)
(-0.0022329104 0.0012999297 0.00025811848)
(0.0044883934 0.01646795 0.0025489897)
(0.0036808115 -0.013208002 -0.00029671529)
(0.004986885 -0.013540882 -0.00083858594)
(0.0022767539 -0.015262287 -0.00033632799)
(-0.0050134949 -0.014712378 0.0011994391)
(0.00046572882 0.0010715302 -4.1495063e-05)
(-0.0012140163 -0.0028777453 0.0017937561)
(0.0016209239 -0.0040152799 0.00078557199)
(0.0021686678 -0.015148534 -0.0013556677)
(0.00099694045 -0.01351674 -0.00097712127)
(-0.0018543843 -0.013277748 0.0022066915)
(-0.0024535433 -0.0087547704 0.0020398031)
(-0.0020411051 0.0019202872 4.0009922e-05)
(0.00081571941 -0.01488182 -0.0022280435)
(0.0020542887 -0.013798526 -0.0011537642)
(0.00012987006 -0.015087482 -0.0024426133)
(0.0031277267 -0.0050581783 0.00034458016)
(0.0016580119 0.0033083344 -0.001276473)
(0.0039478556 -0.0082819495 -0.0004779802)
(0.0031339565 -0.014360414 -0.0020945954)
(0.00096847473 -0.013566851 0.00035551505)
(0.00017863777 -0.013808629 -0.00043433083)
(0.0013640923 -0.013547654 -0.00076797967)
(-0.0018237428 -0.015636956 -0.0021284249)
(0.0013776855 -0.00045336057 -0.0019584561)
(0.0021148927 0.0060670795 -0.00095929168)
(0.00051833781 0.0053902533 -0.00056032619)
(0.0049503299 -0.010229338 -0.0029737638)
(0.0036586808 -0.015634407 -0.0042094524)
(-0.006454403 -0.014480781 -0.0022291397)
(-0.0033217268 -0.01369476 -0.00062000023)
(0.00091467808 -0.00016666527 -0.00076104504)
(-0.00023666004 -0.00048198502 -0.00095180548)
(0.0026669389 0.010395486 0.00049462229)
(-0.0031925792 0.011788318 0.0004548673)
(-0.00060407876 0.0071394061 0.0025604449)
(-0.00046151845 0.0094337562 -0.001955584)
(0.0023528516 0.007971655 -0.00086234694)
(0.0015033343 0.011550244 -0.0032354188)
(0.00099569331 -7.323264e-05 -0.0012462287)
(0.00053528233 0.00016514048 0.0012434038)
(-0.0022632742 0.010315377 -0.00047670902)
(-0.0018075118 0.0083740961 0.00011610119)
(0.00012589042 0.0081933552 -0.0011847127)
(-0.0010720966 -0.0022448736 -0.0012664963)
(0.00010016615 0.0080593025 -0.00066830805)
(-0.0017216141 0.0086122325 -0.0001845101)
(0.0017829233 0.0088002011 0.001167946)
(0.0036149196 0.0094826068 -0.0013905046)
(0.001219583 0.010325333 -0.0012634974)
(0.0020522388 0.0011018327 -0.0005255856)
(0.0011434231 -0.0044527376 -0.00063377503)
(0.0022979575 0.0009978247 -0.00053941734)
(-0.0011258539 0.0096249748 -0.0020543749)
(-0.0025910532 0.007382875 0.00042459813)
(-0.00011374747 0.010625173 0.0010846583)
(0.0025490804 0.0095756505 0.00024915101)
(0.0062245462 0.010765179 -0.0022032067)
(0.004623177 0.011977617 -0.00065606603)
(-0.0012813283 0.0077658433 0.00018975491)
(0.0012987169 -0.0020635196 -0.0003599037)
(-0.0014599387 -0.009481558 -0.0016732497)
(-0.0054757187 -0.010033965 -0.0019634631)
(-0.0068305606 -0.010021278 -0.0012997396)
(-0.0048513387 -0.0074713131 -0.0012751463)
(-0.0038394452 -0.0047458622 -0.0015812425)
(-0.0017364661 -0.0016295359 -0.00214179)
(0.0019604396 -0.0039202142 -0.0024640247)
(0.0042138634 -0.0076656183 -0.0021696032)
(0.0053462175 -0.0094747414 -0.0023767705)
(-0.0018383989 -0.0082920909 -0.0010448916)
(-0.001322605 -0.0010515264 0.0016022719)
(0.001218972 0.00069354095 0.00095098122)
(0.0038262214 -0.0098847746 0.0015894813)
(-0.0028018419 -0.010910989 -0.0013292838)
(-0.0053505769 -0.01099265 -0.0020653614)
(-0.0039435134 -0.0063882285 -0.002108874)
(-0.0019966206 -0.0026561307 -0.0019614685)
(0.0019684488 -0.0035519209 -0.0018263448)
(0.0044998657 -0.0074140605 -0.0016129355)
(0.0056166985 -0.0092569711 -0.0022939577)
(0.0011356535 -0.010159818 -0.0014992276)
(-0.00522077 -0.0071473131 0.00064544281)
(-0.0043974263 -0.0036284841 0.00048190597)
(-0.0040507313 -0.0011355728 0.0010355992)
(-0.0017940446 0.0028724374 0.0015576626)
(0.0023812089 0.0011563289 0.00094380101)
(0.0041569702 -0.0042025653 0.00029305072)
(0.0060841512 -0.0058794464 -0.00099997709)
(0.007064564 -0.0097885265 -0.0015976115)
(0.0056930889 -0.011051509 -0.0012027671)
(0.00014521228 -0.015309178 -0.00064595074)
(-0.0032766248 -0.01202396 0.0012857571)
(-0.0020483757 -0.011634402 0.0016133424)
(0.0016999017 -0.012740103 -0.00047520207)
(0.0030954193 -0.014620262 0.00056954457)
(0.00029953713 -0.017473062 0.00061546029)
(-0.0015049135 -0.017431883 -1.8127129e-05)
(-0.0029250269 -0.015420494 0.00053247225)
(-0.0038661562 -0.014477003 0.0016029017)
(-0.003014681 -0.013153636 0.0016966227)
(-0.0019142758 -0.011415215 0.0010726137)
(-0.00057150497 -0.010199106 0.00092233293)
(0.00025345008 -0.018375588 -0.0022857218)
(-0.0016107656 -0.017386035 0.00021068859)
(-0.0031135018 -0.016128307 -0.0013686374)
(-0.00062514624 -0.011481479 -0.00029904189)
(0.0018317972 -0.02136717 -0.00091120825)
(-0.0019519627 -0.016490764 -0.00043432849)
(-0.0038394765 -0.014208352 0.0014169152)
(-0.0040189123 -0.013384419 0.0020687173)
(-0.0026669545 -0.01285398 0.0016566596)
(-0.00039878216 -0.013167506 -0.00023939714)
(0.0018210632 -0.012945218 -0.00061546078)
(0.0034710401 -0.013125995 -0.0011763155)
(0.0039143602 -0.015235139 -0.00048965419)
(0.0028275113 -0.016212518 0.00018610085)
(0.0018594452 -0.016157071 0.00071733581)
(-0.00020412139 -0.018557723 0.0045091247)
(0.0011495092 -0.016876596 0.0042281794)
(-0.00051253462 -0.01671694 0.00020546035)
(-0.0011741907 0.017115766 0.0029905541)
(-0.0042521732 0.013719355 0.0034209979)
(0.0020361043 0.00054947642 0.00055426898)
(0.0015037609 0.00031148855 0.00026929206)
(0.0077809511 0.014699556 -0.00050557319)
(0.0045701798 0.018889061 0.00056671871)
(-0.0025387916 0.019095535 -0.0012308646)
(-0.0047002208 0.017436845 0.00066335205)
(-0.0057992141 0.015128792 0.002033382)
(-0.0032541476 0.0079301974 0.001311703)
(-0.0017828737 0.0032478909 0.00024951827)
(-0.00067044522 0.0011161523 -0.00010033267)
(0.0043963559 0.017009024 -0.0024096795)
(-0.00011639808 0.019081589 -0.0016684578)
(-0.0034400653 0.015903383 -0.003666958)
(0.0015591561 -0.00019071598 0.00058829098)
(0.0060460913 0.019007229 0.0016237005)
(-0.00091268148 0.018815029 0.0026512373)
(-0.0060557966 0.015216427 0.0042376178)
(-0.0043815346 0.0090131828 0.0038870327)
(-0.003361499 0.0049276399 0.0027289818)
(-0.00045791013 0.0043620006 0.00051933003)
(0.0027912685 0.0048340385 -0.00095831384)
(0.0030773735 0.0062708934 -0.0023080401)
(0.0064494215 0.016306053 -0.0032801198)
(0.0052491035 0.018277824 -0.002807107)
(-0.0011178354 0.018356906 0.00039874772)
(-0.002334504 0.018810291 0.005943081)
(0.0013807108 0.017617649 0.0054537991)
(0.0022702849 0.018111441 0.0033346416)
(0.0021418105 -0.003594 0.0016663001)
(0.0058188984 -0.011338153 -0.00031935146)
(0.0064873464 -0.014135474 -0.0017808786)
(-0.0036137569 -0.015511698 0.001580059)
(-0.0049515187 -0.01246908 0.00067278338)
(0.00069735299 0.0048493281 0.0016509751)
(-0.0015160379 0.0070265855 -0.001447565)
(-0.0018382661 0.0027136879 -0.00053753993)
(-0.00056302758 -0.0046309388 -0.00052160098)
(0.00058442958 -0.01458504 -0.0022583332)
(-0.0041726815 -0.013193617 0.00041408873)
(-0.0046829194 -0.013887795 0.00063681463)
(-0.002884497 -0.012640979 0.0018546262)
(0.0026994304 0.0023213795 -0.00081061087)
(0.0047542022 -0.010735547 0.0014219338)
(0.0015136377 -0.015542767 0.0024949196)
(-0.0033417549 -0.01542132 0.0022332463)
(0.0014886566 0.0061669499 0.00094158249)
(-0.00026271967 -0.0054025012 -0.0010397711)
(0.0013178809 -0.014781113 -0.00043212927)
(-0.0022210976 -0.01381624 0.00033969127)
(-0.00047019047 -0.013867126 0.0011055232)
(0.0012683639 -0.013330182 -0.00026510289)
(-0.0029057247 -0.015794602 0.00044823551)
(-0.0047715295 -0.012844002 0.00052928859)
(0.0014878397 0.0034535035 -0.0022451956)
(-0.0010136733 0.0031306914 -0.0010567609)
(0.0016103278 -0.018249168 -0.0033903505)
(-0.0040443856 -0.013713758 5.8383241e-05)
(-0.00017393765 0.00036929037 0.0024702048)
(0.0017753289 0.0027838171 -0.0011833328)
(0.0029115783 0.0049308523 -0.0018691173)
(0.0032687478 0.0096338255 -0.0015409436)
(0.0003178753 0.011791202 -0.0012451811)
(-0.00356872 0.010568565 0.0024796553)
(-0.0020102305 0.0089703223 0.0010246499)
(-0.00025396362 0.010363704 0.00020148718)
(0.0012397344 0.0079391482 0.00032465115)
(0.0028867886 0.0076873011 0.0015865826)
(0.0017760319 0.0095976109 0.00047825477)
(-0.0022425101 0.0032742465 -0.00064460128)
(-0.00057923524 -0.0014223418 0.00072384706)
(-0.003348442 0.0012739765 -0.0013665193)
(0.003238104 0.0058028614 0.0013212248)
(0.0056369171 0.011491905 0.0009897051)
(0.0044657663 0.01150354 0.0016993387)
(-0.0015494945 0.01415507 0.0022694366)
(-0.00029087843 0.0087031819 -0.00056993257)
(0.0035553268 0.0078636429 -0.0019687192)
(0.00092468476 0.0090542818 -0.0011848345)
(-0.00012001692 0.0033465095 0.00080534989)
(0.00051542379 -0.0035589069 -0.00041576403)
(0.00058338914 0.00094389005 -0.00051490086)
(-0.0011048711 0.011608852 0.0017487995)
(-0.0054057436 0.011506752 0.0024469658)
(-0.0023204171 0.0086738297 -0.0011260032)
(0.0029197842 0.0093475072 -0.0020998289)
(0.0038841851 0.013564054 0.00069811694)
(-0.0063068237 0.01226916 0.0025940559)
(-0.002234719 0.0056901003 0.0022083157)
(-0.0011893081 -0.0090333205 -0.0025421123)
(-0.0040185134 -0.0096340556 -0.0021040505)
(-0.0052081229 -0.0073484549 -0.00023149054)
(-0.0043875433 -0.0049535792 0.00035537162)
(-0.0038904455 -0.0038078767 0.00065737715)
(-0.0024546669 0.0015584276 0.00098164163)
(0.00049981424 0.0041197237 -0.0014787991)
(0.0034128319 0.00046857734 -0.0011423058)
(0.0039862448 -0.0024853742 -0.00058854066)
(0.0043166595 -0.0040857195 2.9726084e-05)
(0.0044233216 -0.0070515737 0.002289541)
(0.0017952115 -0.0088416931 0.0018848867)
(-0.004051951 -0.011596085 -0.00018066161)
(-0.0062077041 -0.0089770633 -0.0018721914)
(-0.0057878585 -0.0079291288 -0.0020023823)
(-0.0042825825 -0.0044730237 -0.00093394068)
(-0.0021874689 -0.0011402389 5.2736574e-05)
(0.0021968822 0.0014166381 -0.0018813705)
(0.0040621979 -0.0036073326 -0.0022026029)
(0.0045660099 -0.0064012111 -0.0027700387)
(0.0048961887 -0.0087274571 -0.0031857814)
(8.56083e-05 -0.010548902 -0.00085550405)
(-0.0057989019 -0.0083516201 0.002676568)
(-0.0046084423 -0.0050602811 0.0026610596)
(-0.00334777 -0.0041001451 0.0026462464)
(0.00023766574 -0.0016304013 0.0014421821)
(8.5325662e-05 -0.0021627748 0.0017195652)
(0.002714592 -0.0017017627 0.00089095771)
(0.0032979595 -0.0045919778 0.00087231617)
(0.0042504613 -0.0095631244 0.0010163481)
(-0.00053431732 -0.015247103 -0.00073431521)
(-0.0027662268 -0.014676952 0.0010011878)
(-0.0036748782 -0.013849327 0.0024009329)
(-0.00054522551 -0.011591023 0.00085853926)
(0.0025625684 -0.014906072 0.00045756291)
(-0.0006144698 -0.01693631 0.00061958011)
(-0.0013625738 -0.017573508 -0.00142969)
(-0.0023433949 -0.016561129 -0.0018659832)
(-0.0019436182 -0.016737556 -0.00081889401)
(-0.0018506478 -0.01604804 0.0012670453)
(-0.0017908902 -0.015782067 0.0025791092)
(-0.0027920552 -0.014370438 0.0022085186)
(-0.00070826002 -0.011469405 0.00053088496)
(-0.0012667817 -0.013818518 0.00063280773)
(-0.00075867585 -0.012334628 -0.00074902723)
(0.0019048113 -0.011586844 0.0008256872)
(0.0017219278 -0.015451574 0.0024254129)
(-0.0018275309 -0.018615208 0.0017518762)
(-0.0026104697 -0.016602474 0.0015091223)
(-0.0038706835 -0.01530623 0.0017161571)
(-0.0041983768 -0.015281915 0.0013559279)
(-0.0025472832 -0.012386485 0.0001735035)
(0.00077881902 -0.011710253 0.0014265966)
(0.0026701449 -0.012214573 0.0006640751)
(0.0024698214 -0.016558656 -0.00075844669)
(0.001980558 -0.016741595 -0.0022511719)
(0.00059670646 -0.015783724 -0.00144093)
(0.00012156336 -0.018681499 -0.0017554631)
(0.0014069887 -0.015860603 -0.0025468961)
(1.3587258e-05 -0.016008592 -0.0036004779)
(-0.0015459604 0.017288205 0.0022970668)
(-0.0039290954 0.016621054 0.0027567867)
(-0.0023282992 0.011835254 0.0028177843)
(-0.00050819146 -0.0020617743 -0.00043720384)
(0.0060045919 0.0153115 -0.001856436)
(0.001018004 0.018653958 -0.0026094766)
(-0.0031071966 0.018325461 -0.0052309525)
(-0.0010662377 0.016925326 -0.0057686821)
(0.00035354648 0.017408617 -0.0048282353)
(-0.0022024548 0.017560088 0.00155049)
(-0.0036553903 0.016999147 0.0032214453)
(-0.0036021558 0.014662882 0.0020813006)
(0.0019400212 0.0030802433 -0.0013455968)
(0.00073422117 0.011770485 -0.0019647247)
(0.0017803578 -0.00077677089 -0.0029476402)
(0.0020702207 0.0012059215 -0.0032190046)
(0.0067640036 0.015419059 -0.00041555017)
(0.00040130547 0.019762716 0.0010455049)
(-0.0051716552 0.018295828 0.0029578441)
(-0.0066173452 0.016795552 0.0039238018)
(-0.0070122371 0.013865894 0.0025409374)
(-0.0021496145 0.00063723556 -0.00087404615)
(-0.00018212191 0.0013547825 0.00043213658)
(0.0017404308 0.0061680149 -0.00030697115)
(0.0037250104 0.017730619 -0.0028565366)
(0.0029410037 0.018676868 -0.0048443135)
(-0.0027479756 0.018009406 -0.003207086)
(-0.0016315949 0.019004277 -0.0022415565)
(0.0030589529 0.017663879 -0.0047782244)
(0.0031158596 0.017636508 -0.0040935896)
(0.0010971347 -0.00020898671 0.00054583241)
(0.0020568769 -0.006261991 0.00021082318)
(0.0064351121 -0.014166884 -0.0023875731)
(-0.0012207115 -0.015661785 -0.0024473995)
(-0.0054447806 -0.011724051 -0.0028274685)
(-0.00076836119 0.0023427903 -0.00049215798)
(-0.0015322022 -0.013962213 0.0045008037)
(-0.0021156086 -0.01636484 0.0016750785)
(-0.0010791358 -0.0065556812 -0.0012790077)
(-0.002041431 0.00049397226 0.0015144025)
(-0.0039813992 -0.0050630718 0.0018089711)
(0.0032259625 -0.015027592 -0.0025256679)
(0.0033544012 -0.0136206 -0.001770601)
(0.0042231033 -0.013833279 -0.0023578303)
(0.0026388619 -0.015557645 -0.0031510574)
(-0.0044382965 -0.014569038 -0.0051357472)
(-0.0028579145 -0.0077664853 -0.0005866267)
(-0.00059050911 0.0077072277 -0.00059361318)
(-0.001755177 0.0056207457 0.0007815134)
(-0.0011902044 -0.00016424224 -0.00092232304)
(0.0041918651 -0.013782516 -0.003614695)
(0.00037942318 -0.015393823 -0.0035959756)
(-0.0022690605 -0.013858133 -0.0021838321)
(-0.0015118211 -0.013733436 -0.0034411101)
(-0.002718475 -0.01489655 -0.0043506197)
(0.00054675792 0.0012926979 -0.003832122)
(-0.0019977947 -0.00050626537 -0.0027189872)
(0.00082284833 -0.019414179 0.0029294651)
(-0.0047628339 -0.015704501 0.004028483)
(0.00054195063 5.770699e-05 -0.00034105343)
(0.002033333 0.0081945938 0.00061323683)
(0.0033311237 0.0065339724 -0.0010173002)
(0.0032208148 0.0077889415 -0.0011082945)
(0.0020367576 0.010939285 -0.00080554215)
(-0.0023792299 0.01217223 0.00036631372)
(0.0011663647 0.0081500186 0.00090038621)
(0.0039356983 0.012593768 0.0034968468)
(-0.0060191434 0.012012799 -0.00067165558)
(-0.0055877092 0.0090187108 -0.0013464286)
(-0.0027648224 0.0077857704 -0.00034169656)
(0.0012844013 0.0041377282 -0.00028928771)
(0.0017260323 -0.00043848825 -0.0011026786)
(0.00031427331 -0.0009379416 -0.0026469706)
(0.0023537257 0.006712032 0.0005796506)
(0.0003216684 0.010734301 5.6380244e-05)
(-0.0032268723 0.0094978599 -0.0029341917)
(-0.0044377035 0.0091241507 -0.0030280405)
(-0.0019896225 0.010774495 -0.00037422007)
(-2.3991958e-05 0.0098570823 3.4671062e-05)
(0.002112726 0.0069345833 -0.002600237)
(0.0031618471 0.010319305 -0.0028588472)
(-0.00084337648 0.0098955626 -0.0015132401)
(0.0014934464 -0.0025310142 -0.0012570539)
(0.001444444 0.00032785431 -0.0008815324)
(-0.0015288419 0.012898868 -0.0026323351)
(-0.0029987395 0.0081619986 -0.0019058338)
(0.0031208941 0.0090208749 -0.0013502242)
(0.0018071414 0.014435259 -0.0015318329)
(-0.0071254107 0.012415754 0.0018504035)
(-0.0022351433 0.0050439703 0.0028807158)
(0.001246124 -0.0053632091 -0.0032145638)
(-0.0006607744 -0.010249329 -0.0021479847)
(-0.0034212137 -0.012399935 0.0011889127)
(-0.0049181316 -0.010254222 0.0027698869)
(-0.0036199642 -0.0055857604 0.0022744777)
(-0.0025444265 -0.00055871815 0.0030500505)
(0.00155061 0.00059682001 0.0040614926)
(0.00079785282 -0.00085601153 0.0020694307)
(0.0039594713 -0.0055773884 0.002374505)
(0.0050981772 -0.0080997845 0.0021708352)
(0.004708065 -0.0098845578 0.0010808064)
(0.0018916343 -0.010967152 -0.00039750276)
(-0.0046228673 -0.0098886864 -0.0022357601)
(-0.0068654765 -0.0079743741 -0.0018035905)
(-0.0052299121 -0.0054822817 -0.0017165889)
(-0.0047309741 -0.0051650276 4.7810522e-05)
(-0.0040707338 -0.0020052838 0.00051790562)
(-0.0014882979 0.0043762624 0.00019220833)
(0.0025909036 0.0026912318 -0.00053243329)
(0.0037789682 -0.0012536699 -0.0019389618)
(0.0039461896 -0.0044627526 -0.0025188386)
(0.0040762011 -0.010398946 -0.0023732717)
(0.0021269499 -0.011029065 -0.0025642901)
(-0.0043869317 -0.0078704172 0.0031122622)
(-0.0021773871 -0.0029282709 0.0017219463)
(0.0017508583 -0.0033419389 0.0032841251)
(-0.0010216745 -0.0073551031 0.0049462093)
(0.0009169255 -0.0037461578 0.004465012)
(0.0018962957 -0.0074684716 0.0048886781)
(0.0031146843 -0.010950703 0.0040376264)
(-0.00041871167 -0.014846403 -0.0017460322)
(-0.0021124627 -0.014247004 -0.00021345181)
(-0.0036321563 -0.013359423 0.00059406353)
(-0.0020088896 -0.011913966 0.00081055911)
(-0.0008852006 -0.018257927 -0.0007989107)
(-0.003602518 -0.014403193 0.00025277981)
(-0.0031167316 -0.01104951 4.1089191e-07)
(-0.0016112882 -0.011302434 -0.0011306186)
(0.00026071407 -0.011719667 -0.002318841)
(0.0024814702 -0.013715818 -0.0032493855)
(0.003875557 -0.015047972 -0.0027214509)
(0.0031884436 -0.015139083 -0.0016502771)
(0.0014842346 -0.015121995 0.00050197499)
(-0.00041234496 -0.015450801 0.0020809145)
(-0.00064236336 -0.01639344 0.0040806057)
(-0.00043491551 -0.015309133 0.0039753753)
(-0.00066901669 -0.015465998 0.0026864027)
(-0.00095087381 -0.017008495 0.00054490175)
(-0.00071953733 -0.015758636 -0.0013628019)
(-0.00059272956 -0.016624607 -0.00066302897)
(-0.0016316768 -0.015407806 0.00012426527)
(-0.00094511156 -0.012356348 0.0011246465)
(0.00060502863 -0.017464454 0.0004312845)
(0.00018041241 -0.018102764 -0.00018296676)
(-0.0013949072 -0.016188574 -0.0036667953)
(-0.00072633344 -0.016213998 -0.0043087895)
(-0.0026506626 -0.015720932 -0.0025601798)
(-0.0016521245 -0.012066234 0.00030381766)
(0.0021358771 -0.011614103 -0.00015835825)
(0.0017050408 -0.017951347 -0.0027643201)
(-0.0016752073 0.01677093 0.00045118883)
(-0.0037401201 0.016810595 0.0013215922)
(-0.0039454804 0.015177423 0.0014986273)
(0.00058484703 0.0054991755 0.00081220188)
(0.0017774751 0.019273444 -0.0018076191)
(-0.0045758155 0.015446345 3.8613269e-05)
(-0.0024161093 0.0030535575 0.001353621)
(-0.0023109954 0.001196922 4.6707733e-05)
(-0.00020304472 0.0040691194 -0.0023926501)
(0.00157727 0.0086704427 -0.0035057592)
(0.0057234321 0.015617038 -0.0040773159)
(0.0061137873 0.017103808 -0.0025836896)
(0.0044963566 0.017136271 7.0916768e-05)
(-0.00050777134 0.017304296 0.0036711218)
(-0.00053606622 0.017308015 0.0058021635)
(0.0033821732 0.016998389 0.0048674119)
(0.0040516428 0.017375622 0.0027595018)
(0.00072954307 0.018405684 -0.0032897469)
(0.00064463755 0.016914965 -0.0047217031)
(0.00032113011 0.018212237 -0.0028225241)
(-0.0025258647 0.017237624 -0.0002319328)
(-0.0010971241 0.0095613724 0.0014851262)
(0.0026175387 0.017855793 0.0049695609)
(-0.00033613109 0.019719217 0.0014826163)
(-0.0032215365 0.017088822 -0.0041851283)
(-0.00066873614 0.01626374 -0.0052441056)
(-0.0031913021 0.016980466 -0.0023222016)
(0.0018360366 -0.00153455 0.001856315)
(0.0013878193 -0.00063253374 0.0033802317)
(0.0048744327 0.017772997 0.0019512387)
(0.00091683258 0.0014076079 8.6011787e-05)
(0.00032230134 -0.00044749614 0.0013255672)
(0.0032524523 -0.010323531 0.0013949953)
(0.0010313889 -0.013838911 -8.9780801e-05)
(-0.00089034613 -0.0047029713 -0.0017023312)
(0.0021641729 -0.0057568543 0.0013093573)
(0.0011070167 -0.014386322 0.0023949975)
(-0.0022902847 -0.013502589 0.0022322157)
(-0.001129033 -0.013454076 0.0026473121)
(-0.0036801229 -0.014848792 0.0051426713)
(-0.0048230762 -0.013538132 0.0038434214)
(-0.00080815433 -0.0045344684 0.0013776386)
(0.0015111074 -0.00011794329 0.00038792878)
(0.0012208296 -0.00056894269 0.00064826228)
(0.0024877097 -0.015230589 -0.0048647932)
(-0.0027812648 -0.015849094 -0.0050145967)
(0.0025571847 -0.00312536 -0.00013193996)
(0.0018296949 -0.00014239564 -0.0008240429)
(0.0021010307 -0.0055526567 -0.00028349608)
(0.0021277009 -4.1862701e-05 -0.002999561)
(0.00080454634 -0.001432108 -0.00104149)
(-8.0752986e-05 -0.013642198 -0.0046615918)
(-0.0033962998 -0.014518587 -0.00089615716)
(-0.0014331639 -0.0017623538 0.0013669122)
(-0.0011386688 -0.013930283 0.0005885841)
(-0.0011708643 -0.015990259 0.0018803755)
(0.002743188 -0.014793951 0.0012762416)
(0.0042884712 -0.014432817 0.0020007038)
(-0.0016824588 -0.014515998 0.0047535991)
(-0.0018893222 -0.013141341 0.0025572161)
(0.0015593999 0.0086098877 0.00077052435)
(0.0022186476 0.0075155356 0.0020550481)
(0.0031760315 0.0040907928 0.0019399251)
(0.00057779498 0.0019684396 0.0013772447)
(0.00017955554 0.0093011661 -0.00085185718)
(0.0031263979 0.0084627636 -0.0017236852)
(0.0015207521 0.010073943 -0.0018312588)
(-0.0014166181 -0.0001939251 0.00019294781)
(-0.0018851325 -0.00124526 -0.0012628523)
(-0.0019806187 0.012637612 0.0028877955)
(-0.0037720094 0.010933804 0.0014943393)
(-0.0020637635 0.0042794564 0.00085065095)
(0.0019148563 0.0061141677 -0.0018181712)
(0.0054089171 0.0085657674 -0.0016195662)
(0.0047800524 0.012551224 -0.00065972512)
(-0.002863641 0.0048626538 -0.00087201816)
(-8.0093449e-05 0.0056208599 -0.00090347732)
(0.0022295631 0.0084649663 0.001936328)
(0.0015915343 0.0093909837 0.0020740006)
(0.00017147596 0.0081102546 -0.001945225)
(0.0027675337 0.007215173 -0.0010464433)
(0.0046091862 0.0078825096 -0.0022366806)
(0.0016562333 0.013247208 -0.0024690752)
(-0.00011280089 0.006216406 0.0030453342)
(0.0031541784 0.0076583851 -0.00090370759)
(0.00049298916 0.006057005 0.00028194975)
(0.0014024533 0.0034570339 0.0023664035)
(0.00053506675 0.0002821201 0.0027885643)
(-0.001928358 0.003534328 0.0024723269)
(-0.0010780994 0.0093824791 0.004035192)
(0.001877806 0.001415767 -0.0006180412)
(0.003081847 -0.0022832532 -0.00067891859)
(0.0039642045 -0.0092910893 -0.00045632231)
(-0.0024005329 -0.009432848 0.0025400009)
(-0.0015799849 -0.0032962843 0.0016219886)
(0.00027906718 -0.004075902 0.0027492911)
(0.0017304697 -0.004488043 0.0054147038)
(0.003216607 -0.0065814927 0.0058991424)
(-0.0013149914 -0.011062549 -0.0027163078)
(-0.0021177009 -0.012881878 -0.002596691)
(0.002137727 -0.010279799 -0.00069166584)
(0.0011537217 -0.010713848 -0.0010582723)
(-0.0012755061 -0.0086463113 -0.0023424656)
(-0.0029852694 -0.0032547498 -0.0017047433)
(0.001171835 -0.00081841599 -0.001783168)
(0.0016010268 -0.010739178 0.0017330485)
(-0.0027166111 -0.0091693068 0.0032810964)
(0.00026650038 0.0009431623 0.0034127766)
(0.0014719322 -2.2250904e-05 0.0031978233)
(0.0023024267 -0.0017051229 0.0020756175)
(0.0042164955 -0.0077746207 0.0014807109)
(0.00078602029 -0.01117478 -0.00021779012)
(0.0018325981 -0.0043887538 -0.0026778919)
(0.0043620345 -0.0081848186 -0.0012128575)
(0.0030192753 -0.01145275 0.0022193019)
(0.0026864209 -0.01074213 0.003849158)
(0.0015726278 -0.011332834 0.0047516625)
(0.0005401759 -0.0099807598 0.0058822896)
(-0.001291872 -0.012161897 0.002254499)
(-0.00083492207 -0.012210041 -0.00076533848)
(-0.00052707697 -0.014965355 -0.0027018185)
(-0.0027874245 -0.01381672 -0.0018879264)
(-0.0035815712 -0.013433076 -0.0017460692)
(-0.001604068 -0.010481149 0.00071943721)
(0.0010078858 -0.017070658 -0.0013252505)
(-0.0027174472 -0.016329767 0.00045368009)
(-0.003604852 -0.014528085 0.0012704081)
(-0.0031348534 -0.01200958 0.0011624646)
(-0.0020334051 -0.013673298 -0.00055340918)
(0.0012016828 -0.013944222 -0.0010877312)
(0.0037689689 -0.011135074 -0.00027850117)
(0.004002205 -0.012472592 -0.00020799678)
(0.0010348681 -0.014565246 0.00030032842)
(-0.00035057893 -0.016030095 -0.0034217893)
(0.00055534631 -0.01169795 -0.0030516676)
(0.0021219412 -0.01405605 -0.0031473517)
(0.0013927065 -0.015588828 -0.0032597521)
(-0.00044312005 -0.017192962 -0.0019141354)
(-0.0017288724 -0.017387553 -0.0027061526)
(-0.0035714376 -0.015269754 -0.0023238146)
(-0.0032582704 -0.011002542 -0.0022459165)
(-0.0004474769 -0.011525231 -0.0028550817)
(0.00087157148 -0.018816888 -0.0028933592)
(-0.0031018946 -0.018986235 0.0014262401)
(0.0010679792 -0.011447777 0.0022044714)
(0.0010358114 -0.018726681 -1.0678694e-05)
(-0.0031148437 0.01693722 -0.0018028583)
(-0.0049899053 0.016208914 -0.0018041174)
(-0.0041792287 0.012737911 -0.001810293)
(-0.0011227779 -6.0864855e-06 -6.7901135e-05)
(0.0043577021 0.017213826 -0.0032620644)
(-0.0028185974 0.018476256 -0.00028407301)
(-0.0052547452 0.014389485 0.0024774289)
(-0.0021726479 0.0040379498 0.0012705056)
(-0.00092082058 0.002795083 -0.0001820471)
(0.0010475187 -0.0012111449 -0.00061053056)
(0.0027001233 0.0004211675 -0.00039021547)
(0.0051644882 0.012736387 -0.0014419652)
(0.0032025963 0.016935718 -0.0016112377)
(-0.00012643939 0.015983845 -0.0063823817)
(0.0011465657 0.0060853185 -0.0021441713)
(0.0033023737 0.011863122 -0.0037318093)
(0.0046709844 0.0171672 -0.0042009971)
(0.0041838981 0.019077558 -0.0018134907)
(-0.0046025233 0.019018939 0.00038087533)
(-0.0061280912 0.015372208 -0.0017437751)
(-0.0025656395 0.00049562785 -0.00069617771)
(-0.00097089939 -0.0012843697 -0.0021178149)
(0.0034476614 0.019068037 -0.002502275)
(-0.0035413571 0.019094142 0.0025578266)
(0.0025332215 0.0014675935 0.0031545186)
(0.005229882 0.017426338 0.0041298094)
(5.8179345e-06 0.0025870859 -0.00015495801)
(0.0010121904 -0.0040296286 0.0015113067)
(0.0030532533 -0.014202455 0.0043660289)
(-0.0011781001 -0.014257429 0.0016281706)
(-0.002521115 -0.012571563 0.00065855279)
(-0.0028312251 0.0026621834 -0.00064208709)
(0.0029191548 -0.013788115 -0.0012769106)
(0.00422515 -0.013965204 -0.00092855478)
(0.0040399484 -0.014958235 0.00020700262)
(-0.002976171 -0.014605819 0.00032956296)
(-0.0040627886 -0.01384502 -6.6011566e-05)
(-0.004081039 -0.013291845 -0.0001219713)
(0.0017042174 0.0020453081 -0.00016824985)
(0.0017722781 -0.015938448 0.003412582)
(-0.00080024797 -0.013892894 0.0034654734)
(-0.00042840109 -0.014792828 0.0039082771)
(-0.00018316635 -0.014973486 0.0044263396)
(0.0014185383 0.0036623411 -0.0011153304)
(-0.0024992151 0.0058080061 0.0012724753)
(0.0016981085 -0.014129451 0.0032152616)
(-0.0015646527 -0.014042929 0.001308398)
(-0.0037611953 -0.014318599 -0.0007101573)
(-0.0016088802 -0.0090492158 -0.00042784129)
(0.0048912717 -0.0089933074 0.00019693689)
(0.0016286572 -0.01452918 0.0016219602)
(-0.0023023354 -0.0044895682 0.0011360635)
(0.0014887531 0.008469655 -5.5585535e-05)
(0.0037130476 0.0075824125 0.0031261574)
(0.0010677313 0.0090669378 0.003758269)
(0.00045087396 0.00066948466 0.0022899735)
(-0.0029100995 0.012203223 -0.0017265062)
(-0.00047983809 0.0062834147 -0.00035289641)
(0.0030244137 0.000820374 0.0015225041)
(0.00071424076 -0.0011371376 -0.00038505904)
(0.00021116474 0.011590603 0.00078561029)
(-0.0040299073 0.010385338 0.00097897451)