/*--------------------------------*- C++ -*----------------------------------*\
| =========                 |                                                 |
| \\      /  F ield         | OpenFOAM: The Open Source CFD Toolbox           |
|  \\    /   O peration     | Version:  v2012                                 |
|   \\  /    A nd           | Website:  www.openfoam.com                      |
|    \\/     M anipulation  |                                                 |
\*---------------------------------------------------------------------------*/
FoamFile
{
    version     2.0;
    format      ascii;
    class       volScalarField;
    location    "650/heater";
    object      T;
}
// * * * * * * * * * * * * * * * * * * * * * * * * * * * * * * * * * * * * * //

dimensions      [0 0 0 1 0 0 0];


internalField   nonuniform List<scalar> 
80
(
732.77736
734.89842
739.06402
744.98331
723.45068
725.94933
730.84579
737.84162
703.93002
707.12245
713.53529
722.98233
672.13476
676.10748
684.65639
698.45202
345.62926
342.88118
342.86465
345.47147
422.43003
419.07809
419.20882
422.62231
488.10376
485.3103
485.92575
489.52311
543.93454
542.26929
544.11697
548.51976
590.1514
590.38835
594.97534
602.46634
625.32945
628.95839
638.42454
657.516
345.62967
342.89857
342.87781
345.439
422.40864
419.07917
419.22675
422.61807
488.06257
485.2979
485.95262
489.5403
543.92675
542.26714
544.1458
548.52912
590.14547
590.38663
594.98969
602.47676
625.34196
628.97828
638.45436
657.5506
672.19162
676.20602
684.79386
698.59484
704.25343
707.44818
713.84822
723.25063
723.96259
726.38729
731.21673
738.12989
733.33312
735.34112
739.40858
745.22573
)
;

boundaryField
{
    minY
    {
        type            fixedValue;
        value           uniform 300;
    }
    minZ
    {
        type            zeroGradient;
    }
    maxZ
    {
        type            zeroGradient;
    }
    heater_to_topAir
    {
        type            compressible::turbulentTemperatureCoupledBaffleMixed;
        refValue        nonuniform List<scalar> 
40
(
518.49206
515.42584
509.93632
502.81615
481.34776
469.29177
456.62128
445.57998
491.80724
481.03836
469.88758
459.53061
506.75457
503.74235
503.23665
504.44409
504.58502
502.91587
504.32553
506.45247
504.92594
501.89163
502.09843
504.3105
507.82981
503.54336
501.46704
501.33562
493.23512
481.98204
469.74292
458.21626
482.36925
470.57942
457.9785
446.80882
518.96115
515.88418
510.34494
503.12453
)
;
        refGradient     uniform 0;
        valueFraction   nonuniform List<scalar> 
40
(
0.00032132529
0.00032132529
0.00032132529
0.00032132529
0.00032132529
0.00032132529
0.00032132529
0.00032132529
0.00032132529
0.00032132529
0.00032132529
0.00032132529
0.00032132529
0.00032132529
0.00032132529
0.00032132529
0.00032132529
0.00032132529
0.00032132529
0.00032132529
0.00032132529
0.00032132529
0.00032132529
0.00032132529
0.00032132529
0.00032132529
0.00032132529
0.00032132529
0.00032132529
0.00032132529
0.00032132529
0.00032132529
0.00032132529
0.00032132529
0.00032132529
0.00032132529
0.00032132529
0.00032132529
0.00032132529
0.00032132529
)
;
        value           nonuniform List<scalar> 
40
(
732.70894
734.82831
738.99083
744.90595
723.37333
725.86732
730.75816
737.74821
703.86226
707.05022
713.45743
722.89812
672.08195
676.05243
684.59848
698.39007
625.29088
628.91815
638.38176
657.4678
625.30347
628.93768
638.41083
657.5017
672.13899
676.15076
684.73523
698.53179
704.18586
707.37598
713.77006
723.16581
723.88512
726.30529
731.1292
738.03661
733.2642
735.27074
739.33523
745.14826
)
;
        Tnbr            T;
        thicknessLayers List<scalar> 0();
        kappaLayers     List<scalar> 0();
        kappaMethod     solidThermo;
        kappa           none;
        alphaAni        none;
        alpha           none;
        field           T;
    }
    heater_to_rightSolid
    {
        type            compressible::turbulentTemperatureCoupledBaffleMixed;
        refValue        nonuniform List<scalar> 10(752.23251 746.40649 734.72905 717.2678 696.64262 696.68413 717.41554 734.9124 746.58138 752.36008);
        refGradient     uniform 0;
        valueFraction   nonuniform List<scalar> 10(0.49999997 0.49999997 0.49999997 0.49999997 0.49999997 0.49999997 0.49999997 0.49999997 0.49999997 0.49999997);
        value           nonuniform List<scalar> 10(748.60813 742.1243 728.85591 707.8601 677.07948 677.11753 708.00535 729.08169 742.3558 748.79306);
        Tnbr            T;
        thicknessLayers List<scalar> 0();
        kappaLayers     List<scalar> 0();
        kappaMethod     solidThermo;
        kappa           none;
        alphaAni        none;
        alpha           none;
        field           T;
    }
    heater_to_leftSolid
    {
        type            compressible::turbulentTemperatureCoupledBaffleMixed;
        refValue        nonuniform List<scalar> 10(920.55398 920.49052 920.48286 920.63092 920.78717 921.01133 921.26649 921.69804 922.12109 922.32914);
        refGradient     uniform 0;
        valueFraction   nonuniform List<scalar> 10(2.0832898e-05 2.0832898e-05 2.0832898e-05 2.0832898e-05 2.0832898e-05 2.0832898e-05 2.0832898e-05 2.0832898e-05 2.0832898e-05 2.0832898e-05);
        value           nonuniform List<scalar> 10(732.78171 723.45523 703.93493 672.14026 625.33583 625.34832 672.19699 704.2582 723.96688 733.33702);
        Tnbr            T;
        thicknessLayers List<scalar> 1(0.001);
        kappaLayers     List<scalar> 1(0.0005);
        kappaMethod     solidThermo;
        kappa           none;
        alphaAni        none;
        alpha           none;
        field           T;
    }
    heater_to_bottomWater
    {
        type            compressible::turbulentTemperatureCoupledBaffleMixed;
        refValue        nonuniform List<scalar> 
92
(
928.91185
923.56764
924.61234
925.58475
921.33589
921.21219
921.61858
921.53137
923.19059
921.3762
919.62614
919.38429
927.82833
925.8481
923.98151
921.6016
927.05122
929.381
924.31306
921.98291
935.61079
933.46873
918.84063
919.60088
936.50774
930.51843
916.08039
917.23222
932.15481
932.15481
927.33292
927.33292
923.15351
923.15351
918.7539
918.7539
936.78367
900.71004
933.51293
900.52537
927.39569
900.58901
922.69521
908.38717
931.50416
905.94598
934.32967
932.52215
936.1496
933.78868
893.48754
916.26668
931.13066
926.09477
930.14815
931.74992
901.6464
915.01832
926.20747
925.60148
928.98668
930.83106
902.15283
919.27952
927.73803
926.37695
927.41884
929.57338
905.08393
921.21069
934.5623
920.64579
922.87027
925.29759
904.92269
919.19785
920.64579
922.87027
925.29759
919.19785
928.9686
930.33507
930.19275
929.58143
939.24426
929.27351
930.30177
929.96583
948.93194
926.81007
926.88484
927.01125
)
;
        refGradient     uniform 0;
        valueFraction   nonuniform List<scalar> 
92
(
0.0075140686
0.0075140686
0.0075140686
0.0075140686
0.0075140686
0.0075140686
0.0075140686
0.0075140686
0.0075140686
0.0075140686
0.0075140686
0.0075140686
0.0075140686
0.0075140686
0.0075140686
0.0075140686
0.0075140686
0.0075140686
0.0075140686
0.0075140686
0.0075140686
0.0075140686
0.0075140686
0.0075140686
0.0075140686
0.0075140686
0.0075140686
0.0075140686
0.0075140686
0.0075140686
0.0075140686
0.0075140686
0.0075140686
0.0075140686
0.0075140686
0.0075140686
0.0075140679
0.0075140679
0.0075140679
0.0075140679
0.0075140679
0.0075140679
0.0075140679
0.0075140679
0.0075140679
0.0075140679
0.0075140679
0.0075140686
0.0075140686
0.0075140686
0.0075140679
0.0075140686
0.0075140679
0.0075140686
0.0075140686
0.0075140686
0.0075140679
0.0075140686
0.0075140679
0.0075140686
0.0075140686
0.0075140686
0.0075140679
0.0075140686
0.0075140679
0.0075140686
0.0075140686
0.0075140686
0.0075140679
0.0075140686
0.0075140679
0.0075140686
0.0075140686
0.0075140686
0.0075140679
0.0075140686
0.0075140686
0.0075140686
0.0075140686
0.0075140686
0.0075140686
0.0075140686
0.0075140686
0.0075140686
0.0075140686
0.0075140686
0.0075140686
0.0075140686
0.0075140686
0.0075140686
0.0075140686
0.0075140686
)
;
        value           nonuniform List<scalar> 
92
(
734.25156
736.31651
740.45867
746.34081
724.93804
727.41701
732.27975
739.22237
705.57796
708.73278
715.0843
724.45855
350.00404
347.2617
347.23125
349.80059
426.22203
422.91273
423.00435
426.37465
491.46674
488.67808
489.17894
492.75493
546.88457
545.18685
546.91219
551.29052
674.08889
592.72135
677.99553
592.92038
686.44886
597.44158
700.10777
604.84326
350.07133
349.64361
426.27059
426.21341
491.40501
492.61207
546.78078
551.22406
592.71646
604.74702
350.05333
350.03975
347.35639
347.31802
349.55714
349.72831
426.23145
426.19361
422.91957
423.07804
426.21768
426.31816
491.35507
491.35052
488.63204
489.29569
492.64092
492.76961
546.81095
546.80072
545.16142
547.04218
551.20857
551.32975
592.73362
592.62905
592.88516
597.47192
604.74969
604.85695
674.05871
678.05969
686.6013
700.25279
705.94219
709.12321
715.47413
724.80135
725.58039
727.91199
732.71293
739.57168
734.95311
736.77996
740.81754
746.592
)
;
        Tnbr            T;
        thicknessLayers List<scalar> 0();
        kappaLayers     List<scalar> 0();
        kappaMethod     solidThermo;
        kappa           none;
        alphaAni        none;
        alpha           none;
        field           T;
    }
}


// ************************************************************************* //
