/*--------------------------------*- C++ -*----------------------------------*\
| =========                 |                                                 |
| \\      /  F ield         | OpenFOAM: The Open Source CFD Toolbox           |
|  \\    /   O peration     | Version:  v2012                                 |
|   \\  /    A nd           | Website:  www.openfoam.com                      |
|    \\/     M anipulation  |                                                 |
\*---------------------------------------------------------------------------*/
FoamFile
{
    version     2.0;
    format      ascii;
    class       volScalarField;
    location    "34";
    object      p;
}
// * * * * * * * * * * * * * * * * * * * * * * * * * * * * * * * * * * * * * //

dimensions      [0 2 -2 0 0 0 0];


internalField   nonuniform List<scalar> 
64000
(
-1.81903e-22
-4.47101e-21
-3.392e-21
-5.30511e-21
-8.34373e-21
-2.949e-21
-4.74823e-21
-4.44707e-21
-5.44034e-21
-5.0549e-21
-4.45042e-21
-6.70475e-21
-4.64622e-21
-6.74861e-21
-4.11915e-21
-5.40663e-21
-1.23381e-21
-9.06244e-22
-1.57654e-21
-2.46344e-21
-1.73532e-21
-2.18428e-21
-2.23598e-21
1.67855e-23
-5.09651e-21
-1.7821e-21
6.19893e-22
-5.04364e-21
-2.80109e-21
-2.14136e-21
-3.84809e-21
2.50437e-22
7.17926e-22
-3.88452e-22
-1.31433e-21
-5.3054e-21
-5.45127e-22
4.53727e-22
-6.08167e-22
-1.06003e-21
-7.15182e-21
-1.23335e-20
-1.15106e-20
-8.18794e-21
-1.06279e-20
-1.10219e-20
-9.02617e-21
-5.79251e-21
-3.7574e-21
-9.27767e-21
-1.12957e-20
-1.13414e-20
-5.69821e-21
-5.5095e-21
-6.42834e-21
-5.93805e-21
-3.74741e-21
1.81799e-21
-8.62181e-22
-5.48686e-21
1.75938e-22
-3.24436e-21
-5.70345e-21
-8.56596e-21
-4.96318e-21
-2.99968e-21
-3.6216e-21
-5.67658e-21
-3.84705e-21
-1.74774e-21
9.96717e-22
-1.43463e-22
-3.76012e-21
-2.14695e-21
-6.65947e-22
-2.16025e-21
-7.61696e-22
2.03036e-21
-9.49313e-22
-2.80939e-21
-6.86422e-21
-9.82503e-21
-1.31005e-20
-1.0317e-20
-9.46001e-21
-1.10145e-20
-9.97254e-21
-7.83111e-21
-9.34991e-21
-1.02885e-20
-8.34172e-21
-9.4647e-21
-8.55423e-21
-4.9592e-21
-3.93944e-21
-1.52713e-21
-8.98352e-21
-3.30128e-21
1.88157e-21
-2.56524e-21
-4.63117e-21
-6.43233e-21
-6.20856e-21
-6.30983e-21
-3.30564e-21
-4.11671e-21
-4.54667e-21
-5.3621e-21
-1.7844e-21
-2.65292e-21
-2.02909e-21
-7.22031e-22
-2.93985e-21
7.03528e-22
-1.39483e-21
-5.23135e-21
2.66244e-21
3.26395e-21
1.90953e-23
4.37606e-23
-8.84841e-21
-9.5704e-21
-1.06865e-20
-1.44739e-20
-1.26232e-20
-1.36008e-20
-1.07832e-20
-7.64284e-21
-1.0293e-20
-1.07688e-20
-9.04124e-21
-1.03731e-20
-9.21529e-21
-5.13211e-21
-5.54076e-21
-4.17213e-21
-5.61072e-21
-4.23434e-21
1.67374e-21
-1.72462e-21
-4.46745e-21
-6.26701e-21
-8.78254e-21
-7.86807e-21
-7.6536e-21
-1.12226e-21
-2.5658e-21
-3.33144e-21
-2.62751e-21
-3.39386e-21
-7.49266e-22
-7.70073e-22
-1.21412e-21
-7.45112e-22
-2.54477e-21
-3.7301e-21
1.90374e-21
1.37405e-21
-1.18824e-21
-6.04313e-23
-1.61446e-20
-1.06602e-20
-1.10248e-20
-1.28548e-20
-1.21692e-20
-1.45816e-20
-1.10804e-20
-5.57063e-21
-9.17846e-21
-1.25634e-20
-1.02009e-20
-9.59163e-21
-7.46575e-21
-3.81047e-21
-9.63846e-21
-1.2363e-20
-5.28501e-21
-2.26691e-21
-9.76209e-22
-2.2262e-21
-4.15434e-21
-8.0019e-21
-8.98266e-21
-7.36514e-21
-5.14177e-21
-3.12626e-21
-2.42134e-21
-3.28409e-21
-5.09883e-21
-8.84731e-22
9.67975e-23
1.64629e-21
-3.01548e-23
-3.32493e-22
-3.35023e-21
-3.71779e-21
-5.32636e-22
-5.14996e-22
1.10829e-21
-1.19681e-21
-1.2018e-20
-1.14102e-20
-1.05585e-20
-1.39866e-20
-1.25718e-20
-1.21744e-20
-9.16949e-21
-1.24728e-20
-1.24165e-20
-1.18811e-20
-1.01672e-20
-9.22462e-21
-8.39564e-21
-4.41291e-21
-8.29639e-21
-1.00892e-20
-4.95304e-21
-2.60906e-21
-2.79991e-21
-4.87747e-21
-2.39264e-21
-4.40615e-21
-9.94075e-21
-8.56331e-21
-8.35674e-21
-2.2279e-21
-3.58866e-21
-1.5219e-21
-2.66596e-21
-3.23815e-21
-2.58164e-21
-1.94728e-21
-9.83359e-22
-6.59814e-22
-1.99602e-21
-8.66136e-23
-2.80814e-21
-1.04529e-21
-1.86819e-22
8.9946e-22
-1.30207e-20
-1.49819e-20
-1.05449e-20
-1.24316e-20
-1.33713e-20
-1.28179e-20
-9.88549e-21
-1.1954e-20
-1.31808e-20
-1.19789e-20
-1.03997e-20
-1.0789e-20
-6.96852e-21
-7.48459e-21
-8.24186e-21
-8.44497e-21
-5.30794e-21
-9.59812e-22
-1.68447e-21
-4.37553e-21
-3.99713e-21
-7.2867e-21
-1.2407e-20
-1.02476e-20
-5.52215e-21
-5.25359e-21
-4.7135e-21
-2.17308e-22
-1.85672e-21
-9.88142e-22
-4.60356e-21
-4.34349e-21
-5.59239e-23
-2.8917e-23
-8.69492e-22
-2.82083e-21
-1.44875e-21
-5.81928e-22
-2.32928e-21
-6.34968e-22
-1.46989e-20
-1.46064e-20
-1.32323e-20
-1.2022e-20
-1.28166e-20
-1.06422e-20
-9.86754e-21
-1.74784e-20
-1.49212e-20
-1.23297e-20
-9.92315e-21
-8.97353e-21
-7.99548e-21
-9.37387e-21
-7.28745e-21
-8.50226e-21
-4.35239e-21
-2.70369e-21
-5.70943e-21
-3.46174e-21
-3.34884e-21
-8.31985e-21
-9.44391e-21
-8.30187e-21
-5.42802e-21
-6.20021e-21
-4.30395e-21
-1.11394e-21
-2.2631e-21
-2.40834e-21
-4.39699e-21
-3.53192e-21
1.29095e-22
-1.72633e-21
-4.53633e-21
-5.59928e-21
-1.42318e-21
-2.47134e-23
-5.3135e-22
-1.19398e-21
-1.98652e-20
-1.64895e-20
-1.20971e-20
-1.21866e-20
-1.35366e-20
-1.4761e-20
-1.30985e-20
-1.29093e-20
-1.35359e-20
-1.49357e-20
-7.74526e-21
-7.70447e-21
-8.12189e-21
-9.20087e-21
-1.09772e-20
-8.78145e-21
-4.11332e-21
8.39867e-22
-7.10621e-21
-7.43627e-21
-2.60429e-21
-8.0573e-21
-1.05352e-20
-8.57833e-21
-3.10188e-21
-4.70019e-21
-6.75609e-21
-4.03394e-21
-1.13889e-21
-4.76125e-21
-3.21124e-21
-1.59003e-21
5.36991e-22
-2.01775e-21
-5.85999e-21
-3.19233e-21
-1.79396e-21
5.23158e-22
-5.20327e-23
-1.70486e-21
-1.13977e-20
-1.35508e-20
-1.36527e-20
-1.25203e-20
-1.54586e-20
-1.57944e-20
-1.30906e-20
-1.25652e-20
-1.37922e-20
-1.41851e-20
-1.10638e-20
-7.59387e-21
-8.13348e-21
-9.90251e-21
-1.01768e-20
-7.55811e-21
-5.18929e-21
-4.0377e-21
-7.73114e-22
-3.21947e-21
-6.37453e-21
-6.28625e-21
-1.05745e-20
-9.39386e-21
-7.0376e-21
-3.98986e-21
-3.48302e-21
-1.06916e-21
-4.17326e-21
-4.0301e-21
-2.48209e-21
-1.13915e-21
-1.65794e-21
-2.05719e-21
-6.32877e-21
-3.951e-21
-1.99654e-21
6.63266e-24
-2.03493e-22
-3.46281e-23
-1.06213e-20
-1.42022e-20
-1.44952e-20
-1.66992e-20
-1.32109e-20
-1.48334e-20
-1.78879e-20
-1.10401e-20
-1.43916e-20
-1.51969e-20
-1.04604e-20
-7.41463e-21
-6.42991e-21
-9.93249e-21
-9.75026e-21
-1.02293e-20
-5.45909e-21
-3.08391e-21
1.05214e-21
-1.89219e-21
-9.19339e-21
-1.14541e-20
-8.99101e-21
-7.98111e-21
-7.41604e-21
-5.59047e-21
2.77331e-22
-9.51203e-22
-3.78021e-21
-5.91733e-21
-3.34077e-21
9.25691e-22
-4.5069e-21
-2.20401e-21
-2.83482e-21
-5.00682e-21
-1.55483e-21
-1.8213e-21
2.69047e-22
4.01929e-22
-1.17821e-20
-1.58331e-20
-1.59136e-20
-1.46208e-20
-1.44747e-20
-1.75838e-20
-1.46719e-20
-1.45155e-20
-1.13874e-20
-1.3901e-20
-1.55242e-20
-8.70312e-21
-5.1008e-21
-9.54027e-21
-1.13345e-20
-1.16382e-20
-6.70804e-21
-1.24585e-21
-1.82373e-21
-1.80195e-21
-6.58641e-21
-1.15694e-20
-9.63476e-21
-9.06985e-21
-8.46676e-21
-1.74369e-21
-1.60752e-21
-2.571e-21
-4.4158e-21
-2.89292e-21
3.13671e-22
-1.59441e-21
-3.51366e-21
-2.29107e-21
-2.08181e-21
-2.90406e-21
-1.30685e-21
-1.99917e-21
-8.38824e-22
-7.53407e-22
-1.64035e-20
-1.46082e-20
-1.45091e-20
-1.5035e-20
-1.69635e-20
-1.63528e-20
-1.58708e-20
-1.63352e-20
-1.73675e-20
-1.40658e-20
-1.17757e-20
-7.64276e-21
-7.63236e-21
-1.02392e-20
-1.01528e-20
-9.27692e-21
-6.41638e-21
-2.52402e-21
-1.33378e-21
-4.86404e-21
-6.71879e-21
-8.08443e-21
-8.29613e-21
-8.36521e-21
-5.15189e-21
-9.9162e-22
-1.35556e-21
-3.98302e-21
-3.44881e-21
-2.10021e-21
-4.66731e-21
-2.53817e-21
4.32075e-22
-5.01052e-21
-5.91052e-21
-1.53483e-21
-4.46615e-22
-2.84991e-21
-1.72833e-21
-1.15595e-21
-1.92573e-20
-1.88192e-20
-1.49525e-20
-1.70776e-20
-1.37747e-20
-1.40143e-20
-1.61636e-20
-1.37936e-20
-1.44627e-20
-1.61862e-20
-1.17479e-20
-1.07675e-20
-1.06883e-20
-1.14006e-20
-1.0109e-20
-9.01108e-21
-5.73047e-21
-8.60113e-22
-1.62875e-21
-3.6446e-21
-6.93272e-21
-9.1427e-21
-1.03569e-20
-9.72949e-21
-2.48439e-21
2.22266e-21
1.19301e-21
-4.53302e-21
-6.07808e-21
1.02417e-21
-1.95393e-21
-5.24314e-21
-1.96439e-21
-2.75768e-21
-5.37967e-21
-1.7903e-21
-1.1051e-21
-2.97757e-21
7.49575e-23
-1.29276e-21
-1.29133e-20
-1.96672e-20
-1.84652e-20
-1.51922e-20
-1.20405e-20
-1.49597e-20
-1.98368e-20
-1.99586e-20
-1.46717e-20
-1.10659e-20
-9.33714e-21
-1.34394e-20
-1.2546e-20
-1.03373e-20
-7.50979e-21
-8.75537e-21
-6.81815e-21
-4.29309e-21
-4.21098e-21
-3.81188e-21
-8.64986e-21
-5.36778e-21
-7.65307e-21
-9.98882e-21
-2.32598e-21
-1.1004e-21
-1.80452e-21
-2.43928e-21
-2.44989e-21
-1.08108e-21
-4.61295e-22
-2.00022e-21
-3.02136e-21
-1.98516e-21
-4.40936e-21
-3.10688e-21
-6.47154e-22
-2.6007e-21
-1.28221e-21
9.85979e-22
-1.38952e-20
-1.48956e-20
-1.82163e-20
-1.51046e-20
-1.57074e-20
-1.47584e-20
-1.75255e-20
-1.84216e-20
-1.32785e-20
-1.04512e-20
-1.38608e-20
-1.28151e-20
-1.19893e-20
-9.77812e-21
-1.0575e-20
-1.07151e-20
-5.98891e-21
-5.93199e-21
-3.5438e-21
-3.63867e-21
-7.61009e-21
-8.77812e-21
-8.22312e-21
-4.82296e-21
-1.20561e-21
-3.1665e-21
-4.08312e-21
-9.92146e-22
-1.22967e-21
-1.35404e-21
-1.78415e-21
-1.19018e-21
-2.68619e-21
-3.18653e-21
-6.52173e-21
-4.41149e-21
7.79475e-22
1.22487e-22
-1.57659e-21
2.25703e-22
-1.46695e-20
-1.38198e-20
-1.70046e-20
-1.26272e-20
-1.28355e-20
-1.54396e-20
-1.9176e-20
-1.91406e-20
-1.38013e-20
-1.26404e-20
-1.17895e-20
-1.38993e-20
-7.15884e-21
-1.05259e-20
-1.20953e-20
-9.20788e-21
-7.31224e-21
-5.7298e-21
-6.13974e-21
-3.44031e-21
-9.34713e-21
-6.9939e-21
-7.89665e-21
-4.28286e-21
-2.11214e-21
-6.88098e-22
-2.65023e-21
-3.86303e-21
-7.67709e-22
-3.70975e-21
7.93991e-22
-4.19266e-21
-3.04301e-21
-1.37274e-21
-2.71302e-21
-2.94995e-21
-1.62267e-21
-2.44344e-21
-4.14663e-22
-4.7913e-22
-1.06887e-20
-1.49814e-20
-1.98909e-20
-1.25117e-20
-1.00214e-20
-1.563e-20
-1.7615e-20
-1.72139e-20
-1.45088e-20
-1.22502e-20
-1.28879e-20
-1.35475e-20
-8.95438e-21
-8.45396e-21
-1.43812e-20
-9.95342e-21
-7.4278e-21
-7.73062e-22
-5.11772e-21
-6.46046e-21
-1.34923e-20
-6.78768e-21
-3.21188e-21
-3.33889e-21
-1.4895e-22
-4.86558e-21
-3.77013e-21
-2.54061e-21
-3.19889e-21
-2.49487e-21
-1.76447e-21
-1.09761e-21
-1.7976e-21
2.64e-24
-9.42797e-22
-3.91545e-21
-2.32862e-21
-3.60183e-21
2.88987e-22
3.85172e-22
-8.9878e-21
-1.14263e-20
-1.54438e-20
-1.4526e-20
-1.33526e-20
-1.45572e-20
-1.56101e-20
-1.47259e-20
-1.46909e-20
-1.36457e-20
-1.30731e-20
-1.28065e-20
-9.92713e-21
-6.74756e-21
-1.22992e-20
-9.06744e-21
-8.11772e-21
-8.79718e-21
-1.14049e-20
-8.42882e-21
-9.5145e-21
-8.60804e-22
-3.67008e-21
-4.04396e-21
-1.11139e-21
-2.05697e-21
-3.61653e-21
-1.6861e-21
-2.43621e-21
-2.57687e-21
-5.36002e-21
-4.8277e-22
-6.31826e-22
-1.18677e-21
-3.93964e-22
-8.82289e-22
-1.0479e-21
-1.45589e-21
-2.37351e-21
-2.63203e-21
-8.32299e-21
-1.19161e-20
-1.77866e-20
-1.58244e-20
-1.34214e-20
-1.20432e-20
-1.19162e-20
-1.52302e-20
-1.77153e-20
-1.52048e-20
-1.11725e-20
-1.11273e-20
-1.06341e-20
-1.01601e-20
-1.1725e-20
-9.58995e-21
-6.69507e-21
-6.27693e-21
-1.21399e-20
-7.44496e-21
-8.06896e-21
-5.87569e-21
-3.70718e-21
-4.46654e-21
-4.66216e-22
1.02058e-21
-7.84028e-21
-4.77199e-21
-3.14494e-21
-2.55687e-21
-1.30103e-21
-1.67129e-22
-1.26486e-21
-1.65436e-21
-1.70991e-21
2.42245e-23
-2.2321e-21
-1.29455e-21
-2.64305e-21
-1.99009e-21
-1.13276e-20
-1.43718e-20
-1.62509e-20
-1.37568e-20
-1.08639e-20
-1.21766e-20
-1.25729e-20
-1.25338e-20
-1.47336e-20
-1.50078e-20
-1.54709e-20
-1.33722e-20
-9.56938e-21
-1.3548e-20
-1.17451e-20
-5.86565e-21
-7.48447e-21
-5.25041e-21
-7.57287e-21
-7.97822e-21
-7.1141e-21
-4.32348e-21
-3.75864e-21
-5.69007e-21
-5.66999e-21
-5.19076e-22
-3.52771e-21
-3.66241e-21
-3.47862e-21
-2.10851e-21
-2.86328e-21
-6.47333e-22
-3.13243e-21
6.62368e-22
-2.95283e-21
-1.12471e-21
-3.119e-21
-1.45344e-21
-5.91184e-22
-2.40459e-21
-1.71124e-20
-1.58202e-20
-1.46651e-20
-1.35163e-20
-1.34107e-20
-1.32164e-20
-1.34946e-20
-1.06753e-20
-1.2301e-20
-1.39983e-20
-1.46967e-20
-1.52268e-20
-1.30445e-20
-1.41033e-20
-1.03364e-20
-6.75683e-21
-5.61952e-21
-4.8413e-21
-8.38625e-21
-9.19157e-21
-5.7657e-21
-2.00534e-21
-3.96558e-21
-4.6052e-21
-4.00911e-21
-2.49044e-21
-4.82151e-21
-6.39729e-21
-3.78356e-21
-1.22233e-21
-2.5003e-21
3.72557e-22
-4.4645e-22
-7.75876e-22
-3.54704e-21
-5.81018e-21
-1.89851e-21
-2.66339e-21
7.7721e-22
9.85319e-22
-1.77626e-20
-1.92416e-20
-1.39586e-20
-1.37148e-20
-1.43272e-20
-1.60019e-20
-1.26572e-20
-1.02223e-20
-1.51141e-20
-1.11245e-20
-1.40338e-20
-1.53407e-20
-1.25091e-20
-9.80343e-21
-8.94956e-21
-7.81518e-21
-5.25508e-21
-2.66611e-21
-3.49662e-21
-8.45129e-21
-8.48764e-21
-5.15972e-21
-6.83457e-21
-5.8437e-21
-4.56666e-21
-3.51761e-21
-3.80273e-21
-4.2572e-21
-2.9239e-21
-1.73685e-21
-2.01845e-21
-1.16885e-21
1.18444e-22
-6.86304e-22
-6.22908e-21
-5.28123e-21
-2.30426e-21
-9.86646e-22
-9.59332e-22
-1.98974e-23
-1.41004e-20
-1.50873e-20
-1.77306e-20
-1.32384e-20
-1.35058e-20
-1.52674e-20
-1.44329e-20
-1.45272e-20
-1.12395e-20
-1.22728e-20
-1.47996e-20
-1.53759e-20
-7.92449e-21
-1.22635e-20
-1.33847e-20
-7.78043e-21
-2.37723e-21
-3.01592e-21
-5.62947e-21
-5.74379e-21
-7.28567e-21
-7.42824e-21
-9.3364e-21
-7.26185e-21
-5.27778e-21
-1.41508e-21
-4.1271e-21
-5.58801e-21
5.86089e-23
-2.35722e-21
-3.6225e-21
-1.2048e-21
-4.79324e-22
-3.54107e-21
-7.05718e-21
-5.15572e-21
-3.46843e-21
-1.50745e-21
-1.07431e-21
-1.38426e-21
-1.00737e-20
-1.32069e-20
-1.62459e-20
-1.5316e-20
-1.25463e-20
-1.55421e-20
-1.41044e-20
-1.37388e-20
-1.01371e-20
-1.36637e-20
-1.67362e-20
-1.3117e-20
-6.68916e-21
-9.32295e-21
-1.08588e-20
-6.81141e-21
-5.53508e-21
-8.45086e-21
-5.04388e-21
-4.1829e-21
-7.02298e-21
-7.16641e-21
-5.46477e-21
-6.16388e-21
-8.69229e-21
-4.84224e-21
-2.4689e-21
-2.76497e-21
-2.94255e-21
-2.89009e-21
-2.54922e-21
-3.23334e-21
-1.88719e-21
-1.24912e-21
-7.71833e-21
-5.54686e-21
-3.63868e-21
-1.50346e-21
-6.71396e-22
-1.27431e-21
-1.4465e-20
-1.66602e-20
-1.4668e-20
-1.22795e-20
-1.16757e-20
-1.40853e-20
-1.43547e-20
-1.68386e-20
-8.83159e-21
-1.14631e-20
-1.8494e-20
-1.48538e-20
-9.11731e-21
-9.33538e-21
-4.89826e-21
-7.18038e-21
-7.70819e-21
-4.46846e-21
-2.06226e-21
-5.93356e-21
-5.71432e-21
-6.39492e-21
-1.00607e-20
-1.0096e-20
-7.07335e-21
-6.67804e-21
-1.84488e-21
-4.84027e-21
-4.33431e-21
-7.64835e-22
-2.68724e-21
-3.07214e-21
-2.91268e-21
-1.39805e-21
-3.90964e-21
-5.69836e-21
-4.01147e-21
-1.9883e-21
-4.04081e-22
-3.57212e-22
-8.46959e-21
-1.2836e-20
-1.50896e-20
-1.8847e-20
-1.29439e-20
-1.55892e-20
-1.32161e-20
-1.1865e-20
-1.04008e-20
-1.28833e-20
-1.70232e-20
-1.36045e-20
-8.90896e-21
-9.14267e-21
-5.36696e-21
-1.03205e-20
-7.10315e-21
-5.00592e-21
-1.1919e-21
-3.93306e-21
-4.11864e-21
-8.96452e-21
-8.03465e-21
-7.9443e-21
-8.49871e-21
-5.03282e-21
-7.61557e-22
-2.16492e-21
-6.54642e-21
-2.91898e-21
-3.49168e-22
-2.93577e-21
-3.43249e-21
-2.62123e-21
-8.85202e-21
-2.58407e-21
-3.80575e-21
-3.30424e-21
-1.29349e-21
-2.196e-21
-9.58326e-21
-1.38968e-20
-1.48367e-20
-1.61164e-20
-1.33078e-20
-1.41255e-20
-1.31425e-20
-1.23768e-20
-1.25851e-20
-1.28716e-20
-1.61567e-20
-8.30956e-21
-9.18874e-21
-1.12941e-20
-6.20659e-21
-6.77119e-21
-7.79114e-21
-5.18927e-21
-4.6407e-21
-4.85397e-21
-5.4169e-21
-1.01503e-21
-6.89384e-21
-9.26999e-21
-6.93565e-21
-4.9335e-21
-3.47458e-21
-2.6818e-21
-4.73886e-21
-3.66701e-21
-2.50555e-21
-3.00834e-21
-5.07122e-21
-6.10403e-21
-5.69623e-21
-3.839e-21
-3.64461e-21
-2.19743e-21
-2.61962e-21
-2.50172e-21
-1.3465e-20
-1.86803e-20
-1.51819e-20
-1.05722e-20
-1.77683e-20
-1.51407e-20
-1.305e-20
-1.1409e-20
-1.23171e-20
-1.3122e-20
-1.3133e-20
-6.73936e-21
-8.58222e-21
-1.17065e-20
-7.34667e-21
-9.04729e-21
-9.02949e-21
-7.81452e-22
-3.38379e-21
-3.03361e-21
-6.86442e-21
-5.12293e-21
-5.43708e-21
-6.06272e-21
-6.85591e-21
-3.64545e-21
-3.34652e-21
-5.06627e-21
-3.01874e-21
-4.99545e-21
-2.79332e-21
-2.50036e-21
-4.13315e-21
-3.31238e-21
-6.79622e-21
-4.97469e-21
-4.23623e-21
-4.31978e-21
-1.14422e-21
-7.73575e-22
-1.21534e-20
-1.60069e-20
-1.76446e-20
-1.18773e-20
-1.24853e-20
-1.79124e-20
-1.3966e-20
-7.04236e-21
-1.08248e-20
-1.64473e-20
-1.10808e-20
-9.74323e-21
-7.71721e-21
-1.3068e-20
-9.25421e-21
-9.04655e-21
-5.2858e-21
-4.93352e-21
-3.15883e-21
6.47086e-22
-3.46133e-21
-6.98007e-21
-7.80473e-21
-6.77873e-21
-9.61555e-21
-6.13481e-21
-1.18417e-21
1.67257e-21
-3.77047e-21
-3.67132e-21
-3.51929e-21
-3.68617e-21
-5.86026e-21
-2.34202e-21
-4.45996e-21
-7.13485e-21
-3.62015e-21
-5.81561e-22
-1.14524e-21
-1.52228e-21
-1.36733e-20
-1.3704e-20
-1.39106e-20
-1.40221e-20
-1.39098e-20
-1.42317e-20
-1.39862e-20
-1.18985e-20
-1.04249e-20
-1.20484e-20
-9.86708e-21
-9.04041e-21
-9.08849e-21
-1.12505e-20
-9.37697e-21
-8.90416e-21
-4.73921e-21
-4.64854e-21
-2.41085e-21
-1.94631e-21
-3.65619e-21
-6.41473e-21
-8.71898e-21
-7.33438e-21
-7.1534e-21
-4.89785e-21
-1.73759e-21
-3.07037e-21
-4.36576e-21
-3.09317e-21
-2.81997e-21
-2.8262e-21
-2.18469e-21
-1.71571e-21
-2.72075e-21
-7.0128e-21
-3.10158e-21
-1.30449e-21
-1.83417e-21
-2.19191e-21
-1.69152e-20
-1.53437e-20
-1.19517e-20
-1.22541e-20
-1.47933e-20
-1.50349e-20
-1.25848e-20
-1.18878e-20
-1.24304e-20
-9.92455e-21
-7.46483e-21
-1.03954e-20
-1.22123e-20
-1.16721e-20
-7.44434e-21
-8.40244e-21
-5.1579e-21
-2.74826e-21
2.98217e-23
-3.32731e-21
-2.03267e-21
-5.48064e-21
-1.31232e-20
-7.60177e-21
-7.56514e-21
-6.88981e-21
-1.55813e-21
-5.07267e-22
-2.71343e-21
-4.44702e-21
-3.16011e-21
-4.05028e-21
6.31227e-22
-1.52226e-21
-4.73596e-21
-4.53624e-21
-2.12617e-21
1.06842e-21
-1.35571e-21
-2.78514e-21
-1.10274e-20
-1.05366e-20
-1.22739e-20
-9.77278e-21
-1.75456e-20
-1.55552e-20
-1.37228e-20
-1.28775e-20
-1.07772e-20
-1.06143e-20
-1.01882e-20
-8.604e-21
-1.16544e-20
-9.2433e-21
-5.82011e-21
-8.4692e-21
-7.97673e-21
-3.93311e-21
-1.09416e-21
-6.17992e-22
-3.26153e-21
-5.1105e-21
-1.08523e-20
-8.27919e-21
-9.29262e-21
-7.30251e-21
1.12583e-21
-3.60607e-22
-3.77134e-21
-3.88364e-21
-2.8425e-21
-3.55222e-21
-8.62949e-23
5.63967e-22
-2.86792e-21
-3.87065e-21
-1.71901e-21
-1.45446e-21
-7.50815e-22
-6.32695e-22
-1.22416e-20
-1.21091e-20
-1.25658e-20
-1.36431e-20
-1.48125e-20
-1.07405e-20
-1.29592e-20
-1.19305e-20
-9.94288e-21
-7.61139e-21
-8.7657e-21
-1.34763e-20
-1.04827e-20
-7.69079e-21
-6.70556e-21
-9.31166e-21
-8.40981e-21
-4.09679e-21
-2.85945e-21
-3.14338e-21
-2.21591e-21
-3.99424e-21
-8.90839e-21
-8.86217e-21
-6.96113e-21
-5.68574e-21
-2.97759e-21
-2.28391e-21
-1.60384e-21
-3.82615e-21
-3.20713e-21
-1.66766e-21
-1.50264e-21
-1.87314e-22
1.49843e-21
-4.20854e-21
-2.75508e-21
1.19645e-21
-1.65935e-21
-2.50443e-21
-1.33974e-20
-1.09113e-20
-9.75632e-21
-9.83675e-21
-1.31786e-20
-1.47313e-20
-1.34636e-20
-1.39137e-20
-1.16736e-20
-8.6818e-21
-5.00781e-21
-1.17799e-20
-6.4503e-21
-5.81667e-21
-6.60802e-21
-9.32289e-21
-1.06625e-20
-3.58485e-21
-2.40397e-21
-2.94513e-21
-3.42561e-21
-6.97776e-21
-5.72952e-21
-6.27594e-21
-6.84533e-21
-4.70457e-21
-4.89689e-21
-7.4007e-21
-1.78713e-21
-2.97601e-21
-4.29208e-21
-3.52405e-21
-3.61249e-21
-1.87389e-21
6.7085e-22
1.50591e-21
-1.73491e-21
7.62778e-22
1.04512e-21
-1.11056e-22
-8.29751e-21
-1.04632e-20
-1.08339e-20
-9.01353e-21
-8.23181e-21
-1.72403e-20
-1.2389e-20
-1.23426e-20
-1.22212e-20
-1.19092e-20
-1.02033e-20
-6.51686e-21
-8.46397e-21
-6.51946e-21
-7.39039e-21
-6.6089e-21
-7.31211e-21
-4.38084e-21
-3.93617e-21
-3.82791e-21
-3.38928e-21
-5.98112e-21
-5.80701e-21
-7.91605e-21
-5.54994e-21
-2.67028e-21
-1.39932e-21
-3.15767e-21
-4.7365e-21
-2.97849e-21
-5.07682e-21
-3.31199e-21
-2.1075e-21
-3.58887e-21
-2.98846e-21
2.23523e-22
9.53527e-22
8.2226e-22
1.03399e-21
-9.1103e-22
-6.8443e-21
-9.53498e-21
-1.12294e-20
-9.3915e-21
-7.32304e-21
-1.45052e-20
-1.38118e-20
-1.03045e-20
-9.96749e-21
-9.66607e-21
-9.63363e-21
-9.16492e-21
-9.70939e-21
-5.1117e-21
-7.43986e-21
-7.2059e-21
-5.17561e-21
-1.74613e-22
-9.32461e-22
-5.68435e-21
-3.55292e-21
-7.94428e-21
-8.37009e-21
-6.63816e-21
-5.52683e-21
-4.41964e-21
-3.14369e-21
-7.07694e-22
-2.57636e-21
-2.7336e-21
-6.02537e-21
-3.68351e-21
-4.30034e-21
-2.29354e-21
-1.3888e-21
2.04801e-22
1.13485e-21
-2.07523e-21
-9.94038e-22
-1.93237e-22
-4.80513e-21
-8.64804e-21
-1.1823e-20
-7.05727e-21
-7.11997e-21
-1.22401e-20
-1.0846e-20
-9.98097e-21
-9.50543e-21
-9.26801e-21
-6.11259e-21
-9.39108e-21
-1.00943e-20
-9.55155e-21
-3.731e-21
-3.33362e-21
-3.30113e-21
-3.84851e-21
-3.49746e-21
-4.89552e-21
-4.89856e-21
-4.84628e-21
-7.71789e-21
-8.23956e-21
-3.40895e-21
-1.59565e-21
-2.71941e-21
-8.69904e-22
-7.78548e-22
-4.16289e-21
-6.1132e-21
-3.94651e-21
-6.0098e-21
-1.96436e-21
-2.18844e-21
2.15613e-22
1.89586e-21
2.29788e-21
2.59765e-22
-8.34452e-22
-5.79035e-21
-8.5087e-21
-1.02358e-20
-5.7905e-21
-5.81864e-21
-1.38958e-20
-1.05591e-20
-6.07299e-21
-9.70068e-21
-9.43744e-21
-6.2607e-21
-6.46606e-21
-7.038e-21
-7.10482e-21
-6.9655e-21
-3.35674e-21
-3.69998e-21
-1.75924e-21
-4.72025e-21
-4.51811e-21
-2.59599e-21
-5.34042e-21
-6.8324e-21
-1.01764e-20
-6.88093e-21
-1.37563e-21
-8.12246e-22
9.69926e-22
-2.46798e-21
-2.87241e-21
-2.40914e-21
-3.2805e-21
-3.51306e-21
-1.04984e-21
-1.42704e-22
-1.99057e-21
-2.06215e-21
-6.82466e-22
3.17615e-21
-6.28435e-22
-5.14425e-21
-6.91446e-21
-6.28909e-21
-2.84513e-21
-3.61701e-21
-3.56357e-21
-8.42343e-21
-4.88296e-21
-6.86374e-21
-6.25013e-21
-2.36326e-21
-2.38873e-21
-5.67404e-21
-4.32458e-21
-4.07537e-21
-2.99778e-21
-1.04121e-21
1.58487e-22
-4.83799e-21
-1.05066e-21
-4.94697e-21
-6.55174e-21
-6.01882e-21
-4.35851e-21
-4.10162e-21
-9.25027e-22
-5.29217e-22
-3.27468e-22
-6.86979e-22
9.18451e-22
-6.61189e-22
-1.22601e-21
-2.25001e-21
-2.13911e-21
1.43308e-22
-6.06498e-21
-2.65509e-21
-1.68459e-21
1.35004e-21
1.36051e-21
-4.89354e-21
-9.00687e-21
-1.31952e-20
-9.41699e-21
-8.96224e-21
-1.13521e-20
-7.3628e-21
-4.29422e-21
-1.22862e-20
-1.13338e-20
-5.26162e-21
-7.54897e-21
-8.90686e-21
-4.5828e-21
-6.06056e-21
-8.6017e-21
-5.21632e-21
2.82412e-22
-2.32345e-21
-6.04511e-21
-3.35473e-21
-2.47694e-21
-4.02028e-21
-3.42035e-21
-2.5392e-21
-3.14864e-21
-3.42144e-21
-3.14043e-21
-5.15911e-21
-5.20586e-21
-6.10622e-21
-7.59114e-22
2.07687e-22
1.01932e-23
-3.30862e-21
-4.95334e-21
4.99694e-23
-1.84373e-21
-1.97365e-21
4.48124e-22
-8.37506e-21
-1.33895e-20
-1.79258e-20
-1.47315e-20
-1.19403e-20
-1.47606e-20
-1.31379e-20
-8.64135e-21
-9.11032e-21
-1.65812e-20
-1.23703e-20
-1.19805e-20
-1.18742e-20
-8.37024e-21
-8.87979e-21
-8.62694e-21
-6.94985e-21
-4.61996e-21
-5.56545e-21
-6.79404e-21
-4.253e-21
-4.12463e-21
-6.62446e-21
-9.21549e-21
-3.58223e-21
-2.77159e-21
-2.62754e-21
-2.49634e-21
-8.30583e-21
-3.74404e-21
-1.25823e-21
-8.77814e-22
-1.86362e-21
-1.56351e-21
-6.43706e-21
-3.70384e-21
1.42784e-21
2.86472e-21
2.30335e-22
-2.94734e-22
-1.19732e-20
-1.46383e-20
-1.40293e-20
-1.57018e-20
-1.43505e-20
-1.34306e-20
-1.41312e-20
-1.15363e-20
-1.40427e-20
-1.60047e-20
-1.29201e-20
-1.30323e-20
-9.38853e-21
-5.45395e-21
-9.76962e-21
-8.83628e-21
-9.10053e-21
-7.8271e-21
-2.45965e-21
-8.18061e-21
-5.86907e-21
-3.19101e-21
-3.93761e-21
-6.56123e-21
-6.52152e-21
-3.68904e-21
-4.7172e-21
-4.45386e-21
-4.0105e-21
-4.01751e-21
-6.12195e-21
-2.56215e-21
-5.49047e-22
-1.04071e-21
-4.24803e-21
-2.17796e-21
1.77774e-21
4.95727e-22
-5.76655e-22
8.5658e-22
-1.64022e-20
-1.53959e-20
-1.47475e-20
-1.921e-20
-1.61842e-20
-1.44809e-20
-1.49277e-20
-1.26259e-20
-1.34525e-20
-1.32144e-20
-1.37846e-20
-1.47569e-20
-1.08836e-20
-8.28953e-21
-1.0018e-20
-8.31208e-21
-7.94366e-21
-6.59191e-21
-4.72254e-21
-4.1108e-21
-7.26375e-21
-6.52863e-21
-6.58341e-21
-6.8089e-21
-5.75786e-21
-4.6981e-21
-4.57575e-21
-3.73094e-21
-3.54132e-21
-4.68675e-21
-4.17773e-21
-2.90592e-24
-3.36676e-21
-2.70327e-21
-2.96423e-21
-1.53867e-21
1.81468e-21
1.33162e-22
-9.67507e-22
-4.44099e-22
-1.70703e-20
-1.65757e-20
-1.51997e-20
-1.73731e-20
-1.89305e-20
-1.87206e-20
-1.41398e-20
-1.17385e-20
-9.88961e-21
-1.51314e-20
-1.45602e-20
-1.42364e-20
-9.08296e-21
-9.90538e-21
-1.34143e-20
-1.31276e-20
-7.8606e-21
-5.59073e-21
-4.38287e-21
-4.57356e-21
-6.95157e-21
-7.6132e-21
-5.97973e-21
-7.8912e-21
-7.21281e-21
-4.33152e-21
-5.4037e-21
-5.03639e-21
-2.53294e-21
-2.05135e-21
-3.15967e-21
-3.31849e-21
-1.59829e-21
-1.68048e-21
-2.36837e-21
-1.0623e-21
1.06889e-21
-4.28316e-23
-3.89311e-22
-1.41675e-21
-1.59893e-20
-1.89945e-20
-1.55968e-20
-1.63277e-20
-1.84062e-20
-2.02146e-20
-1.31476e-20
-1.58447e-20
-1.61983e-20
-1.47012e-20
-1.35392e-20
-1.45918e-20
-1.25146e-20
-1.03887e-20
-1.37593e-20
-1.12629e-20
-8.50574e-21
-5.59658e-21
-4.13467e-21
-4.11563e-21
-6.63791e-21
-8.36062e-21
-7.46798e-21
-7.27779e-21
-7.49059e-21
-5.67884e-21
-4.3137e-21
-3.0983e-21
-4.14082e-21
-4.02626e-21
-3.48775e-21
-2.2467e-21
2.95482e-22
-3.28837e-21
-3.43285e-21
-1.09568e-21
-8.29326e-23
1.48015e-21
1.27337e-21
-1.89696e-21
-1.8988e-20
-2.22915e-20
-1.84878e-20
-1.80228e-20
-1.91571e-20
-1.79121e-20
-1.65459e-20
-1.68421e-20
-1.72996e-20
-1.63563e-20
-1.564e-20
-1.49979e-20
-1.169e-20
-1.09165e-20
-1.4638e-20
-9.93508e-21
-5.90473e-21
-4.27186e-21
-6.93289e-21
-4.93162e-21
-5.79391e-21
-6.71092e-21
-8.25573e-21
-9.81483e-21
-7.38309e-21
-6.13781e-21
-5.69041e-21
-3.59695e-21
-2.92633e-21
-1.46738e-21
-3.65257e-21
-4.74046e-21
1.30947e-21
-1.45961e-22
-3.87525e-21
-2.75714e-21
-2.05116e-22
3.65527e-22
-1.91387e-21
-3.31567e-21
-1.92693e-20
-2.09259e-20
-1.89884e-20
-1.99552e-20
-2.06193e-20
-1.53036e-20
-1.77024e-20
-1.89156e-20
-1.88814e-20
-1.85123e-20
-1.67001e-20
-1.45574e-20
-1.12685e-20
-1.11453e-20
-1.34342e-20
-1.12368e-20
-6.68904e-21
-5.33913e-21
-5.73523e-21
-3.28459e-21
-4.82079e-21
-9.46535e-21
-8.75724e-21
-8.57189e-21
-8.92053e-21
-6.10611e-21
-4.4934e-21
-4.93709e-21
-1.42423e-21
-2.0561e-21
-5.79297e-21
-2.94354e-21
-2.02634e-21
-1.83319e-21
-2.34492e-21
-1.82999e-21
-7.1531e-23
6.48236e-22
-2.84275e-21
-2.96678e-22
-2.06136e-20
-2.37207e-20
-2.1781e-20
-2.07871e-20
-2.00642e-20
-1.82875e-20
-1.90191e-20
-1.85654e-20
-1.90967e-20
-1.8756e-20
-1.57855e-20
-1.64889e-20
-1.09566e-20
-1.0581e-20
-1.40534e-20
-1.09978e-20
-9.33476e-21
-4.91043e-21
-5.63405e-21
-6.30248e-21
-3.37584e-21
-1.01899e-20
-1.00429e-20
-1.06722e-20
-6.8973e-21
-4.36644e-21
-5.00073e-21
-4.29364e-21
8.61749e-22
-6.27222e-21
-4.91557e-21
-2.92211e-21
-2.15311e-21
-1.02234e-21
-1.68161e-21
-5.97421e-22
-8.16876e-22
-3.9094e-22
-3.68949e-22
-1.22716e-21
-2.08772e-20
-2.12486e-20
-1.97477e-20
-2.29672e-20
-2.29448e-20
-2.18228e-20
-2.25013e-20
-1.87733e-20
-1.55189e-20
-1.75634e-20
-1.75453e-20
-1.48093e-20
-1.35061e-20
-1.25824e-20
-1.32008e-20
-1.08284e-20
-7.69889e-21
-6.55237e-21
-3.31659e-21
-3.4147e-21
-8.93685e-21
-1.24423e-20
-1.15476e-20
-1.02764e-20
-5.904e-21
-4.59348e-21
-4.36038e-21
-2.82963e-21
-3.91758e-21
-5.68399e-21
-2.27341e-21
-2.38687e-21
-3.67978e-21
-1.30076e-21
-2.02114e-21
-2.70568e-22
1.13567e-21
-5.225e-22
-1.94972e-22
1.89041e-22
-2.15761e-20
-2.3353e-20
-2.34665e-20
-2.27501e-20
-2.20461e-20
-2.07679e-20
-2.17577e-20
-2.20099e-20
-1.82243e-20
-1.75877e-20
-1.44148e-20
-1.28797e-20
-1.22009e-20
-1.05828e-20
-1.37692e-20
-1.3272e-20
-8.10685e-21
-6.61815e-21
-3.03315e-21
-5.44417e-21
-1.07927e-20
-1.09767e-20
-1.23514e-20
-1.25705e-20
-5.39457e-21
-4.19223e-21
-3.86603e-21
-4.45945e-21
-4.22331e-21
-4.35367e-21
-2.93179e-21
-2.44769e-21
-2.45598e-21
-2.1414e-21
-1.91992e-21
-2.61254e-22
-9.42076e-22
-2.29937e-21
-7.4717e-22
-1.0062e-21
-2.32198e-20
-2.59731e-20
-2.21522e-20
-2.12586e-20
-2.03251e-20
-2.31676e-20
-2.18715e-20
-2.00449e-20
-1.65381e-20
-1.92171e-20
-1.61525e-20
-1.45234e-20
-1.31027e-20
-1.12594e-20
-1.41491e-20
-1.60354e-20
-9.09268e-21
-4.88385e-21
-3.10217e-21
-5.85727e-21
-9.45941e-21
-1.21455e-20
-1.14803e-20
-1.20417e-20
-3.34853e-21
-5.60061e-21
-4.769e-21
-3.78036e-21
-2.11784e-21
-4.69095e-21
-3.18299e-21
-2.58768e-21
-2.44044e-21
-1.74837e-21
-1.71985e-21
-1.34063e-21
-1.73174e-22
-1.6923e-21
-1.00262e-21
1.21118e-21
-2.50737e-20
-2.50647e-20
-2.16663e-20
-2.37309e-20
-2.17706e-20
-2.40309e-20
-2.08906e-20
-1.97585e-20
-2.01304e-20
-1.71823e-20
-1.38208e-20
-1.5144e-20
-1.52631e-20
-1.35021e-20
-1.33655e-20
-1.18058e-20
-7.57868e-21
-6.4436e-21
-6.30062e-21
-6.60764e-21
-8.84227e-21
-8.68841e-21
-1.06442e-20
-9.68409e-21
-5.4163e-21
-2.78459e-21
-3.70595e-21
-3.39567e-21
-3.36605e-21
-2.09735e-21
-3.43069e-21
-3.56575e-21
-1.7582e-21
-1.36255e-21
-7.04076e-21
-1.03772e-22
1.62845e-21
-4.22575e-21
-2.94995e-21
4.96034e-22
-2.70537e-20
-2.66439e-20
-2.28378e-20
-2.37082e-20
-2.22456e-20
-2.1067e-20
-2.15377e-20
-1.91606e-20
-1.98534e-20
-1.94193e-20
-1.50344e-20
-1.28952e-20
-1.77166e-20
-1.24903e-20
-1.33331e-20
-1.2098e-20
-1.1818e-20
-7.41593e-21
-4.89559e-21
-2.57817e-21
-9.40261e-21
-9.78355e-21
-1.07049e-20
-9.879e-21
-3.97349e-21
-1.6554e-21
-2.78803e-21
-3.99565e-21
-4.40918e-21
-2.87837e-21
-3.77591e-21
-2.99062e-21
-1.398e-21
-3.13503e-21
-5.61888e-21
-9.91147e-22
-3.57832e-22
1.18603e-21
-5.44467e-22
3.43092e-22
-2.87517e-20
-2.56633e-20
-2.15229e-20
-2.06255e-20
-2.17383e-20
-1.97438e-20
-2.21103e-20
-2.05708e-20
-2.02803e-20
-1.67527e-20
-1.47411e-20
-1.71672e-20
-1.7503e-20
-1.38506e-20
-1.30755e-20
-1.14529e-20
-8.57752e-21
-7.09546e-21
-8.30579e-21
-7.38249e-21
-7.09232e-21
-9.63745e-21
-1.20058e-20
-7.80004e-21
-3.82026e-21
-3.15254e-21
-3.39899e-21
-2.51473e-21
-3.40054e-21
-2.13021e-21
-4.43197e-21
-3.30887e-21
-2.32134e-21
-1.19899e-21
-5.20536e-21
-2.98571e-21
2.10662e-21
-8.5703e-22
-1.28906e-21
-2.40767e-22
-2.47861e-20
-2.60588e-20
-2.34727e-20
-2.30256e-20
-2.16896e-20
-2.0579e-20
-2.19394e-20
-2.06195e-20
-1.90127e-20
-1.52123e-20
-1.68446e-20
-1.89933e-20
-1.90571e-20
-1.32222e-20
-1.1825e-20
-1.32816e-20
-7.52126e-21
-7.97659e-21
-8.31876e-21
-5.80064e-21
-8.84773e-21
-1.10936e-20
-1.13354e-20
-6.07906e-21
-4.51227e-21
-3.7015e-21
-3.14109e-21
-1.69656e-21
-3.76663e-21
-2.62418e-21
-2.6221e-21
-2.41358e-21
-1.68238e-21
-2.44828e-21
-4.32854e-21
-1.65522e-21
3.07892e-22
-2.02839e-21
-1.4862e-21
-1.11037e-21
-2.23015e-20
-2.26965e-20
-2.43232e-20
-2.10686e-20
-2.39781e-20
-2.27038e-20
-2.25459e-20
-2.20271e-20
-1.93474e-20
-1.43458e-20
-1.55316e-20
-1.77337e-20
-1.71899e-20
-1.56467e-20
-1.33984e-20
-9.00157e-21
-5.93289e-21
-7.03298e-21
-1.11067e-20
-9.64082e-21
-1.11026e-20
-7.37096e-21
-7.23609e-21
-5.70991e-21
-3.4033e-21
-3.97804e-21
-2.64566e-21
-2.82364e-21
-4.04577e-21