/*--------------------------------*- C++ -*----------------------------------*\
| =========                 |                                                 |
| \\      /  F ield         | OpenFOAM: The Open Source CFD Toolbox           |
|  \\    /   O peration     | Version:  v2012                                 |
|   \\  /    A nd           | Website:  www.openfoam.com                      |
|    \\/     M anipulation  |                                                 |
\*---------------------------------------------------------------------------*/
FoamFile
{
    version     2.0;
    format      ascii;
    class       surfaceScalarField;
    location    "34";
    object      phi;
}
// * * * * * * * * * * * * * * * * * * * * * * * * * * * * * * * * * * * * * //

dimensions      [0 3 -1 0 0 0 0];
oriented        oriented;


internalField   nonuniform List<scalar> 
187200
(
1.875e-06
2.32571e-22
1.70951e-22
1.875e-06
3.84039e-22
2.92005e-22
1.875e-06
4.2927e-22
4.70601e-22
1.875e-06
3.26474e-22
3.54573e-22
1.875e-06
3.31487e-22
2.61207e-22
1.875e-06
4.52654e-22
4.0614e-22
1.875e-06
3.78701e-22
3.13855e-22
1.875e-06
2.84129e-22
2.6478e-22
1.875e-06
2.1579e-22
3.95081e-22
1.875e-06
3.40938e-22
3.89447e-22
1.875e-06
4.19311e-22
2.43936e-22
1.875e-06
3.33258e-22
3.07096e-22
1.875e-06
2.41727e-22
2.75187e-22
1.875e-06
1.6942e-22
1.37081e-22
1.875e-06
1.8363e-22
2.32199e-22
1.875e-06
1.39871e-22
2.57731e-22
1.875e-06
1.83729e-22
2.32833e-22
1.875e-06
6.40988e-23
1.10469e-22
1.875e-06
5.05958e-23
1.04005e-22
1.875e-06
1.45957e-22
1.83091e-22
1.875e-06
6.27175e-23
1.41611e-22
1.875e-06
1.46535e-22
1.43231e-22
1.875e-06
2.20647e-22
1.25368e-22
1.875e-06
3.39474e-22
1.38258e-22
1.875e-06
1.50182e-22
3.94569e-23
1.875e-06
1.43227e-22
1.08268e-22
1.875e-06
1.84213e-22
1.84077e-22
1.875e-06
1.12199e-22
5.3313e-23
1.875e-06
1.12325e-22
1.42074e-22
1.875e-06
3.25656e-23
1.62276e-22
1.875e-06
-1.16885e-22
1.41877e-22
1.875e-06
6.11874e-24
1.14797e-22
1.875e-06
1.43839e-22
-1.97509e-24
1.875e-06
6.45626e-23
9.82922e-24
1.875e-06
-4.348e-24
7.35359e-23
1.875e-06
-8.7034e-23
6.22011e-24
1.875e-06
-4.76547e-23
-1.99808e-23
1.875e-06
-9.84589e-23
1.4744e-22
1.875e-06
-6.39159e-23
1.48151e-22
2.46969e-24
7.11118e-23
1.875e-06
7.00167e-23
2.99252e-22
1.875e-06
9.00115e-23
5.0959e-22
1.875e-06
2.69826e-22
7.04049e-22
1.875e-06
3.33439e-22
7.05743e-22
1.875e-06
2.56905e-22
5.8263e-22
1.875e-06
3.05518e-22
6.48074e-22
1.875e-06
3.42467e-22
6.94273e-22
1.875e-06
3.56839e-22
6.49422e-22
1.875e-06
4.30389e-22
6.98694e-22
1.875e-06
3.02447e-22
7.75277e-22
1.875e-06
1.94238e-22
5.80237e-22
1.875e-06
1.99151e-22
5.43335e-22
1.875e-06
2.57705e-22
6.12191e-22
1.875e-06
1.55601e-22
5.12442e-22
1.875e-06
8.00747e-23
5.00495e-22
1.875e-06
4.74919e-23
4.87462e-22
1.875e-06
2.85641e-22
4.62886e-22
1.875e-06
3.1138e-22
5.1542e-22
1.875e-06
5.06309e-23
4.4317e-22
1.875e-06
1.35179e-24
2.92902e-22
1.875e-06
2.39929e-22
3.57356e-22
1.875e-06
2.27759e-22
3.06025e-22
1.875e-06
1.64167e-22
2.37555e-22
1.875e-06
1.13697e-22
2.19461e-22
1.875e-06
9.83152e-23
1.62397e-22
1.875e-06
1.16321e-22
1.68428e-22
1.875e-06
1.10006e-22
1.72303e-22
1.875e-06
5.85116e-23
1.15669e-22
1.875e-06
-1.74331e-23
2.88211e-22
1.875e-06
3.28453e-23
2.13428e-22
1.875e-06
1.01677e-22
1.74238e-22
1.875e-06
6.38824e-23
1.07705e-22
1.875e-06
-2.90884e-23
-3.16767e-23
1.875e-06
-6.45023e-23
1.52522e-23
1.875e-06
2.06624e-23
1.90013e-22
1.875e-06
3.63539e-23
1.06561e-22
1.875e-06
-1.36911e-22
-2.74621e-23
1.875e-06
-1.00844e-22
3.13554e-23
1.875e-06
-8.49375e-23
8.68293e-23
-1.32993e-22
3.53439e-23
1.875e-06
1.75682e-22
4.02967e-22
1.875e-06
1.40066e-22
6.51786e-22
1.875e-06
1.1119e-22
6.82562e-22
1.875e-06
2.97077e-22
8.13194e-22
1.875e-06
3.36258e-22
8.05661e-22
1.875e-06
3.37022e-22
7.51263e-22
1.875e-06
2.71655e-22
8.37118e-22
1.875e-06
2.72739e-22
8.45576e-22
1.875e-06
2.77884e-22
8.60879e-22
1.875e-06
2.6776e-22
8.72026e-22
1.875e-06
2.42037e-22
8.07537e-22
1.875e-06
2.34964e-22
7.43402e-22
1.875e-06
1.91569e-22
6.0087e-22
1.875e-06
1.56078e-22
5.39017e-22
1.875e-06
2.20316e-22
6.59959e-22
1.875e-06
2.89127e-22
6.60232e-22
1.875e-06
1.15555e-22
4.83024e-22
1.875e-06
1.82839e-22
5.63695e-22
1.875e-06
1.50283e-22
5.1818e-22
1.875e-06
9.91001e-23
4.43271e-22
1.875e-06
6.41392e-23
3.29713e-22
1.875e-06
9.26083e-23
2.04383e-22
1.875e-06
2.10608e-22
1.58303e-22
1.875e-06
1.98726e-22
2.10687e-22
1.875e-06
2.43644e-22
3.42642e-22
1.875e-06
3.9248e-23
2.90662e-22
1.875e-06
1.42925e-23
2.73903e-22
1.875e-06
-1.57975e-23
2.24138e-22
1.875e-06
2.54771e-23
2.60072e-22
1.875e-06
2.81111e-23
2.33415e-22
1.875e-06
-2.90282e-23
2.77707e-22
1.875e-06
-7.05639e-24
1.10952e-22
1.875e-06
-4.11e-23
-1.34852e-23
1.875e-06
-7.49548e-25
7.8182e-23
1.875e-06
8.05529e-25
1.16984e-22
1.875e-06
-5.24558e-23
-6.95916e-23
1.875e-06
-1.00084e-23
3.17479e-23
1.875e-06
2.23789e-23
1.87459e-22
1.875e-06
2.2182e-23
1.43816e-22
-3.94149e-24
5.99535e-23
1.875e-06
2.53476e-22
4.30457e-22
1.875e-06
1.81579e-22
7.2482e-22
1.875e-06
1.13924e-22
8.19317e-22
1.875e-06
1.1522e-22
9.00142e-22
1.875e-06
1.70422e-22
8.37263e-22
1.875e-06
1.95603e-22
8.0175e-22
1.875e-06
2.06643e-22
8.8257e-22
1.875e-06
1.77732e-22
9.17256e-22
1.875e-06
2.20395e-22
9.1212e-22
1.875e-06
2.84179e-22
8.77354e-22
1.875e-06
2.55522e-22
9.1461e-22
1.875e-06
1.67738e-22
8.1898e-22
1.875e-06
1.41394e-22
6.76317e-22
1.875e-06
1.57311e-22
7.16971e-22
1.875e-06
3.33218e-22
6.84805e-22
1.875e-06
4.2425e-22
5.88882e-22
1.875e-06
1.74189e-22
5.26611e-22
1.875e-06
2.24921e-23
5.32683e-22
1.875e-06
2.05451e-22
6.19415e-22
1.875e-06
8.1398e-23
3.71089e-22
1.875e-06
7.25173e-23
3.5218e-22
1.875e-06
1.61982e-22
2.86766e-22
1.875e-06
1.46683e-22
2.00305e-22
1.875e-06
1.09194e-22
2.23692e-22
1.875e-06
7.10257e-23
2.64554e-22
1.875e-06
1.53935e-22
4.13149e-22
1.875e-06
6.33479e-23
3.38462e-22
1.875e-06
1.3168e-23
2.58364e-22
1.875e-06
3.34359e-23
2.35768e-22
1.875e-06
-7.67771e-23
2.33953e-22
1.875e-06
-2.9772e-23
2.68908e-22
1.875e-06
-3.45765e-23
7.18901e-23
1.875e-06
-5.33252e-23
1.30262e-22
1.875e-06
-2.82571e-23
1.19057e-22
1.875e-06
-3.07939e-23
5.27391e-23
1.875e-06
-3.74582e-23
-6.19254e-23
1.875e-06
9.40129e-23
1.55966e-23
1.875e-06
9.2819e-23
1.07171e-22
1.875e-06
-5.89377e-23
7.03685e-23
4.71503e-23
6.38474e-23
1.875e-06
-8.53913e-23
2.7676e-22
1.875e-06
1.04839e-22
7.90261e-22
1.875e-06
8.60563e-23
8.97156e-22
1.875e-06
1.18356e-22
9.39789e-22
1.875e-06
1.48255e-22
9.85545e-22
1.875e-06
8.45877e-23
9.45539e-22
1.875e-06
1.03833e-22
9.64199e-22
1.875e-06
3.65959e-22
1.01246e-21
1.875e-06
3.53915e-22
8.7808e-22
1.875e-06
2.35996e-22
8.96045e-22
1.875e-06
2.1871e-22
9.2386e-22
1.875e-06
1.90502e-22
8.63288e-22
1.875e-06
1.87235e-22
7.28494e-22
1.875e-06
2.01555e-22
7.98795e-22
1.875e-06
1.85172e-22
7.4054e-22
1.875e-06
1.60668e-22
5.82764e-22
1.875e-06
1.25587e-22
5.34494e-22
1.875e-06
1.14767e-22
5.82584e-22
1.875e-06
1.07831e-22
5.03253e-22
1.875e-06
1.75743e-22
4.12347e-22
1.875e-06
4.53131e-23
3.65862e-22
1.875e-06
9.22346e-24
3.01502e-22
1.875e-06
1.39751e-22
1.69274e-22
1.875e-06
1.75406e-22
2.71012e-22
1.875e-06
2.05401e-22
3.75511e-22
1.875e-06
7.55593e-23
4.18544e-22
1.875e-06
1.08297e-22
3.79785e-22
1.875e-06
-5.98773e-24
2.92675e-22
1.875e-06
-8.97345e-23
1.57031e-22
1.875e-06
2.16452e-23
1.76272e-22
1.875e-06
7.69314e-23
2.0618e-22
1.875e-06
1.35104e-22
2.15072e-22
1.875e-06
6.49037e-23
1.43111e-22
1.875e-06
-3.64119e-23
1.28061e-22
1.875e-06
-3.37859e-23
3.74757e-23
1.875e-06
-1.10917e-22
-4.15222e-23
1.875e-06
7.98977e-23
-2.82805e-23
1.875e-06
6.15021e-23
2.71553e-23
1.875e-06
6.94327e-23
9.94765e-23
-3.64614e-23
3.84005e-23
1.875e-06
7.45709e-23
4.47325e-22
1.875e-06
1.41377e-22
9.1264e-22
1.875e-06
1.81034e-22
9.24016e-22
1.875e-06
8.74968e-23
9.03611e-22
1.875e-06
1.09362e-22
1.00981e-21
1.875e-06
1.39218e-22
1.09579e-21
1.875e-06
1.71208e-22
1.05719e-21
1.875e-06
2.36484e-22
1.04883e-21
1.875e-06
3.04616e-22
9.86824e-22
1.875e-06
2.45315e-22
9.12378e-22
1.875e-06
2.03188e-22
9.1352e-22
1.875e-06
1.83151e-22
9.21321e-22
1.875e-06
1.43203e-22
8.6523e-22
1.875e-06
2.61417e-22
8.50943e-22
1.875e-06
1.87172e-22
7.89457e-22
1.875e-06
8.69026e-23
6.05467e-22
1.875e-06
1.00924e-22
5.7054e-22
1.875e-06
3.2868e-23
5.30648e-22
1.875e-06
6.38377e-23
4.67299e-22
1.875e-06
8.40609e-23
3.35866e-22
1.875e-06
9.15342e-23
3.74101e-22
1.875e-06
1.71686e-22
3.81263e-22
1.875e-06
1.93806e-22
2.2331e-22
1.875e-06
8.67903e-23
2.40709e-22
1.875e-06
2.05189e-23
3.09194e-22
1.875e-06
2.18585e-22
4.12275e-22
1.875e-06
1.46483e-22
3.47094e-22
1.875e-06
-4.11492e-23
2.41823e-22
1.875e-06
-5.27741e-23
2.18219e-22
1.875e-06
-7.16276e-23
1.92505e-22
1.875e-06
9.40137e-23
1.71478e-22
1.875e-06
7.14303e-23
1.43598e-22
1.875e-06
1.81594e-23
8.2934e-23
1.875e-06
9.86595e-24
1.80712e-22
1.875e-06
-7.97372e-24
9.38264e-23
1.875e-06
1.38527e-22
6.24692e-23
1.875e-06
-2.03348e-23
-3.48703e-23
1.875e-06
9.5539e-24
-3.29434e-23
1.875e-06
5.38912e-23
-2.44348e-23
9.8993e-23
9.48459e-23
1.875e-06
1.13881e-22
4.84092e-22
1.875e-06
1.39089e-22
9.17913e-22
1.875e-06
1.61099e-22
1.0112e-21
1.875e-06
8.23036e-23
1.02586e-21
1.875e-06
9.93032e-23
1.06049e-21
1.875e-06
9.05104e-23
1.0961e-21
1.875e-06
1.85731e-22
1.1476e-21
1.875e-06
3.57633e-22
1.10795e-21
1.875e-06
2.70058e-22
1.061e-21
1.875e-06
2.0772e-22
1.04047e-21
1.875e-06
1.49016e-22
1.01401e-21
1.875e-06
9.35013e-23
9.19491e-22
1.875e-06
1.67957e-22
8.50533e-22
1.875e-06
2.14705e-22
8.21605e-22
1.875e-06
1.36153e-22
8.53116e-22
1.875e-06
1.14482e-22
6.30471e-22
1.875e-06
6.34197e-23
5.02538e-22
1.875e-06
1.26541e-22
4.77576e-22
1.875e-06
1.73934e-22
5.41184e-22
1.875e-06
5.74407e-23
3.14253e-22
1.875e-06
6.87943e-23
3.83324e-22
1.875e-06
1.38949e-22
3.16026e-22
1.875e-06
3.34861e-23
1.97089e-22
1.875e-06
3.7189e-23
3.43282e-22
1.875e-06
9.09065e-23
3.83664e-22
1.875e-06
9.28726e-23
3.28374e-22
1.875e-06
-8.0332e-24
2.85975e-22
1.875e-06
2.72815e-23
3.06389e-22
1.875e-06
3.57579e-23
2.18905e-22
1.875e-06
3.31239e-23
1.67987e-22
1.875e-06
4.33872e-23
1.43689e-22
1.875e-06
2.2024e-23
1.54194e-22
1.875e-06
-1.97707e-24
1.24777e-23
1.875e-06
8.73514e-23
1.23465e-22
1.875e-06
1.48212e-22
1.16604e-22
1.875e-06
1.14661e-22
1.69251e-23
1.875e-06
2.08179e-23
-4.55559e-23
1.875e-06
-1.8e-23
-4.98642e-23
1.875e-06
8.25068e-24
5.7305e-23
-1.16382e-23
1.06449e-22
1.875e-06
1.56641e-22
4.4133e-22
1.875e-06
1.59532e-22
8.18159e-22
1.875e-06
1.81862e-23
9.52187e-22
1.875e-06
7.64451e-23
1.16859e-21
1.875e-06
1.50905e-22
1.22329e-21
1.875e-06
2.96403e-22
1.13043e-21
1.875e-06
2.96793e-22
1.17449e-21
1.875e-06
8.63102e-23
1.07997e-21
1.875e-06
1.03512e-22
1.08278e-21
1.875e-06
1.97151e-22
1.10133e-21
1.875e-06
6.35971e-23
1.07477e-21
1.875e-06
6.46091e-23
9.79555e-22
1.875e-06
1.35411e-22
8.03589e-22
1.875e-06
1.34205e-22
7.67471e-22
1.875e-06
2.46694e-22
8.20697e-22
1.875e-06
1.35279e-22
6.96914e-22
1.875e-06
8.20902e-23
5.70024e-22
1.875e-06
2.06079e-23
4.88757e-22
1.875e-06
9.27319e-23
3.42439e-22
1.875e-06
1.70356e-22
2.40761e-22
1.875e-06
1.14581e-22
3.51196e-22
1.875e-06
7.71085e-23
3.51457e-22
1.875e-06
1.02036e-22
3.08336e-22
1.875e-06
1.15337e-22
4.1434e-22
1.875e-06
-3.14124e-24
4.34042e-22
1.875e-06
-3.85841e-23
3.09444e-22
1.875e-06
5.31579e-23
2.86896e-22
1.875e-06
1.06389e-22
3.26592e-22
1.875e-06
-2.43095e-24
1.13581e-22
1.875e-06
1.14269e-22
1.62774e-22
1.875e-06
-1.06281e-23
1.89032e-22
1.875e-06
-7.00008e-23
1.23688e-22
1.875e-06
-3.0746e-23
1.913e-22
1.875e-06
4.18565e-23
8.82985e-23
1.875e-06
7.89281e-23
-1.87944e-23
1.875e-06
-3.71739e-24
-1.88966e-22
1.875e-06
-4.54235e-24
-1.35761e-22
1.875e-06
1.32072e-23
-1.39424e-23
1.875e-06
1.51817e-23
7.22463e-23
1.66036e-23
-1.20437e-23
1.875e-06
-2.5072e-22
3.55655e-22
1.875e-06
-1.08837e-22
8.19791e-22
1.875e-06
1.3186e-22
1.11412e-21
1.875e-06
1.6827e-22
1.24898e-21
1.875e-06
2.09151e-22
1.18948e-21
1.875e-06
2.18959e-22
1.17725e-21
1.875e-06
2.11773e-22
1.18274e-21
1.875e-06
1.36463e-22
1.16886e-21
1.875e-06
1.16106e-22
1.14176e-21
1.875e-06
1.07905e-22
1.08726e-21
1.875e-06
2.06225e-22
1.12181e-21
1.875e-06
8.14895e-23
1.07215e-21
1.875e-06
6.89359e-23
8.20287e-22
1.875e-06
1.48828e-22
7.20138e-22
1.875e-06
1.16991e-22
7.64956e-22
1.875e-06
1.22439e-22
6.7435e-22
1.875e-06
1.74652e-22
6.84241e-22
1.875e-06
2.02995e-22
5.91987e-22
1.875e-06
-1.05598e-22
3.25152e-22
1.875e-06
-5.70005e-23
2.74574e-22
1.875e-06
1.58607e-22
3.42101e-22
1.875e-06
4.45302e-23
4.69187e-22
1.875e-06
7.98296e-23
3.41847e-22
1.875e-06
1.38976e-22
4.12986e-22
1.875e-06
1.65205e-22
4.27218e-22
1.875e-06
1.79267e-23
3.37074e-22
1.875e-06
-1.19144e-22
2.095e-22
1.875e-06
-8.46155e-23
1.92322e-22
1.875e-06
9.24e-23
1.01338e-22
1.875e-06
1.21029e-23
2.00986e-22
1.875e-06
-6.93597e-23
1.84678e-22
1.875e-06
-4.00052e-23
1.85606e-22
1.875e-06
6.18538e-23
2.42587e-22
1.875e-06
2.76382e-23
7.11469e-23
1.875e-06
1.11053e-23
-1.98364e-22
1.875e-06
2.53085e-24
-3.04569e-22
1.875e-06
1.08415e-22
-1.09575e-22
1.875e-06
4.37865e-23
-2.66653e-23
1.875e-06
-1.32058e-24
-3.80624e-23
-4.16455e-23
-5.13813e-23
1.875e-06
1.14771e-23
6.05633e-22
1.875e-06
5.81684e-23
8.66981e-22
1.875e-06
1.47965e-22
1.04452e-21
1.875e-06
2.44289e-22
1.29031e-21
1.875e-06
9.36317e-23
1.31074e-21
1.875e-06
1.16017e-22
1.27812e-21
1.875e-06
2.57238e-22
1.32518e-21
1.875e-06
9.94726e-23
1.23387e-21
1.875e-06
1.17472e-22
1.04188e-21
1.875e-06
1.57492e-22
1.01192e-21
1.875e-06
1.02614e-22
1.04256e-21
1.875e-06
7.35193e-23
1.01017e-21
1.875e-06
4.78857e-23
9.11927e-22
1.875e-06
9.57969e-23
7.8902e-22
1.875e-06
9.75766e-23
7.82857e-22
1.875e-06
2.2322e-22
7.02057e-22
1.875e-06
1.50166e-22
6.01669e-22
1.875e-06
6.58556e-23
5.25927e-22
1.875e-06
-1.89521e-23
4.47694e-22
1.875e-06
-2.25086e-23
3.10983e-22
1.875e-06
1.50385e-22
4.52145e-22
1.875e-06
2.80976e-22
5.86796e-22
1.875e-06
8.5363e-23
4.45828e-22
1.875e-06
3.49501e-23
4.19045e-22
1.875e-06
5.32537e-23
3.56858e-22
1.875e-06
3.34747e-23
3.15756e-22
1.875e-06
-1.22356e-22
2.94115e-22
1.875e-06
-3.55244e-23
2.2138e-22
1.875e-06
9.03445e-24
1.80748e-22
1.875e-06
7.48789e-23
2.35861e-22
1.875e-06
-3.78535e-23
1.68344e-22
1.875e-06
-6.55826e-23
1.84696e-22
1.875e-06
6.76009e-23
1.72556e-22
1.875e-06
3.55175e-24
2.61739e-23
1.875e-06
-1.25762e-22
-2.18678e-22
1.875e-06
-7.89517e-24
-3.21612e-22
1.875e-06
7.80947e-24
-3.52198e-22
1.875e-06
1.12116e-22
-1.35584e-22
1.875e-06
9.13385e-23
-9.00373e-23
4.57972e-23
-1.24281e-22
1.875e-06
8.79808e-23
6.39595e-22
1.875e-06
1.56872e-22
9.50174e-22
1.875e-06
1.33014e-22
1.14652e-21
1.875e-06
7.99934e-23
1.21089e-21
1.875e-06
1.492e-22
1.35047e-21
1.875e-06
2.07003e-22
1.26588e-21
1.875e-06
7.71711e-23
1.19918e-21
1.875e-06
1.5818e-22
1.33152e-21
1.875e-06
4.36411e-23
1.1323e-21
1.875e-06
2.47387e-23
9.51505e-22
1.875e-06
2.15366e-22
9.17264e-22
1.875e-06
1.43063e-22
9.21939e-22
1.875e-06
8.49416e-23
9.32663e-22
1.875e-06
9.30719e-23
7.49259e-22
1.875e-06
1.40126e-22
8.27596e-22
1.875e-06
1.69873e-22
7.19236e-22
1.875e-06
1.30136e-22
6.34056e-22
1.875e-06
3.40544e-23
5.82221e-22
1.875e-06
1.45734e-22
5.23215e-22
1.875e-06
7.22115e-23
4.86372e-22
1.875e-06
4.61835e-23
4.53514e-22
1.875e-06
9.13571e-23
4.13777e-22
1.875e-06
5.82314e-23
5.12035e-22
1.875e-06
3.41949e-23
5.19386e-22
1.875e-06
8.99328e-25
3.23903e-22
1.875e-06
-1.36479e-22
2.3052e-22
1.875e-06
2.8498e-24
3.38733e-22
1.875e-06
3.6066e-23
3.11891e-22
1.875e-06
2.54439e-23
2.24534e-22
1.875e-06
-1.27505e-22
1.6367e-22
1.875e-06
-1.05468e-22
2.43783e-22
1.875e-06
5.05373e-23
2.31644e-22
1.875e-06
1.84668e-23
7.75328e-23
1.875e-06
2.96492e-23
2.76811e-23
1.875e-06
-1.39463e-23
-1.1137e-22
1.875e-06
-1.41802e-22
-3.46075e-22
1.875e-06
-8.06211e-23
-3.17037e-22
1.875e-06
6.1415e-23
-1.16013e-22
1.875e-06
8.41357e-23
-1.6223e-22
9.90965e-23
-1.24308e-22
1.875e-06
1.3608e-22
6.73781e-22
1.875e-06
7.14076e-23
9.99449e-22
1.875e-06
3.23383e-23
1.10623e-21
1.875e-06
1.10015e-22
1.23289e-21
1.875e-06
1.45032e-22
1.28695e-21
1.875e-06
1.90251e-23
1.23703e-21
1.875e-06
7.58438e-23
1.22894e-21
1.875e-06
1.87471e-22
1.21824e-21
1.875e-06
2.36393e-22
1.08341e-21
1.875e-06
6.56667e-23
1.0146e-21
1.875e-06
-2.09973e-23
8.85712e-22
1.875e-06
1.1167e-22
1.00408e-21
1.875e-06
1.91227e-22
9.478e-22
1.875e-06
1.4936e-22
8.43053e-22
1.875e-06
8.94725e-23
8.2205e-22
1.875e-06
-2.93369e-23
7.24291e-22
1.875e-06
5.9465e-23
5.91152e-22
1.875e-06
1.5517e-22
6.20234e-22
1.875e-06
1.44764e-22
4.82554e-22
1.875e-06
1.94437e-22
5.48788e-22
1.875e-06
1.184e-22
5.20567e-22
1.875e-06
-2.49543e-23
4.31441e-22
1.875e-06
-2.60269e-23
4.28623e-22
1.875e-06
-1.54502e-23
4.62397e-22
1.875e-06
-1.26037e-22
2.26455e-22
1.875e-06
-1.01566e-22
3.16359e-22
1.875e-06
-5.93299e-23
2.85201e-22
1.875e-06
2.56247e-23
2.64847e-22
1.875e-06
-3.01163e-23
1.62619e-22
1.875e-06
-6.71548e-23
2.79972e-22
1.875e-06
1.26725e-22
3.47759e-22
1.875e-06
2.1697e-23
2.38931e-22
1.875e-06
-1.22555e-22
6.60198e-23
1.875e-06
2.9312e-23
-4.95578e-23
1.875e-06
1.15748e-22
-1.08441e-22
1.875e-06
-2.59327e-23
-1.79301e-22
1.875e-06
-7.86677e-23
-3.12815e-22
1.875e-06
5.16597e-23
-2.37273e-22
1.875e-06
5.1537e-23
-2.18112e-22
-1.63577e-23
-2.49505e-22
1.875e-06
1.41626e-22
6.25936e-22
1.875e-06
1.97482e-22
1.02238e-21
1.875e-06
1.40634e-22
1.13174e-21
1.875e-06
1.31299e-22
1.30883e-21
1.875e-06
-1.90948e-23
1.27556e-21
1.875e-06
-1.26442e-23
1.3222e-21
1.875e-06
6.54966e-23
1.22394e-21
1.875e-06
3.90421e-23
1.11847e-21
1.875e-06
4.63605e-23
1.0194e-21
1.875e-06
1.04558e-22
9.38567e-22
1.875e-06
4.99714e-23
8.79038e-22
1.875e-06
1.79483e-22
9.8379e-22
1.875e-06
2.09393e-22
1.03089e-21
1.875e-06
1.51033e-22
9.3662e-22
1.875e-06
7.6417e-23
8.10025e-22
1.875e-06
3.70553e-23
6.89983e-22
1.875e-06
4.89075e-23
5.3987e-22
1.875e-06
4.85808e-23
5.96381e-22
1.875e-06
1.12793e-22
6.08056e-22
1.875e-06
1.04251e-22
5.4459e-22
1.875e-06
7.3848e-23
4.96415e-22
1.875e-06
7.92682e-23
4.52354e-22
1.875e-06
5.922e-23
4.6051e-22
1.875e-06
4.19899e-23
4.05401e-22
1.875e-06
-1.35886e-22
3.31324e-22
1.875e-06
-1.81624e-22
2.73242e-22
1.875e-06
-9.73331e-23
2.35133e-22
1.875e-06
1.55073e-23
1.78325e-22
1.875e-06
3.01992e-23
2.05586e-22
1.875e-06
-1.42927e-22
2.18456e-22
1.875e-06
-1.11179e-22
1.85775e-22
1.875e-06
4.78361e-23
2.27281e-22
1.875e-06
4.3654e-23
1.51014e-22
1.875e-06
-3.48899e-23
-8.4434e-23
1.875e-06
3.86374e-24
-1.09666e-22
1.875e-06
8.36246e-25
-3.14007e-22
1.875e-06
-4.04496e-23
-2.99236e-22
1.875e-06
-1.22399e-22
-1.78884e-22
1.875e-06
-1.0194e-22
-1.15733e-22
-2.08922e-24
-1.30032e-22
1.875e-06
-1.5077e-22
5.64569e-22
1.875e-06
1.38916e-23
9.48672e-22
1.875e-06
1.37618e-22
1.15646e-21
1.875e-06
1.45917e-24
1.26404e-21
1.875e-06
-3.50443e-23
1.34807e-21
1.875e-06
6.74727e-24
1.28821e-21
1.875e-06
1.44005e-22
1.22078e-21
1.875e-06
2.61468e-22
1.21901e-21
1.875e-06
7.95421e-23
1.05445e-21
1.875e-06
-7.79532e-23
9.37016e-22
1.875e-06
-6.86646e-24
8.95076e-22
1.875e-06
1.78767e-22
8.60499e-22
1.875e-06
1.70556e-22
1.01849e-21
1.875e-06
6.25232e-23
8.58691e-22
1.875e-06
-4.44837e-24
8.15205e-22
1.875e-06
3.50431e-23
7.46185e-22
1.875e-06
9.45978e-23
7.08742e-22
1.875e-06
1.93269e-22
6.78897e-22
1.875e-06
1.81799e-22
5.77828e-22
1.875e-06
1.37912e-22
4.38966e-22
1.875e-06
1.31694e-22
5.14542e-22
1.875e-06
-1.47165e-23
4.56677e-22
1.875e-06
-3.06986e-23
4.3029e-22
1.875e-06
-9.92898e-23
3.45975e-22
1.875e-06
-8.43597e-23
3.37804e-22
1.875e-06
8.57934e-23
3.31486e-22
1.875e-06
9.1607e-23
2.55305e-22
1.875e-06
-9.61191e-23
1.64146e-22
1.875e-06
-1.54717e-22
1.32938e-22
1.875e-06
2.14419e-23
2.89034e-22
1.875e-06
-9.42883e-23
2.51125e-22
1.875e-06
-1.54573e-22
1.3839e-22
1.875e-06
-1.36058e-24
1.07352e-22
1.875e-06
-3.1689e-23
3.11134e-23
1.875e-06
-5.21836e-23
-1.55226e-22
1.875e-06
3.43101e-23
-3.30658e-22
1.875e-06
-4.52436e-23
-2.94893e-22
1.875e-06
-6.98616e-23
-2.79324e-22
1.875e-06
-1.12707e-22
-1.66588e-22
-1.61571e-22
-1.94491e-22
1.875e-06
-5.82721e-23
7.61623e-22
1.875e-06
-1.84959e-22
9.40852e-22
1.875e-06
-4.10143e-23
1.05728e-21
1.875e-06
-1.76249e-23
1.21503e-21
1.875e-06
7.55907e-23
1.35431e-21
1.875e-06
5.77486e-23
1.23067e-21
1.875e-06
-2.35562e-23
1.17078e-21
1.875e-06
-2.38414e-24
1.09481e-21
1.875e-06
-9.84123e-25
1.10466e-21
1.875e-06
2.06154e-23
1.01277e-21
1.875e-06
1.72386e-22
9.84236e-22
1.875e-06
6.89688e-23
9.55563e-22
1.875e-06
9.19597e-23
9.99332e-22
1.875e-06
5.27547e-23
9.4728e-22
1.875e-06
1.17316e-22
8.48304e-22
1.875e-06
9.95704e-23
7.12779e-22
1.875e-06
3.91811e-23
6.13184e-22
1.875e-06
1.31407e-22
5.79182e-22
1.875e-06
9.70079e-23
6.18467e-22
1.875e-06
9.32445e-23
5.01674e-22
1.875e-06
1.00526e-23
4.13964e-22
1.875e-06
1.61261e-22
5.26858e-22
1.875e-06
2.75156e-23
5.44346e-22
1.875e-06
-1.99768e-22
3.03133e-22
1.875e-06
-1.23414e-22
3.23401e-22
1.875e-06
2.2457e-23
2.70267e-22
1.875e-06
6.42908e-23
1.70143e-22
1.875e-06
-4.50634e-23
1.85e-22
1.875e-06
-7.75265e-23
1.98538e-22
1.875e-06
-1.34818e-23
1.7052e-22
1.875e-06
1.62206e-23
2.56554e-22
1.875e-06
-6.50357e-23
2.10027e-22
1.875e-06
-3.86594e-23
1.30555e-22
1.875e-06
-2.43639e-23
-9.1877e-24
1.875e-06
-8.54934e-24
-9.49506e-23
1.875e-06
7.3481e-24
-2.31083e-22
1.875e-06
-9.60819e-23
-3.164e-22
1.875e-06
-1.45538e-22
-2.53235e-22
1.875e-06
-6.08355e-23
-1.63538e-22
-4.84028e-23
-1.492e-22
1.875e-06
-5.0988e-23
6.34632e-22
1.875e-06
-1.12998e-22
1.0644e-21
1.875e-06
-8.99428e-23
1.17522e-21
1.875e-06
-1.23208e-22
1.30766e-21
1.875e-06
-1.04378e-22
1.27397e-21
1.875e-06
-3.86481e-23
1.24372e-21
1.875e-06
2.30098e-23
1.23496e-21
1.875e-06
3.64522e-23
1.13148e-21
1.875e-06
6.67069e-23
1.14759e-21
1.875e-06
1.31636e-22
1.06163e-21
1.875e-06
2.70568e-23
9.74862e-22
1.875e-06
1.24424e-22
1.03102e-21
1.875e-06
-9.71176e-23
1.04448e-21
1.875e-06
4.75323e-23
9.53082e-22
1.875e-06
1.21669e-22
7.60373e-22
1.875e-06
4.75498e-23
7.04075e-22
1.875e-06
7.82522e-23
5.48176e-22
1.875e-06
4.06589e-23
5.31856e-22
1.875e-06
1.31344e-22
6.58093e-22
1.875e-06
9.91641e-23
5.31324e-22
1.875e-06
2.24575e-22
5.41493e-22
1.875e-06
-1.69196e-23
4.60172e-22
1.875e-06
-7.32269e-23
5.03542e-22
1.875e-06
-1.15648e-22
3.79508e-22
1.875e-06
-6.33595e-23
3.62339e-22
1.875e-06
-1.28079e-22
2.54258e-22
1.875e-06
-3.11364e-23
1.40087e-22
1.875e-06
9.30839e-23
1.2163e-22
1.875e-06
-1.58102e-24
2.3609e-22
1.875e-06
5.32354e-23
1.62083e-22
1.875e-06
-6.74288e-23
1.57377e-22
1.875e-06
6.31536e-23
1.81501e-22
1.875e-06
-5.62856e-23
8.38194e-23
1.875e-06
-1.49563e-22
7.03041e-24
1.875e-06
-2.27899e-22
-1.67989e-22
1.875e-06
-1.60321e-22
-3.50256e-22
1.875e-06
6.81665e-23
-1.48785e-22
1.875e-06
4.45029e-23
-5.28984e-23
1.875e-06
-1.40014e-22
-1.0571e-22
1.22527e-24
-1.39703e-22
1.875e-06
-1.53689e-22
5.6952e-22
1.875e-06
-5.99277e-23
9.99876e-22
1.875e-06
2.30333e-23
1.21779e-21
1.875e-06
-6.02402e-23
1.36604e-21
1.875e-06
-1.20843e-22
1.42643e-21
1.875e-06
-1.95263e-23
1.33938e-21
1.875e-06
-1.33291e-22
1.20918e-21
1.875e-06
-6.8492e-23
1.14572e-21
1.875e-06
1.65963e-23
1.13512e-21
1.875e-06
4.66415e-23
1.03077e-21
1.875e-06
1.35557e-22
1.02509e-21
1.875e-06
3.83013e-23
9.74415e-22
1.875e-06
5.62394e-23
1.14852e-21
1.875e-06
-2.08824e-23
1.01065e-21
1.875e-06
9.29739e-23
7.85273e-22
1.875e-06
4.22273e-23
6.19196e-22
1.875e-06
4.92858e-23
5.02949e-22
1.875e-06
-3.99746e-23
4.75904e-22
1.875e-06
7.0385e-23
6.05224e-22
1.875e-06
1.91683e-22
6.34363e-22
1.875e-06
1.60264e-22
5.22702e-22
1.875e-06
-3.39337e-23
4.46594e-22
1.875e-06
-2.17727e-22
3.52337e-22
1.875e-06
-9.32329e-23
3.68515e-22
1.875e-06
-8.10697e-23
3.55116e-22
1.875e-06
7.49594e-23
3.10707e-22
1.875e-06
4.09579e-23
1.2586e-22
1.875e-06
-1.94212e-23
8.2176e-23
1.875e-06
7.96013e-23
2.66918e-22
1.875e-06
-2.24479e-23
1.12741e-22
1.875e-06
7.07561e-23
1.58299e-22
1.875e-06
-8.56956e-23
7.07744e-23
1.875e-06
-1.11714e-22
8.5491e-23
1.875e-06
-1.38399e-22
1.0781e-22
1.875e-06
-1.29698e-22
-1.53449e-24
1.875e-06
-6.44819e-23
-2.3982e-22
1.875e-06
-6.997e-23
-2.56876e-22
1.875e-06
-5.08697e-23
-1.61228e-22
1.875e-06
-3.72222e-23
-7.25109e-23
-4.61241e-23
-2.11606e-22
1.875e-06
-8.44398e-23
6.12253e-22
1.875e-06
-1.48931e-22
1.03724e-21
1.875e-06
-1.91647e-22
1.17105e-21
1.875e-06
7.40247e-24
1.35459e-21
1.875e-06
6.03935e-23
1.3848e-21
1.875e-06
-1.21298e-22
1.2947e-21
1.875e-06
-1.04259e-22
1.26652e-21
1.875e-06
-1.54809e-22
1.16515e-21
1.875e-06
9.11182e-24
1.20554e-21
1.875e-06
9.53393e-23
1.15271e-21
1.875e-06
8.00128e-23
1.04982e-21
1.875e-06
4.18951e-23
9.67819e-22
1.875e-06
5.69408e-23
1.0898e-21
1.875e-06
3.78861e-24
1.07378e-21
1.875e-06
-2.85666e-23
7.75911e-22
1.875e-06
2.99859e-24
6.60866e-22
1.875e-06
5.12206e-23
6.37221e-22
1.875e-06
2.57877e-22
5.93448e-22
1.875e-06
2.21959e-22
4.75428e-22
1.875e-06
1.49866e-22
4.95768e-22
1.875e-06
-8.81581e-23
4.07004e-22
1.875e-06
-2.04605e-22
4.71876e-22
1.875e-06
-5.17732e-23
4.85192e-22
1.875e-06
-2.30262e-23
4.1664e-22
1.875e-06
-1.84662e-23
4.58991e-22
1.875e-06
-8.77122e-23
2.52938e-22
1.875e-06
-1.1361e-23
1.62511e-22
1.875e-06
-7.64609e-24
2.09027e-22
1.875e-06
-8.15539e-24
1.43098e-22
1.875e-06
1.74109e-23
1.42205e-22
1.875e-06
8.37205e-23
1.15388e-22
1.875e-06
-6.58002e-23
5.66197e-23
1.875e-06
-1.01222e-22
6.22496e-23
1.875e-06
6.76771e-24
8.38258e-23
1.875e-06
-5.64785e-23
4.15072e-23
1.875e-06
-2.05045e-22
-1.23704e-22
1.875e-06
-1.18529e-22
-1.23424e-22
1.875e-06
-9.94168e-23
-1.90984e-22
1.875e-06
6.75644e-23
-1.57093e-22
1.33009e-22
-1.7818e-22
1.875e-06
-3.98271e-23
6.91305e-22
1.875e-06
5.30708e-23
1.08488e-21
1.875e-06
2.59876e-23
1.23962e-21
1.875e-06
8.94424e-24
1.27349e-21
1.875e-06
-5.15948e-23
1.349e-21
1.875e-06
-1.43593e-22
1.37437e-21
1.875e-06
-1.71169e-22
1.29687e-21
1.875e-06
-7.72695e-23
1.31932e-21
1.875e-06
5.67928e-23
1.24474e-21
1.875e-06
9.48319e-23
1.15286e-21
1.875e-06
-2.78622e-23
1.05334e-21
1.875e-06
9.5891e-24
1.05912e-21
1.875e-06
1.28064e-22
1.08061e-21
1.875e-06
1.53801e-22
1.07754e-21
1.875e-06
3.06414e-23
8.29651e-22
1.875e-06
1.68404e-23
6.77345e-22
1.875e-06
-6.45261e-23
6.95313e-22
1.875e-06
-8.10995e-23
4.84893e-22
1.875e-06
7.88757e-23
4.47217e-22
1.875e-06
-4.30335e-24
3.79549e-22
1.875e-06
-5.97808e-23
3.67876e-22
1.875e-06
4.76814e-23
5.69989e-22
1.875e-06
-2.22025e-23
5.42327e-22
1.875e-06
-5.66039e-24
4.70054e-22
1.875e-06
1.36548e-25
3.57584e-22
1.875e-06
-4.99945e-23
2.80825e-22
1.875e-06
9.23648e-23
2.62778e-22
1.875e-06
8.17341e-23
2.94514e-22
1.875e-06
6.17575e-23
1.98432e-22
1.875e-06
-1.29842e-23
1.1841e-22
1.875e-06
-1.18776e-22
-2.02054e-23
1.875e-06
-5.03467e-23
-3.92504e-23
1.875e-06
-1.28359e-23
2.60403e-23
1.875e-06
1.22751e-23
1.45573e-22
1.875e-06
1.39674e-23
7.18557e-23
1.875e-06
-5.17175e-23
-5.01606e-23
1.875e-06
-1.22578e-23
1.08819e-24
1.875e-06
-3.78718e-23
-1.20179e-24
1.875e-06
1.01089e-23
-1.62439e-22
-4.16196e-23
-2.59756e-22
1.875e-06
1.74386e-22
8.58595e-22
1.875e-06
9.77848e-23
1.11549e-21
1.875e-06
1.5e-24
1.05888e-21
1.875e-06
-1.01077e-22
1.20919e-21
1.875e-06
-1.47759e-22
1.30347e-21
1.875e-06
-5.53108e-23
1.37239e-21
1.875e-06
-4.89979e-23
1.36158e-21
1.875e-06
-1.65764e-22
1.31663e-21
1.875e-06
-1.70786e-22
1.16314e-21
1.875e-06
-1.08301e-23
1.28688e-21
1.875e-06
-1.96512e-22
1.12556e-21
1.875e-06
4.59289e-22
1.11504e-21
1.875e-06
7.34711e-23
1.00822e-21
1.875e-06
1.7232e-22
1.03204e-21
1.875e-06
1.53476e-23
9.63078e-22
1.875e-06
-1.0266e-22
7.38269e-22
1.875e-06
-7.14592e-23
5.73567e-22
1.875e-06
-9.79463e-23
4.29329e-22
1.875e-06
-1.70518e-22
4.6165e-22
1.875e-06
-3.95567e-23
4.43067e-22
1.875e-06
-6.14977e-23
4.17762e-22
1.875e-06
-9.76203e-23
5.20012e-22
1.875e-06
-6.33601e-24
6.53002e-22
1.875e-06
5.18206e-23
4.19734e-22
1.875e-06
1.58497e-22
3.76958e-22
1.875e-06
5.6381e-23
3.42108e-22
1.875e-06
-8.25458e-23
1.99167e-22
1.875e-06
-5.52353e-24
1.28307e-22
1.875e-06
-1.72181e-22
1.75245e-22
1.875e-06
2.06785e-22
5.12725e-23
1.875e-06
4.45071e-23
1.33001e-22
1.875e-06
1.52835e-23
-3.87722e-24
1.875e-06
1.20493e-22
-6.72876e-23
1.875e-06
-1.74746e-22
1.05476e-22
1.875e-06
5.65147e-23
1.0841e-22
1.875e-06
6.707e-23
6.64097e-23
1.875e-06
9.25329e-25
-5.52497e-23
1.875e-06
2.09955e-23
-1.15467e-22
1.875e-06
-9.99627e-23
-2.84289e-22
-8.11978e-23
-2.46241e-22
1.875e-06
2.12938e-22
7.17247e-22
1.875e-06
1.17411e-22
1.00473e-21
1.875e-06
-7.77859e-24
1.08388e-21
1.875e-06
-2.12561e-23
1.18827e-21
1.875e-06
9.04562e-23
1.39881e-21
1.875e-06
6.12168e-23
1.29574e-21
1.875e-06
-2.63756e-24
1.30632e-21
1.875e-06
-1.49728e-22
1.25249e-21
1.875e-06
-1.71146e-22
1.20934e-21
1.875e-06
-7.78239e-23
1.33277e-21
1.875e-06
-9.33175e-24
1.17201e-21
1.875e-06
5.83765e-23
1.14796e-21
1.875e-06
1.55819e-22
1.06766e-21
1.875e-06
7.20017e-24
9.23636e-22
1.875e-06
-6.88903e-23
8.35875e-22
1.875e-06
-7.46647e-23
7.77748e-22
1.875e-06
-7.64016e-23
6.01413e-22
1.875e-06
-7.96714e-23
4.8728e-22
1.875e-06
-8.01418e-23
5.93088e-22
1.875e-06
-6.52527e-23
4.90526e-22
1.875e-06
-7.55071e-23
4.23497e-22
1.875e-06
-5.48796e-23
5.42156e-22
1.875e-06
-4.42472e-23
5.58677e-22
1.875e-06
-2.76285e-23
3.77886e-22
1.875e-06
3.07245e-23
3.56246e-22
1.875e-06
1.1353e-22
3.55995e-22
1.875e-06
5.68917e-23
1.85317e-22
1.875e-06
9.99545e-23
1.52966e-22
1.875e-06
3.76822e-23
1.9151e-22
1.875e-06
-2.48052e-23
8.75632e-23
1.875e-06
-1.23003e-23
7.44693e-23
1.875e-06
5.67507e-25
-5.49455e-24
1.875e-06
-4.25465e-23
-6.97113e-23
1.875e-06
8.82696e-24
1.49064e-22
1.875e-06
4.40746e-23
9.72228e-23
1.875e-06
1.70738e-22
1.50739e-23
1.875e-06
6.22149e-23
-1.41386e-22
1.875e-06
4.32072e-23
-1.41189e-22
1.875e-06
-3.2691e-23
-2.31943e-22
-1.68804e-22
-1.55321e-22
1.875e-06
7.09248e-23
5.41547e-22
1.875e-06
1.27546e-22
9.4154e-22
1.875e-06
-5.37173e-24
1.15773e-21
1.875e-06
3.87155e-23
1.10991e-21
1.875e-06
5.5466e-23
1.22598e-21
1.875e-06
1.07349e-22
1.30157e-21
1.875e-06
1.49829e-23
1.30593e-21
1.875e-06
2.86889e-24
1.33479e-21
1.875e-06
6.398e-24
1.2885e-21
1.875e-06
-1.66005e-22
1.40003e-21
1.875e-06
-7.37986e-23
1.25348e-21
1.875e-06
-2.34051e-23
1.06075e-21
1.875e-06
-1.29298e-22
9.9535e-22
1.875e-06
-1.85619e-22
9.41304e-22
1.875e-06
-1.38719e-22
8.10663e-22
1.875e-06
-5.56946e-23
8.19448e-22
1.875e-06
-7.48713e-23