/*--------------------------------*- C++ -*----------------------------------*\
| =========                 |                                                 |
| \\      /  F ield         | OpenFOAM: The Open Source CFD Toolbox           |
|  \\    /   O peration     | Version:  v2012                                 |
|   \\  /    A nd           | Website:  www.openfoam.com                      |
|    \\/     M anipulation  |                                                 |
\*---------------------------------------------------------------------------*/
FoamFile
{
    version     2.0;
    format      ascii;
    class       volVectorField;
    location    "34";
    object      U;
}
// * * * * * * * * * * * * * * * * * * * * * * * * * * * * * * * * * * * * * //

dimensions      [0 1 -1 0 0 0 0];


internalField   nonuniform List<vector> 
64000
(
(0.003 2.86304e-19 2.30755e-19)
(0.003 5.09774e-19 4.06047e-19)
(0.003 5.0945e-19 5.21802e-19)
(0.003 4.91308e-19 5.79462e-19)
(0.003 5.94179e-19 5.73352e-19)
(0.003 5.76205e-19 5.02486e-19)
(0.003 5.25234e-19 4.60152e-19)
(0.003 3.6331e-19 4.35855e-19)
(0.003 3.51594e-19 5.61755e-19)
(0.003 5.47716e-19 5.14632e-19)
(0.003 5.69022e-19 3.46858e-19)
(0.003 5.15871e-19 4.80382e-19)
(0.003 4.39906e-19 4.46004e-19)
(0.003 4.00366e-19 3.30756e-19)
(0.003 3.20198e-19 3.85355e-19)
(0.003 2.6943e-19 4.09207e-19)
(0.003 2.17372e-19 2.94187e-19)
(0.003 5.7451e-20 1.39382e-19)
(0.003 8.42646e-20 1.21491e-19)
(0.003 2.13426e-19 2.492e-19)
(0.003 9.5137e-20 2.02966e-19)
(0.003 1.74241e-19 1.87742e-19)
(0.003 2.86462e-19 2.0566e-19)
(0.003 3.55248e-19 1.54178e-19)
(0.003 3.46204e-19 1.7814e-19)
(0.003 2.11273e-19 1.74076e-19)
(0.003 1.48148e-19 1.89885e-19)
(0.003 2.49899e-19 2.24251e-19)
(0.003 2.45423e-19 2.2978e-19)
(0.003 7.85949e-20 2.63302e-19)
(0.003 -6.03542e-20 2.55497e-19)
(0.003 -2.57501e-20 1.09872e-19)
(0.003 1.42317e-19 2.91975e-20)
(0.003 8.12507e-20 5.56382e-20)
(0.003 6.15021e-20 1.17038e-19)
(0.003 7.31278e-20 1.78597e-19)
(0.003 -5.41602e-20 5.42844e-20)
(0.003 -1.28962e-19 1.14425e-19)
(0.003 -1.30715e-19 1.9228e-19)
(0.003 -6.97595e-20 1.07757e-19)
(0.003 2.73592e-19 3.54137e-19)
(0.003 4.24011e-19 7.99231e-19)
(0.003 6.53406e-19 1.10253e-18)
(0.003 5.83118e-19 1.0842e-18)
(0.003 5.07098e-19 1.04931e-18)
(0.003 6.72429e-19 1.08446e-18)
(0.003 6.31088e-19 1.02473e-18)
(0.003 5.86059e-19 8.3737e-19)
(0.003 5.75254e-19 8.44208e-19)
(0.003 5.4386e-19 1.11455e-18)
(0.003 5.04044e-19 1.06887e-18)
(0.003 4.73601e-19 9.45336e-19)
(0.003 4.00521e-19 8.46918e-19)
(0.003 2.57014e-19 7.21736e-19)
(0.003 1.97856e-19 7.10076e-19)
(0.003 1.5749e-19 7.00674e-19)
(0.003 3.9494e-19 6.52264e-19)
(0.003 3.40045e-19 4.55067e-19)
(0.003 1.09482e-19 3.75757e-19)
(0.003 8.24611e-20 4.69295e-19)
(0.003 2.37653e-19 3.53642e-19)
(0.003 3.33985e-19 3.78968e-19)
(0.003 3.18435e-19 4.19707e-19)
(0.003 3.81141e-19 5.20345e-19)
(0.003 2.03675e-19 4.42881e-19)
(0.003 2.10439e-19 3.36547e-19)
(0.003 2.8441e-19 2.7652e-19)
(0.003 1.71123e-19 3.08937e-19)
(0.003 6.57216e-20 4.16839e-19)
(0.003 5.76226e-20 2.95307e-19)
(0.003 2.52445e-20 1.25799e-19)
(0.003 6.31118e-20 9.93922e-20)
(0.003 1.06255e-19 1.63117e-19)
(0.003 1.60391e-20 1.5805e-19)
(0.003 -3.91228e-21 2.27088e-19)
(0.003 -6.57596e-20 2.06109e-19)
(0.003 -1.49118e-19 -4.4068e-20)
(0.003 -1.77247e-19 -4.19777e-20)
(0.003 -1.25963e-19 1.66454e-19)
(0.003 -1.25029e-19 1.43421e-19)
(0.003 1.68089e-19 5.1528e-19)
(0.003 1.729e-19 9.29438e-19)
(0.003 2.92795e-19 1.18446e-18)
(0.003 4.8858e-19 1.2532e-18)
(0.003 4.56604e-19 1.23266e-18)
(0.003 5.08666e-19 1.21134e-18)
(0.003 5.344e-19 1.24507e-18)
(0.003 5.3244e-19 1.12689e-18)
(0.003 5.68023e-19 1.17225e-18)
(0.003 4.60655e-19 1.26705e-18)
(0.003 3.4807e-19 1.13688e-18)
(0.003 3.27905e-19 1.07691e-18)
(0.003 3.59543e-19 9.22173e-19)
(0.003 2.51783e-19 7.88034e-19)
(0.003 2.21169e-19 7.95398e-19)
(0.003 2.03886e-19 7.48567e-19)
(0.003 3.12137e-19 8.23238e-19)
(0.003 4.50849e-19 6.80176e-19)
(0.003 1.68303e-19 4.1582e-19)
(0.003 3.01815e-20 4.62187e-19)
(0.003 2.13971e-19 5.00211e-19)
(0.003 2.95665e-19 4.80157e-19)
(0.003 3.20698e-19 4.54421e-19)
(0.003 2.60464e-19 5.16471e-19)
(0.003 2.50975e-19 4.79349e-19)
(0.003 1.81481e-19 4.57281e-19)
(0.003 1.2172e-19 4.15014e-19)
(0.003 1.64078e-20 4.16499e-19)
(0.003 -4.49596e-21 3.76733e-19)
(0.003 6.43469e-20 3.10455e-19)
(0.003 9.11536e-20 3.01015e-19)
(0.003 6.1389e-20 1.89612e-19)
(0.003 -6.21324e-20 1.73291e-19)
(0.003 -7.70319e-20 1.04438e-19)
(0.003 5.91132e-21 1.7059e-19)
(0.003 -1.76843e-20 8.28127e-20)
(0.003 -1.4425e-19 -1.3959e-19)
(0.003 -1.09029e-19 4.62072e-20)
(0.003 -6.02228e-20 1.61406e-19)
(0.003 -9.94575e-20 1.01878e-19)
(0.003 3.40282e-19 6.6313e-19)
(0.003 2.78249e-19 1.0953e-18)
(0.003 2.02482e-19 1.27448e-18)
(0.003 3.50294e-19 1.45149e-18)
(0.003 4.17383e-19 1.37738e-18)
(0.003 4.19714e-19 1.38454e-18)
(0.003 3.762e-19 1.36462e-18)
(0.003 3.34497e-19 1.21424e-18)
(0.003 3.51086e-19 1.21496e-18)
(0.003 4.25175e-19 1.27097e-18)
(0.003 3.98436e-19 1.26612e-18)
(0.003 3.17667e-19 1.23544e-18)
(0.003 2.65736e-19 1.05676e-18)
(0.003 2.50313e-19 8.79965e-19)
(0.003 4.78376e-19 8.66283e-19)
(0.003 6.18227e-19 7.66293e-19)
(0.003 2.64432e-19 7.58966e-19)
(0.003 1.97672e-19 7.29272e-19)
(0.003 2.58798e-19 5.15623e-19)
(0.003 1.6121e-19 4.00426e-19)
(0.003 1.06775e-19 4.98762e-19)
(0.003 2.2614e-19 5.49019e-19)
(0.003 3.29767e-19 5.46704e-19)
(0.003 2.57629e-19 6.25829e-19)
(0.003 2.81582e-19 6.27582e-19)
(0.003 1.72994e-19 4.77892e-19)
(0.003 1.97033e-20 3.68008e-19)
(0.003 -2.49091e-20 3.56804e-19)
(0.003 3.24306e-20 3.87991e-19)
(0.003 -2.72061e-20 3.80576e-19)
(0.003 -5.50691e-20 2.68653e-19)
(0.003 -2.5212e-20 1.65065e-19)
(0.003 -8.92213e-20 2.13204e-19)
(0.003 -7.35091e-20 1.44587e-19)
(0.003 -6.97184e-20 1.61732e-19)
(0.003 -9.94535e-20 5.37222e-20)
(0.003 1.20974e-19 -9.72158e-20)
(0.003 1.33939e-19 7.22011e-20)
(0.003 3.71958e-20 1.34443e-19)
(0.003 4.39472e-20 1.05524e-19)
(0.003 1.59237e-19 6.76584e-19)
(0.003 2.65309e-19 1.14947e-18)
(0.003 1.76969e-19 1.35144e-18)
(0.003 1.84582e-19 1.48635e-18)
(0.003 2.33809e-19 1.51038e-18)
(0.003 1.91257e-19 1.54694e-18)
(0.003 1.93774e-19 1.46103e-18)
(0.003 4.00416e-19 1.22479e-18)
(0.003 4.537e-19 1.15527e-18)
(0.003 4.00665e-19 1.36e-18)
(0.003 3.44106e-19 1.35542e-18)
(0.003 2.93451e-19 1.21783e-18)
(0.003 2.95493e-19 1.064e-18)
(0.003 2.85579e-19 9.78273e-19)
(0.003 4.11438e-19 1.07058e-18)
(0.003 5.29251e-19 1.03372e-18)
(0.003 2.70108e-19 7.82403e-19)
(0.003 1.2631e-19 6.32998e-19)
(0.003 2.72086e-19 4.82542e-19)
(0.003 2.92554e-19 3.8921e-19)
(0.003 8.27379e-20 4.77087e-19)
(0.003 9.86904e-20 5.69179e-19)
(0.003 2.18713e-19 6.03709e-19)
(0.003 2.21484e-19 6.3125e-19)
(0.003 2.12775e-19 6.53762e-19)
(0.003 1.90104e-19 5.45563e-19)
(0.003 1.09627e-19 4.17207e-19)
(0.003 -3.06113e-20 3.92623e-19)
(0.003 -2.77849e-20 3.54587e-19)
(0.003 -3.60032e-20 2.25054e-19)
(0.003 2.49022e-20 2.02325e-19)
(0.003 6.05823e-20 2.40308e-19)
(0.003 -1.68223e-20 1.81006e-19)
(0.003 -2.02923e-20 1.19038e-19)
(0.003 -4.41144e-20 1.17043e-19)
(0.003 -1.07134e-19 1.18431e-19)
(0.003 7.36897e-20 3.35209e-20)
(0.003 1.19582e-19 -2.04326e-20)
(0.003 6.04353e-21 1.03196e-19)
(0.003 -1.70364e-20 1.63735e-19)
(0.003 1.64243e-21 7.1896e-19)
(0.003 1.84457e-19 1.24479e-18)
(0.003 1.64707e-19 1.37081e-18)
(0.003 1.13724e-19 1.51484e-18)
(0.003 1.65328e-19 1.55597e-18)
(0.003 1.68477e-19 1.5322e-18)
(0.003 1.99306e-19 1.46109e-18)
(0.003 4.67898e-19 1.51406e-18)
(0.003 5.361e-19 1.4089e-18)
(0.003 3.79197e-19 1.29346e-18)
(0.003 3.56146e-19 1.29555e-18)
(0.003 3.39062e-19 1.31459e-18)
(0.003 2.80448e-19 1.20584e-18)
(0.003 3.79829e-19 1.01994e-18)
(0.003 3.06476e-19 1.13178e-18)
(0.003 1.572e-19 1.05343e-18)
(0.003 1.26228e-19 8.14016e-19)
(0.003 1.69047e-20 6.25121e-19)
(0.003 1.12087e-19 5.25979e-19)
(0.003 2.32234e-19 4.16774e-19)
(0.003 1.55087e-19 4.14631e-19)
(0.003 1.52116e-19 5.34896e-19)
(0.003 2.68387e-19 6.34605e-19)
(0.003 3.00331e-19 6.59053e-19)
(0.003 2.1619e-19 6.78864e-19)
(0.003 1.87494e-19 5.29031e-19)
(0.003 1.52942e-19 4.37077e-19)
(0.003 -5.00411e-20 2.93059e-19)
(0.003 -1.92099e-19 2.7278e-19)
(0.003 -8.61726e-20 3.63685e-19)
(0.003 1.34668e-19 3.11435e-19)
(0.003 2.27776e-19 2.22091e-19)
(0.003 9.84835e-20 1.04456e-19)
(0.003 -2.06715e-20 1.87552e-19)
(0.003 -8.71225e-20 1.52904e-19)
(0.003 -1.68839e-20 2.42771e-20)
(0.003 4.4676e-20 8.48242e-20)
(0.003 1.01071e-19 -8.34262e-21)
(0.003 1.25155e-19 1.07177e-20)
(0.003 6.11347e-20 1.12444e-19)
(0.003 9.21219e-20 8.77969e-19)
(0.003 1.97689e-19 1.43832e-18)
(0.003 1.93512e-19 1.43447e-18)
(0.003 7.84896e-20 1.48833e-18)
(0.003 1.59728e-19 1.62838e-18)
(0.003 1.71395e-19 1.63793e-18)
(0.003 2.84371e-19 1.53119e-18)
(0.003 5.19212e-19 1.51015e-18)
(0.003 4.95118e-19 1.49688e-18)
(0.003 3.81933e-19 1.45011e-18)
(0.003 2.83872e-19 1.4348e-18)
(0.003 2.13748e-19 1.35384e-18)
(0.003 2.70821e-19 1.21527e-18)
(0.003 3.99813e-19 1.12858e-18)
(0.003 2.53372e-19 1.15717e-18)
(0.003 1.63864e-19 1.00805e-18)
(0.003 1.38816e-19 7.44989e-19)
(0.003 1.17962e-19 5.42311e-19)
(0.003 1.5123e-19 5.1123e-19)
(0.003 7.18041e-20 4.48081e-19)
(0.003 1.87e-19 4.68788e-19)
(0.003 2.59084e-19 5.84182e-19)
(0.003 2.0967e-19 6.92482e-19)
(0.003 1.54572e-19 7.35449e-19)
(0.003 5.356e-20 6.86606e-19)
(0.003 1.41066e-19 5.83609e-19)
(0.003 7.62336e-20 4.45359e-19)
(0.003 5.15013e-21 2.6081e-19)
(0.003 -2.93801e-20 2.19787e-19)
(0.003 -3.29961e-20 1.90467e-19)
(0.003 1.08937e-19 2.61449e-19)
(0.003 5.85545e-20 2.5651e-19)
(0.003 -2.41143e-20 8.89077e-20)
(0.003 1.09774e-19 1.35575e-19)
(0.003 1.80288e-19 1.16013e-19)
(0.003 2.30839e-19 8.93437e-20)
(0.003 3.69843e-20 1.39382e-20)
(0.003 -4.67175e-20 -1.00274e-20)
(0.003 5.40241e-20 1.43799e-19)
(0.003 7.99413e-20 1.14095e-19)
(0.003 2.134e-19 7.932e-19)
(0.003 1.89162e-19 1.34016e-18)
(0.003 1.56429e-19 1.49835e-18)
(0.003 1.86831e-19 1.60004e-18)
(0.003 2.18459e-19 1.68937e-18)
(0.003 2.85679e-19 1.61066e-18)
(0.003 3.90957e-19 1.60007e-18)
(0.003 3.4145e-19 1.67894e-18)
(0.003 3.11049e-19 1.6401e-18)
(0.003 3.39294e-19 1.59278e-18)
(0.003 2.10429e-19 1.4944e-18)
(0.003 1.51687e-19 1.33505e-18)
(0.003 2.04512e-19 1.20415e-18)
(0.003 3.00297e-19 1.14615e-18)
(0.003 3.00161e-19 1.13032e-18)
(0.003 2.15623e-19 1.09019e-18)
(0.003 1.06565e-19 7.83254e-19)
(0.003 1.14408e-19 5.44826e-19)
(0.003 2.62644e-19 5.116e-19)
(0.003 2.27509e-19 3.77455e-19)
(0.003 1.70901e-19 4.20232e-19)
(0.003 1.56393e-19 6.50394e-19)
(0.003 1.72219e-20 7.33665e-19)
(0.003 3.56113e-20 7.27267e-19)
(0.003 4.35942e-20 6.85846e-19)
(0.003 5.5641e-20 5.609e-19)
(0.003 1.23254e-19 4.31523e-19)
(0.003 1.31209e-19 2.98099e-19)
(0.003 4.70188e-20 1.80548e-19)
(0.003 1.25655e-19 1.97105e-19)
(0.003 -1.77795e-20 3.30587e-19)
(0.003 -8.38178e-20 2.71857e-19)
(0.003 8.81081e-21 1.77579e-19)
(0.003 8.88069e-20 1.69083e-19)
(0.003 2.3441e-19 1.12003e-19)
(0.003 1.44656e-19 -9.01443e-20)
(0.003 4.96858e-20 -1.41639e-19)
(0.003 -3.66763e-20 9.49566e-20)
(0.003 -7.43083e-20 1.83615e-19)
(0.003 -3.40262e-20 1.04453e-19)
(0.003 -6.51045e-20 7.83607e-19)
(0.003 -2.62763e-21 1.50263e-18)
(0.003 1.2029e-19 1.57428e-18)
(0.003 1.64945e-19 1.66041e-18)
(0.003 2.81784e-19 1.73335e-18)
(0.003 4.74864e-19 1.72275e-18)
(0.003 4.31936e-19 1.71288e-18)
(0.003 1.36942e-19 1.67608e-18)
(0.003 1.26431e-19 1.64369e-18)
(0.003 2.43502e-19 1.67467e-18)
(0.003 1.89901e-19 1.5083e-18)
(0.003 1.26363e-19 1.37593e-18)
(0.003 1.60139e-19 1.20514e-18)
(0.003 2.34769e-19 1.12135e-18)
(0.003 2.95576e-19 1.20667e-18)
(0.003 1.92445e-19 1.08809e-18)
(0.003 2.32816e-19 8.35243e-19)
(0.003 1.88334e-19 5.32771e-19)
(0.003 -2.75391e-20 5.48089e-19)
(0.003 4.12681e-20 4.96509e-19)
(0.003 1.86078e-19 4.46066e-19)
(0.003 1.04969e-19 6.78246e-19)
(0.003 1.57392e-19 8.00443e-19)
(0.003 1.9483e-19 7.95927e-19)
(0.003 1.37434e-19 6.29381e-19)
(0.003 2.56075e-20 5.14457e-19)
(0.003 -1.81349e-20 4.42332e-19)
(0.003 5.20518e-20 3.15906e-19)
(0.003 1.03924e-19 1.53603e-19)
(0.003 6.8886e-20 2.80368e-19)
(0.003 -7.79426e-20 3.11788e-19)
(0.003 -1.19677e-19 2.81776e-19)
(0.003 3.11223e-20 2.45435e-19)
(0.003 7.53114e-20 1.31084e-19)
(0.003 5.93831e-20 -9.73392e-20)
(0.003 -1.65903e-20 -3.30784e-19)
(0.003 8.98964e-20 -6.62093e-20)
(0.003 4.88299e-20 1.16128e-19)
(0.003 -4.20131e-20 1.02094e-19)
(0.003 -3.61326e-20 4.90472e-20)
(0.003 -2.1416e-19 9.04085e-19)
(0.003 -4.08251e-20 1.39267e-18)
(0.003 1.76177e-19 1.57012e-18)
(0.003 3.35743e-19 1.76274e-18)
(0.003 2.4545e-19 1.88787e-18)
(0.003 2.32336e-19 1.87316e-18)
(0.003 3.5743e-19 1.82092e-18)
(0.003 2.20695e-19 1.71784e-18)
(0.003 1.7007e-19 1.53378e-18)
(0.003 1.55337e-19 1.55714e-18)
(0.003 2.39421e-19 1.53644e-18)
(0.003 1.25908e-19 1.32609e-18)
(0.003 8.21007e-20 1.21235e-18)
(0.003 1.52672e-19 1.19848e-18)
(0.003 1.9362e-19 1.1909e-18)
(0.003 2.73225e-19 1.10768e-18)
(0.003 2.41379e-19 8.3182e-19)
(0.003 1.9832e-19 6.07773e-19)
(0.003 -1.14338e-19 4.39709e-19)
(0.003 -1.03397e-19 4.19447e-19)
(0.003 2.0142e-19 6.02724e-19)
(0.003 2.86638e-19 7.9141e-19)
(0.003 1.96104e-19 8.98424e-19)
(0.003 1.23224e-19 8.58608e-19)
(0.003 2.01521e-19 6.86208e-19)
(0.003 6.58604e-20 4.92124e-19)
(0.003 -1.97408e-19 3.83099e-19)
(0.003 -1.33878e-19 2.88306e-19)
(0.003 6.49979e-20 2.7958e-19)
(0.003 6.90107e-20 3.3593e-19)
(0.003 1.91781e-21 2.628e-19)
(0.003 -5.61053e-20 2.83484e-19)
(0.003 4.46464e-20 2.93666e-19)
(0.003 5.63064e-21 1.40929e-19)
(0.003 -9.03885e-20 -5.14479e-20)
(0.003 3.08585e-20 -3.54493e-19)
(0.003 9.84099e-20 -3.93688e-19)
(0.003 1.6308e-19 -1.74313e-19)
(0.003 1.08101e-19 -7.63217e-20)
(0.003 1.56518e-20 -1.70985e-19)
(0.003 7.56694e-20 9.28174e-19)
(0.003 1.67526e-19 1.50649e-18)
(0.003 2.28489e-19 1.74315e-18)
(0.003 2.57298e-19 1.84407e-18)
(0.003 1.71849e-19 1.85797e-18)
(0.003 1.99304e-19 1.85708e-18)
(0.003 2.0274e-19 1.868e-18)
(0.003 2.12314e-19 1.76429e-18)
(0.003 1.32495e-19 1.6048e-18)
(0.003 1.26374e-19 1.48657e-18)
(0.003 2.36148e-19 1.38972e-18)
(0.003 1.958e-19 1.30909e-18)
(0.003 1.40994e-19 1.18496e-18)
(0.003 1.66484e-19 1.06338e-18)
(0.003 1.64284e-19 1.18049e-18)
(0.003 2.76066e-19 1.2212e-18)
(0.003 2.28158e-19 8.89816e-19)
(0.003 1.1009e-19 5.96491e-19)
(0.003 8.24699e-20 4.4626e-19)
(0.003 8.7399e-20 4.82836e-19)
(0.003 1.89384e-19 6.84975e-19)
(0.003 2.85907e-19 8.72846e-19)
(0.003 1.16772e-19 9.55183e-19)
(0.003 4.0646e-20 8.96371e-19)
(0.003 4.04098e-20 6.38789e-19)
(0.003 -6.9793e-20 4.39251e-19)
(0.003 -9.71984e-20 3.61521e-19)
(0.003 2.50592e-21 3.32189e-19)
(0.003 4.57464e-20 3.05176e-19)
(0.003 -3.28861e-20 3.98688e-19)
(0.003 -8.48252e-20 3.84342e-19)
(0.003 -1.84763e-20 2.78886e-19)
(0.003 3.27537e-20 2.49854e-19)
(0.003 -1.7099e-20 1.15603e-19)
(0.003 -1.15391e-19 1.09177e-20)
(0.003 -8.02268e-20 -2.40923e-19)
(0.003 -1.44614e-20 -4.20961e-19)
(0.003 1.28631e-19 -2.1719e-19)
(0.003 1.68198e-19 -2.23294e-19)
(0.003 1.51747e-19 -2.71429e-19)
(0.003 2.31014e-19 1.00661e-18)
(0.003 2.12942e-19 1.61208e-18)
(0.003 1.4764e-19 1.7417e-18)
(0.003 1.51189e-19 1.76816e-18)
(0.003 2.38478e-19 1.84839e-18)
(0.003 1.93147e-19 1.91077e-18)
(0.003 1.28357e-19 1.8524e-18)
(0.003 2.61714e-19 1.7557e-18)
(0.003 2.1059e-19 1.53573e-18)
(0.003 9.12146e-20 1.55325e-18)
(0.003 1.37076e-19 1.47827e-18)
(0.003 1.69144e-19 1.30286e-18)
(0.003 2.11231e-19 1.22611e-18)
(0.003 2.04127e-19 1.14023e-18)
(0.003 1.60565e-19 1.18471e-18)
(0.003 1.00914e-19 1.11452e-18)
(0.003 1.25231e-19 8.87671e-19)
(0.003 1.50153e-19 6.51085e-19)
(0.003 2.96761e-19 5.24701e-19)
(0.003 2.8569e-19 5.56845e-19)
(0.003 1.27102e-19 6.94215e-19)
(0.003 -6.75255e-21 8.2276e-19)
(0.003 -5.01846e-20 8.59339e-19)
(0.003 -2.87601e-20 8.96712e-19)
(0.003 -1.06555e-19 7.09292e-19)
(0.003 -1.5218e-19 4.47117e-19)
(0.003 -3.04217e-20 3.77326e-19)
(0.003 5.96814e-20 3.68006e-19)
(0.003 2.41568e-20 2.73355e-19)
(0.003 -1.08903e-19 3.41897e-19)
(0.003 5.31331e-21 3.58623e-19)
(0.003 4.88923e-20 3.1182e-19)
(0.003 -5.74511e-20 2.41581e-19)
(0.003 3.3918e-20 7.54104e-20)
(0.003 8.06797e-20 3.21052e-20)
(0.003 -1.2637e-19 -1.31531e-19)
(0.003 -2.11885e-19 -4.41133e-19)
(0.003 2.36575e-20 -2.85679e-19)
(0.003 1.65689e-19 -2.66841e-19)
(0.003 1.94198e-19 -3.68315e-19)
(0.003 2.5649e-19 1.03e-18)
(0.003 2.83547e-19 1.61572e-18)
(0.003 2.01979e-19 1.73071e-18)
(0.003 2.24699e-19 1.86245e-18)
(0.003 1.20444e-19 1.9202e-18)
(0.003 3.49914e-21 1.91295e-18)
(0.003 1.20551e-19 1.85167e-18)
(0.003 1.34504e-19 1.76913e-18)
(0.003 1.84484e-19 1.64835e-18)
(0.003 1.58248e-19 1.49613e-18)
(0.003 5.73784e-20 1.35896e-18)
(0.003 1.75284e-19 1.30802e-18)
(0.003 2.82402e-19 1.29733e-18)
(0.003 2.38287e-19 1.24471e-18)
(0.003 1.55322e-19 1.18366e-18)
(0.003 3.71611e-20 1.08022e-18)
(0.003 8.87433e-20 8.17533e-19)
(0.003 1.27148e-19 6.38389e-19)
(0.003 1.7787e-19 6.17142e-19)
(0.003 2.1199e-19 6.56494e-19)
(0.003 1.71228e-19 7.0631e-19)
(0.003 6.48705e-20 7.60135e-19)
(0.003 6.48342e-20 8.01139e-19)
(0.003 2.3223e-20 7.92674e-19)
(0.003 -2.10725e-19 6.44903e-19)
(0.003 -2.22062e-19 4.346e-19)
(0.003 -1.31834e-19 3.66897e-19)
(0.003 3.53854e-20 3.90731e-19)
(0.003 -8.85045e-22 3.12398e-19)
(0.003 -1.53239e-19 2.58838e-19)
(0.003 2.8145e-21 3.4717e-19)
(0.003 7.17139e-20 3.25226e-19)
(0.003 -2.79287e-20 1.93872e-19)
(0.003 6.70263e-20 1.39637e-19)
(0.003 1.30103e-19 6.37269e-20)
(0.003 -5.41458e-20 -3.0648e-19)
(0.003 -1.26509e-19 -4.04608e-19)
(0.003 -1.09968e-19 -1.89938e-19)
(0.003 -8.61532e-20 -1.24368e-19)
(0.003 -1.35216e-20 -2.2072e-19)
(0.003 -2.55216e-21 1.10537e-18)
(0.003 1.88341e-19 1.70645e-18)
(0.003 2.42808e-19 1.76297e-18)
(0.003 9.44779e-20 1.8749e-18)
(0.003 -4.86126e-20 1.90126e-18)
(0.003 -1.92881e-20 1.86693e-18)
(0.003 1.69437e-19 1.79749e-18)
(0.003 2.25479e-19 1.69443e-18)
(0.003 1.35556e-19 1.61469e-18)
(0.003 2.78734e-20 1.54905e-18)
(0.003 4.49595e-21 1.39778e-18)
(0.003 2.45817e-19 1.31767e-18)
(0.003 3.10232e-19 1.37831e-18)
(0.003 1.99702e-19 1.2702e-18)
(0.003 9.6281e-20 1.19944e-18)
(0.003 8.66066e-20 1.07756e-18)
(0.003 1.18494e-19 8.99557e-19)
(0.003 2.04843e-19 7.12001e-19)
(0.003 2.39942e-19 5.91074e-19)
(0.003 1.76446e-19 5.98494e-19)
(0.003 2.12517e-19 7.16482e-19)
(0.003 9.58819e-20 8.29801e-19)
(0.003 5.75027e-20 8.37503e-19)
(0.003 4.90509e-21 7.70297e-19)
(0.003 -1.55972e-19 6.01725e-19)
(0.003 -7.72149e-20 3.51546e-19)
(0.003 -1.05305e-20 2.7161e-19)
(0.003 -6.23311e-20 3.97222e-19)
(0.003 -7.92294e-20 3.91611e-19)
(0.003 -6.97273e-20 2.3382e-19)
(0.003 -2.12526e-19 3.69698e-19)
(0.003 -1.29498e-19 3.63722e-19)
(0.003 3.63767e-20 2.24885e-19)
(0.003 -4.01088e-20 1.38354e-19)
(0.003 -4.84618e-20 1.89989e-20)
(0.003 2.13605e-20 -3.55118e-19)
(0.003 -4.18666e-20 -4.64243e-19)
(0.003 -1.08188e-19 -3.05488e-19)
(0.003 -1.58364e-19 -3.3633e-19)
(0.003 -1.9484e-19 -3.64782e-19)
(0.003 -2.12342e-19 1.12525e-18)
(0.003 -1.75115e-19 1.66046e-18)
(0.003 7.14011e-20 1.78884e-18)
(0.003 2.25815e-20 1.78658e-18)
(0.003 3.33797e-20 1.84655e-18)
(0.003 3.9033e-20 1.85907e-18)
(0.003 1.10314e-19 1.8554e-18)
(0.003 2.27177e-19 1.76231e-18)
(0.003 8.67217e-20 1.6309e-18)
(0.003 -3.83936e-20 1.50689e-18)
(0.003 1.51842e-19 1.40739e-18)
(0.003 2.70964e-19 1.44692e-18)
(0.003 2.02314e-19 1.45329e-18)
(0.003 6.64957e-20 1.2672e-18)
(0.003 7.29389e-20 1.1055e-18)
(0.003 8.39194e-20 1.08497e-18)
(0.003 1.26753e-19 8.71621e-19)
(0.003 2.9571e-19 6.94718e-19)
(0.003 2.52806e-19 7.13312e-19)
(0.003 1.9374e-19 6.89652e-19)
(0.003 2.20003e-19 7.49256e-19)
(0.003 1.07191e-19 7.65167e-19)
(0.003 -7.13115e-20 8.76115e-19)
(0.003 -2.41492e-19 7.76142e-19)
(0.003 -1.61178e-19 5.55289e-19)
(0.003 1.02056e-19 4.16493e-19)
(0.003 2.02775e-19 3.13408e-19)
(0.003 -7.04594e-20 3.16741e-19)
(0.003 -1.93691e-19 3.01137e-19)
(0.003 -4.51495e-20 2.08657e-19)
(0.003 -7.45866e-20 2.76793e-19)
(0.003 -1.51029e-19 3.35177e-19)
(0.003 -6.40966e-20 2.66902e-19)
(0.003 -4.20063e-20 9.09994e-20)
(0.003 -3.12832e-20 5.42851e-20)
(0.003 2.21667e-20 -2.30663e-19)
(0.003 -8.43053e-20 -4.62718e-19)
(0.003 -1.09064e-19 -3.18465e-19)
(0.003 -9.13622e-20 -2.86963e-19)
(0.003 -1.46334e-19 -3.66664e-19)
(0.003 -7.70433e-20 1.04788e-18)
(0.003 -2.49039e-19 1.68656e-18)
(0.003 -1.71286e-19 1.88554e-18)
(0.003 -1.49997e-19 1.8801e-18)
(0.003 1.82851e-21 1.91613e-18)
(0.003 5.04481e-20 1.87392e-18)
(0.003 1.49354e-20 1.8111e-18)
(0.003 5.81538e-20 1.73674e-18)
(0.003 5.8348e-20 1.63993e-18)
(0.003 1.20294e-19 1.42831e-18)
(0.003 1.95892e-19 1.44117e-18)
(0.003 1.29301e-19 1.53968e-18)
(0.003 -1.85778e-20 1.53113e-18)
(0.003 4.39269e-20 1.27258e-18)
(0.003 1.72829e-19 1.17271e-18)
(0.003 1.2129e-19 1.1003e-18)
(0.003 1.04069e-19 8.15016e-19)
(0.003 1.4362e-19 6.87959e-19)
(0.003 1.69798e-19 6.85641e-19)
(0.003 1.60336e-19 6.87845e-19)
(0.003 1.55122e-19 7.59176e-19)
(0.003 1.0456e-19 8.7426e-19)
(0.003 -4.26994e-20 9.06388e-19)
(0.003 -2.47829e-19 6.36938e-19)
(0.003 -1.8747e-19 4.13382e-19)
(0.003 -6.64171e-20 4.29965e-19)
(0.003 2.68764e-20 3.65053e-19)
(0.003 4.43389e-20 2.23607e-19)
(0.003 -9.36952e-21 2.68595e-19)
(0.003 1.1191e-20 2.52368e-19)
(0.003 -4.83572e-20 2.80027e-19)
(0.003 -1.61701e-21 2.47252e-19)
(0.003 -5.31828e-20 1.86491e-19)
(0.003 -1.24609e-19 1.4893e-19)
(0.003 -1.48776e-19 2.12572e-20)
(0.003 -1.10146e-19 -2.94768e-19)
(0.003 -6.45619e-20 -3.11884e-19)
(0.003 -1.14037e-19 -1.63125e-19)
(0.003 -1.16891e-19 -2.10156e-19)
(0.003 -8.18245e-20 -2.73283e-19)
(0.003 -1.60306e-19 9.79508e-19)
(0.003 -1.2651e-19 1.59465e-18)
(0.003 -2.54848e-20 1.85916e-18)
(0.003 -1.69766e-19 1.87537e-18)
(0.003 -2.06339e-19 1.92602e-18)
(0.003 -5.9878e-20 1.92727e-18)
(0.003 -3.0206e-20 1.92899e-18)
(0.003 -1.35173e-20 1.85371e-18)
(0.003 7.07153e-20 1.70809e-18)
(0.003 2.02097e-19 1.48191e-18)
(0.003 1.33684e-19 1.42287e-18)
(0.003 6.52628e-20 1.49781e-18)
(0.003 -7.45853e-20 1.46513e-18)
(0.003 -8.07829e-21 1.38833e-18)
(0.003 1.42719e-19 1.20351e-18)
(0.003 1.15445e-19 9.55873e-19)
(0.003 8.48334e-20 7.1221e-19)
(0.003 -5.24038e-20 6.92335e-19)
(0.003 1.28771e-19 8.08525e-19)
(0.003 2.39217e-19 7.57217e-19)
(0.003 2.23147e-19 8.50597e-19)
(0.003 -5.21541e-21 7.70862e-19)
(0.003 -2.30374e-19 7.69598e-19)
(0.003 -1.98864e-19 5.83035e-19)
(0.003 -8.92118e-20 3.98873e-19)
(0.003 -6.1506e-20 4.02872e-19)
(0.003 -4.30483e-20 3.15528e-19)
(0.003 1.53156e-20 3.13718e-19)
(0.003 2.47642e-20 3.07706e-19)
(0.003 3.02023e-20 2.56128e-19)
(0.003 2.90496e-20 2.03687e-19)
(0.003 2.60595e-21 2.09833e-19)
(0.003 -1.22654e-19 1.87933e-19)
(0.003 -2.529e-19 2.14521e-19)
(0.003 -3.425e-19 8.87584e-20)
(0.003 -2.10005e-19 -2.38258e-19)
(0.003 7.77069e-20 -3.358e-19)
(0.003 4.92995e-20 -1.83143e-19)
(0.003 -1.27457e-19 -2.51828e-19)
(0.003 -1.04359e-19 -3.44276e-19)
(0.003 -1.8417e-19 9.00336e-19)
(0.003 -1.93818e-19 1.63287e-18)
(0.003 -1.45642e-19 1.96064e-18)
(0.003 -3.00884e-20 1.88313e-18)
(0.003 -3.96393e-20 1.81277e-18)
(0.003 -9.41794e-20 1.89789e-18)
(0.003 -1.95996e-19 1.91781e-18)
(0.003 -1.97496e-19 1.81102e-18)
(0.003 1.6406e-20 1.76271e-18)
(0.003 1.12324e-19 1.57674e-18)
(0.003 1.08365e-19 1.48573e-18)
(0.003 1.01644e-19 1.51e-18)
(0.003 9.53912e-20 1.44438e-18)
(0.003 -1.70378e-20 1.35668e-18)
(0.003 1.09315e-20 1.2863e-18)
(0.003 1.65149e-20 1.0627e-18)
(0.003 9.94751e-20 8.62189e-19)
(0.003 2.10913e-19 5.77875e-19)
(0.003 3.06916e-19 6.54193e-19)
(0.003 2.61784e-19 7.59869e-19)
(0.003 3.13175e-20 8.97713e-19)
(0.003 -2.04317e-19 8.6616e-19)
(0.003 -1.88664e-19 6.99022e-19)
(0.003 -9.18849e-20 5.51112e-19)
(0.003 -1.06781e-19 4.51778e-19)
(0.003 -8.6433e-20 4.43e-19)
(0.003 -1.0841e-20 4.14965e-19)
(0.003 -4.60326e-20 3.72791e-19)
(0.003 4.05491e-21 3.09774e-19)
(0.003 5.18865e-21 2.46516e-19)
(0.003 1.25753e-19 2.17624e-19)
(0.003 -1.15664e-19 1.50267e-19)
(0.003 -2.11576e-19 1.20129e-19)
(0.003 -1.1832e-19 1.44426e-19)
(0.003 -1.84776e-19 1.13289e-19)
(0.003 -2.15849e-19 1.08506e-20)
(0.003 -1.84278e-19 -1.7648e-19)
(0.003 -1.05067e-19 -1.88911e-19)
(0.003 7.03996e-20 -3.03799e-19)
(0.003 1.14282e-19 -3.47874e-19)
(0.003 -6.48655e-20 9.24678e-19)
(0.003 -1.42189e-19 1.55087e-18)
(0.003 -1.70863e-19 1.82689e-18)
(0.003 4.51494e-20 1.89048e-18)
(0.003 3.85586e-20 1.88683e-18)
(0.003 -1.81843e-19 1.87215e-18)
(0.003 -2.95017e-19 1.88924e-18)
(0.003 -2.21002e-19 1.87856e-18)
(0.003 4.73189e-20 1.8031e-18)
(0.003 1.19955e-19 1.63185e-18)
(0.003 8.74841e-21 1.53717e-18)
(0.003 5.01535e-20 1.50881e-18)
(0.003 1.25324e-19 1.44176e-18)
(0.003 1.14195e-19 1.32464e-18)
(0.003 6.4151e-20 1.23735e-18)
(0.003 -2.75398e-21 1.05909e-18)
(0.003 -1.49602e-20 9.54474e-19)
(0.003 1.63036e-19 7.93485e-19)
(0.003 2.86002e-19 8.06222e-19)
(0.003 1.09574e-19 7.15569e-19)
(0.003 -1.38858e-19 7.56261e-19)
(0.003 -1.60038e-19 7.37487e-19)
(0.003 -5.54798e-20 7.67858e-19)
(0.003 -1.04547e-20 6.32039e-19)
(0.003 -1.77538e-20 4.32424e-19)
(0.003 -1.25427e-19 3.90734e-19)
(0.003 3.42982e-20 4.06154e-19)
(0.003 5.01242e-20 3.74065e-19)
(0.003 -1.61677e-21 3.05058e-19)
(0.003 3.1092e-20 2.21822e-19)
(0.003 -1.85084e-20 1.91762e-19)
(0.003 -1.17083e-19 6.53079e-20)
(0.003 -4.67176e-20 1.03294e-19)
(0.003 1.37622e-20 2.19759e-19)
(0.003 -3.92121e-20 1.34438e-19)
(0.003 -2.25126e-19 2.7426e-20)
(0.003 -1.4801e-19 3.32983e-20)
(0.003 -1.40102e-19 -2.93628e-20)
(0.003 -2.24128e-20 -2.14801e-19)
(0.003 1.15723e-19 -2.5354e-19)
(0.003 1.14251e-19 1.02564e-18)
(0.003 1.60819e-19 1.62538e-18)
(0.003 7.64341e-20 1.75559e-18)
(0.003 -7.47775e-20 1.81243e-18)
(0.003 -1.43079e-19 1.86548e-18)
(0.003 -1.68598e-19 1.8448e-18)
(0.003 -2.37042e-19 1.78765e-18)
(0.003 -2.1066e-19 1.80765e-18)
(0.003 -1.21559e-19 1.86538e-18)
(0.003 3.55127e-20 1.78848e-18)
(0.003 1.24594e-19 1.53218e-18)
(0.003 1.01589e-19 1.52121e-18)
(0.003 1.84934e-19 1.37874e-18)
(0.003 2.39152e-19 1.36836e-18)
(0.003 3.36566e-20 1.33864e-18)
(0.003 -6.28215e-20 1.12863e-18)
(0.003 -7.97399e-20 8.96092e-19)
(0.003 -1.66474e-19 6.9499e-19)
(0.003 -1.49526e-19 8.45488e-19)
(0.003 -2.26517e-20 7.44742e-19)
(0.003 -7.81308e-20 7.2832e-19)
(0.003 -1.01336e-20 8.0937e-19)
(0.003 -3.39511e-20 8.37086e-19)
(0.003 3.63519e-20 5.9977e-19)
(0.003 1.40699e-19 4.09912e-19)
(0.003 -1.11891e-20 3.6168e-19)
(0.003 1.45857e-20 4.61848e-19)
(0.003 7.62342e-20 4.11918e-19)
(0.003 5.0407e-20 3.13225e-19)
(0.003 3.0533e-20 2.12708e-19)
(0.003 -5.41528e-20 1.79458e-19)
(0.003 -5.1049e-20 6.27262e-20)
(0.003 1.1679e-20 5.12015e-20)
(0.003 -3.19286e-20 1.59252e-19)
(0.003 7.95374e-20 1.84845e-19)
(0.003 3.47174e-20 1.12099e-19)
(0.003 6.48646e-21 7.4033e-21)
(0.003 -6.96194e-20 -1.45663e-19)
(0.003 -1.25404e-19 -2.95768e-19)
(0.003 -9.37783e-20 -3.29676e-19)
(0.003 2.79826e-19 9.83903e-19)
(0.003 2.26337e-19 1.55955e-18)
(0.003 2.1775e-20 1.73674e-18)
(0.003 -1.18434e-19 1.76347e-18)
(0.003 -7.93592e-20 1.80382e-18)
(0.003 3.21361e-20 1.78931e-18)
(0.003 2.83666e-21 1.77037e-18)
(0.003 -2.27061e-19 1.72657e-18)
(0.003 -2.71036e-19 1.77766e-18)
(0.003 -7.09636e-20 1.86836e-18)
(0.003 1.83157e-19 1.73408e-18)
(0.003 1.39255e-19 1.61804e-18)
(0.003 1.65489e-19 1.46371e-18)
(0.003 1.78918e-19 1.41133e-18)
(0.003 -2.29011e-20 1.29755e-18)
(0.003 -1.00941e-19 1.0578e-18)
(0.003 -6.90498e-20 8.82024e-19)
(0.003 -1.21969e-19 7.2824e-19)
(0.003 -2.18543e-19 8.37019e-19)
(0.003 -1.1498e-19 8.17335e-19)
(0.003 -1.17375e-19 7.44984e-19)
(0.003 -1.37289e-19 7.39378e-19)
(0.003 -8.605e-20 7.44157e-19)
(0.003 -3.79144e-20 6.28328e-19)
(0.003 1.37359e-19 5.68515e-19)
(0.003 2.05034e-19 4.21605e-19)
(0.003 1.2746e-20 3.75111e-19)
(0.003 7.42778e-20 3.56667e-19)
(0.003 1.10151e-19 2.80916e-19)
(0.003 2.31254e-20 2.03829e-19)
(0.003 -1.54334e-20 1.80892e-19)
(0.003 1.69438e-21 4.26259e-20)
(0.003 -5.31091e-20 5.66475e-20)
(0.003 -6.53059e-20 1.4114e-19)
(0.003 8.02704e-20 2.34546e-19)
(0.003 2.46035e-19 1.69229e-19)
(0.003 1.17233e-19 -3.36217e-20)
(0.003 -4.06413e-21 -2.29168e-19)
(0.003 -1.66056e-19 -2.9928e-19)
(0.003 -2.699e-19 -1.81086e-19)
(0.003 2.447e-19 9.45432e-19)
(0.003 2.4283e-19 1.53835e-18)
(0.003 -1.77308e-20 1.75395e-18)
(0.003 1.01881e-20 1.69427e-18)
(0.003 1.14984e-19 1.74275e-18)
(0.003 1.37369e-19 1.7838e-18)
(0.003 6.14039e-20 1.81083e-18)
(0.003 -8.55319e-20 1.73042e-18)
(0.003 -1.29797e-19 1.69223e-18)
(0.003 -1.81448e-19 1.87544e-18)
(0.003 -6.29685e-20 1.82967e-18)
(0.003 4.28642e-20 1.64096e-18)
(0.003 3.5604e-20 1.49884e-18)
(0.003 -1.5571e-19 1.46509e-18)
(0.003 -1.6979e-19 1.27704e-18)
(0.003 -5.22401e-20 1.10594e-18)
(0.003 -9.99872e-20 9.35233e-19)
(0.003 -1.64955e-19 7.5608e-19)
(0.003 -2.14356e-19 8.09622e-19)
(0.003 -1.05466e-19 8.24034e-19)
(0.003 -6.30581e-20 7.29426e-19)
(0.003 -3.29852e-20 7.27231e-19)
(0.003 5.93923e-20 7.47472e-19)
(0.003 6.48178e-20 6.0612e-19)
(0.003 5.05694e-20 4.6723e-19)
(0.003 1.38467e-19 4.37895e-19)
(0.003 6.53921e-20 4.20136e-19)
(0.003 7.9078e-20 4.3117e-19)
(0.003 5.23934e-20 3.26306e-19)
(0.003 -1.85124e-20 1.18263e-19)
(0.003 2.8847e-20 2.23481e-20)
(0.003 8.2223e-20 5.17241e-20)
(0.003 -9.82609e-21 1.05487e-19)
(0.003 1.40368e-20 1.43203e-19)
(0.003 1.31975e-19 2.51905e-19)
(0.003 1.91719e-19 1.66327e-19)
(0.003 1.16377e-19 -2.19571e-19)
(0.003 8.62165e-20 -2.93774e-19)
(0.003 7.92546e-20 -2.33142e-19)
(0.003 -3.31036e-20 -9.55255e-20)
(0.003 -7.42247e-20 1.03213e-18)
(0.003 -4.10559e-20 1.64834e-18)
(0.003 7.09646e-20 1.72006e-18)
(0.003 5.63693e-20 1.67996e-18)
(0.003 2.32768e-20 1.72415e-18)
(0.003 9.01926e-20 1.86095e-18)
(0.003 8.78758e-20 1.79736e-18)
(0.003 1.51742e-19 1.64294e-18)
(0.003 -3.84399e-20 1.69196e-18)
(0.003 -1.74584e-19 1.78708e-18)
(0.003 -1.3988e-19 1.78188e-18)
(0.003 -1.42884e-19 1.71315e-18)
(0.003 -2.7867e-19 1.5868e-18)
(0.003 -2.07873e-19 1.32822e-18)
(0.003 -1.13558e-19 1.13534e-18)
(0.003 -1.22482e-19 1.05442e-18)
(0.003 -1.6182e-19 9.87611e-19)
(0.003 -1.17039e-19 8.56979e-19)
(0.003 -1.78223e-19 7.73411e-19)
(0.003 -2.15013e-19 8.26949e-19)
(0.003 -6.77646e-20 7.43373e-19)
(0.003 9.092e-20 7.3825e-19)
(0.003 1.74787e-19 7.76715e-19)
(0.003 1.70684e-19 6.46199e-19)
(0.003 1.45609e-19 5.85327e-19)
(0.003 8.6725e-20 4.44305e-19)
(0.003 7.31741e-21 3.79271e-19)