/*--------------------------------*- C++ -*----------------------------------*\
| =========                 |                                                 |
| \\      /  F ield         | OpenFOAM: The Open Source CFD Toolbox           |
|  \\    /   O peration     | Version:  v2012                                 |
|   \\  /    A nd           | Website:  www.openfoam.com                      |
|    \\/     M anipulation  |                                                 |
\*---------------------------------------------------------------------------*/
FoamFile
{
    version     2.0;
    format      ascii;
    class       volScalarField;
    location    "45";
    object      p;
}
// * * * * * * * * * * * * * * * * * * * * * * * * * * * * * * * * * * * * * //

dimensions      [0 2 -2 0 0 0 0];


internalField   nonuniform List<scalar> 
64000
(
-9.02063e-22
-4.93714e-21
-3.67294e-21
-5.55127e-21
-9.21839e-21
-3.44425e-21
-5.28752e-21
-5.10014e-21
-5.75495e-21
-6.17071e-21
-4.34106e-21
-7.70373e-21
-5.72063e-21
-8.00594e-21
-5.86933e-21
-6.05834e-21
-2.11685e-21
-1.79555e-21
-2.26035e-21
-2.70967e-21
-2.30915e-21
-3.26827e-21
-3.80455e-21
-4.07938e-21
-2.93789e-21
-1.67451e-21
7.3336e-22
-5.84571e-21
-2.74256e-21
-1.70141e-21
-1.43707e-21
-1.54756e-21
-2.47955e-21
-2.08898e-21
-1.90285e-21
-5.17746e-21
-3.64335e-22
-2.4382e-22
-1.0114e-21
-1.00408e-21
-8.53832e-21
-1.14223e-20
-1.14864e-20
-9.23978e-21
-1.17656e-20
-1.18725e-20
-8.99947e-21
-7.36652e-21
-4.84774e-21
-1.14221e-20
-1.25295e-20
-1.23536e-20
-7.12109e-21
-7.60931e-21
-8.90727e-21
-8.05286e-21
-5.57089e-21
-8.39799e-23
-2.68687e-21
-4.98212e-21
-5.0081e-22
-4.02591e-21
-7.69888e-21
-1.06893e-20
-5.8844e-21
-3.54752e-21
-3.54458e-21
-6.83634e-21
-2.86171e-21
-1.8099e-21
1.63088e-22
-1.4369e-21
-6.11252e-21
-4.356e-21
-1.33144e-21
-1.585e-21
-3.69795e-22
4.32211e-24
-2.10577e-21
-2.38481e-21
-7.50262e-21
-9.62806e-21
-1.37067e-20
-1.16356e-20
-1.03607e-20
-1.17986e-20
-1.17169e-20
-8.69046e-21
-8.58779e-21
-1.09531e-20
-9.79706e-21
-1.19576e-20
-9.48005e-21
-7.98522e-21
-6.63179e-21
-3.9387e-21
-1.10971e-20
-5.77559e-21
-2.36285e-21
-9.47573e-22
-3.80484e-21
-8.86694e-21
-8.91822e-21
-7.7673e-21
-4.64792e-21
-5.01438e-21
-4.37881e-21
-6.1386e-21
-3.66992e-21
-3.78009e-21
-2.18851e-21
-1.83125e-21
-4.3139e-21
-2.87052e-21
-2.36168e-21
-1.69511e-21
-3.61192e-22
1.23178e-21
-5.10884e-22
-7.87788e-23
-8.48226e-21
-9.88641e-21
-1.17711e-20
-1.51685e-20
-1.3027e-20
-1.63598e-20
-1.55161e-20
-6.79959e-21
-9.22356e-21
-1.19131e-20
-1.04561e-20
-1.21697e-20
-1.08297e-20
-8.56315e-21
-8.14729e-21
-7.46228e-21
-7.00274e-21
-8.11961e-21
-1.84711e-21
-7.4001e-22
-5.28048e-21
-7.35043e-21
-1.18228e-20
-8.97361e-21
-9.25593e-21
-1.50746e-21
-5.02868e-21
-4.34032e-21
-5.01721e-21
-5.75221e-21
-2.00476e-21
-2.03624e-21
-3.38328e-21
-3.12238e-21
-3.04667e-21
-1.79906e-21
-1.97506e-21
8.04691e-22
-1.42832e-21
-1.6723e-22
-1.61288e-20
-1.10137e-20
-1.14038e-20
-1.43261e-20
-1.37829e-20
-1.69452e-20
-1.37475e-20
-9.20586e-21
-7.65202e-21
-1.41632e-20
-1.42822e-20
-8.24931e-21
-9.36965e-21
-7.91742e-21
-1.18957e-20
-1.38578e-20
-6.89823e-21
-4.3325e-21
-5.89423e-21
-1.57307e-21
-4.5658e-21
-7.83372e-21
-1.05576e-20
-1.00031e-20
-6.15916e-21
-3.06016e-21
-4.20819e-21
-5.79908e-21
-7.41992e-21
-2.84696e-21
-1.77405e-21
4.41949e-23
-1.80303e-21
-2.68173e-21
-5.40274e-21
-2.97682e-21
-9.62756e-22
-2.21872e-22
1.72844e-21
-1.52128e-21
-1.33619e-20
-1.07333e-20
-1.00046e-20
-1.52142e-20
-1.46741e-20
-1.43801e-20
-1.11044e-20
-1.43005e-20
-1.33171e-20
-1.32529e-20
-1.1975e-20
-9.40824e-21
-1.11283e-20
-8.0153e-21
-1.0183e-20
-1.23506e-20
-6.02052e-21
-4.51151e-21
-3.53159e-21
-4.73122e-21
-4.39032e-21
-7.99444e-21
-1.11636e-20
-1.02871e-20
-8.10639e-21
-2.27869e-21
-4.48354e-21
-3.42207e-21
-6.28671e-21
-3.94557e-21
-4.24854e-21
-3.34367e-21
-1.85319e-21
-1.43894e-21
-3.44196e-21
-7.91891e-22
-1.09162e-21
-1.19517e-21
1.71082e-22
6.15707e-22
-1.45065e-20
-1.35686e-20
-9.40622e-21
-1.33488e-20
-1.4357e-20
-1.4843e-20
-1.15521e-20
-1.33053e-20
-1.46466e-20
-1.24628e-20
-1.23261e-20
-1.20596e-20
-1.10331e-20
-9.24129e-21
-8.78964e-21
-1.0597e-20
-6.42787e-21
-1.75867e-21
-3.57775e-21
-5.4145e-21
-6.72598e-21
-1.12022e-20
-1.2017e-20
-1.21059e-20
-4.48061e-21
-5.55085e-21
-4.60229e-21
-1.53901e-21
-4.19311e-21
-2.76086e-21
-5.95541e-21
-5.85839e-21
1.64124e-21
-9.94037e-22
-2.8177e-21
-2.64425e-21
-1.65152e-21
-7.62465e-22
-1.53497e-21
-9.91132e-22
-1.38974e-20
-1.35644e-20
-1.12836e-20
-1.04832e-20
-1.41583e-20
-1.27605e-20
-1.2884e-20
-1.89966e-20
-1.6383e-20
-1.3205e-20
-1.06802e-20
-1.04445e-20
-1.05692e-20
-1.09456e-20
-8.24888e-21
-1.0161e-20
-6.42681e-21
-3.00944e-21
-5.54381e-21
-3.88652e-21
-6.17386e-21
-9.92867e-21
-1.03077e-20
-9.57279e-21
-5.93546e-21
-6.8233e-21
-3.10591e-21
-3.90942e-21
-4.10002e-21
-3.34099e-21
-4.04742e-21
-4.41981e-21
-8.00195e-22
-2.73952e-21
-4.77014e-21
-3.02722e-21
-8.14308e-22
-2.23256e-21
-1.12382e-21
-1.77696e-21
-1.9167e-20
-1.56897e-20
-1.1683e-20
-1.25416e-20
-1.46191e-20
-1.61049e-20
-1.42095e-20
-1.36868e-20
-1.42829e-20
-1.69884e-20
-8.47407e-21
-9.35139e-21
-1.35605e-20
-9.99497e-21
-9.81235e-21
-1.00526e-20
-5.96286e-21
-6.89608e-22
-6.27662e-21
-9.05586e-21
-3.55784e-21
-7.84756e-21
-1.27583e-20
-7.92111e-21
-3.11492e-21
-5.24005e-21
-7.87767e-21
-6.71793e-21
-4.52109e-21
-4.19218e-21
-3.00768e-21
-2.64871e-21
-1.244e-21
-3.05823e-21
-5.95746e-21
-1.75582e-21
-1.53575e-22
-1.92275e-21
-1.40296e-21
-2.08049e-21
-1.23872e-20
-1.29433e-20
-1.28099e-20
-1.24797e-20
-1.64912e-20
-1.75208e-20
-1.27922e-20
-1.32533e-20
-1.28775e-20
-1.59311e-20
-1.28164e-20
-9.02631e-21
-1.13253e-20
-9.13674e-21
-1.13715e-20
-9.12491e-21
-6.66732e-21
-4.76887e-21
-2.62081e-21
-5.31083e-21
-7.3644e-21
-8.85587e-21
-1.15257e-20
-9.51015e-21
-7.23758e-21
-5.65909e-21
-4.69669e-21
-4.79965e-21
-6.16067e-21
-4.95702e-21
-1.82836e-21
-2.12187e-21
-2.99533e-21
-3.02825e-21
-6.32478e-21
-4.3747e-21
-2.12621e-21
-5.01981e-22
-8.17381e-22
-1.89626e-22
-1.04427e-20
-1.41183e-20
-1.49826e-20
-1.69526e-20
-1.42838e-20
-1.56236e-20
-1.73416e-20
-1.12962e-20
-1.35234e-20
-1.57646e-20
-1.20727e-20
-1.00826e-20
-1.13673e-20
-1.03773e-20
-1.18246e-20
-1.18283e-20
-6.65122e-21
-3.93529e-22
7.98776e-22
-6.16106e-21
-1.03219e-20
-1.34686e-20
-1.07226e-20
-1.02662e-20
-9.72554e-21
-4.89331e-21
-1.12384e-21
-3.31253e-21
-5.47706e-21
-8.59578e-21
-2.7926e-21
2.11284e-22
-5.66736e-21
-2.69905e-21
-1.3163e-21
-7.14661e-21
-2.62627e-21
-1.06909e-21
-1.12137e-21
-8.49265e-22
-1.08894e-20
-1.52464e-20
-1.52052e-20
-1.49011e-20
-1.55513e-20
-1.83696e-20
-1.30195e-20
-1.45352e-20
-1.08523e-20
-1.49618e-20
-1.78924e-20
-1.07554e-20
-8.90638e-21
-1.18962e-20
-1.07751e-20
-1.0746e-20
-7.30663e-21
-1.81764e-21
-2.3736e-21
-3.86831e-21
-8.25309e-21
-1.25044e-20
-1.18749e-20
-1.1779e-20
-1.15485e-20
-3.83217e-21
-3.62163e-21
-4.5078e-21
-5.95198e-21
-4.50477e-21
-1.79727e-21
-1.21713e-21
-4.75426e-21
-4.73814e-21
-3.4312e-21
-3.15021e-21
-7.43722e-22
-1.15237e-21
-1.86098e-21
-2.71466e-21
-1.59044e-20
-1.45703e-20
-1.50843e-20
-1.53368e-20
-1.77859e-20
-1.72692e-20
-1.74175e-20
-1.77501e-20
-1.21689e-20
-1.35334e-20
-1.52997e-20
-1.11218e-20
-9.84264e-21
-1.23214e-20
-1.04288e-20
-1.12982e-20
-6.97525e-21
-2.44922e-21
-2.10086e-21
-8.20077e-21
-7.62339e-21
-1.15895e-20
-1.11565e-20
-1.26233e-20
-7.14988e-21
-4.11093e-21
-4.05276e-21
-5.58447e-21
-5.54822e-21
-3.21559e-21
-6.26739e-21
-3.79124e-21
-5.89949e-22
-6.11155e-21
-6.86204e-21
-1.5522e-21
-4.34405e-22
-2.55415e-21
-1.25046e-21
-1.79088e-21
-1.86208e-20
-1.83152e-20
-1.52376e-20
-1.77902e-20
-1.47669e-20
-1.55866e-20
-1.66896e-20
-1.48528e-20
-1.33901e-20
-1.70917e-20
-1.36299e-20
-1.20843e-20
-1.23533e-20
-1.19761e-20
-1.12848e-20
-1.06841e-20
-7.62448e-21
-9.22427e-22
-2.12426e-21
-7.311e-21
-9.09292e-21
-1.20825e-20
-1.20447e-20
-1.14508e-20
-7.81359e-21
-2.59107e-21
-1.02837e-21
-5.95768e-21
-6.58696e-21
-1.01549e-21
-3.39373e-21
-7.72547e-21
-3.24333e-21
-3.86027e-21
-6.5677e-21
-3.5219e-21
-1.91399e-21
-6.67082e-22
-2.10697e-22
-1.93773e-21
-1.23031e-20
-1.95926e-20
-1.91423e-20
-1.64747e-20
-1.41615e-20
-1.61713e-20
-1.83542e-20
-1.98101e-20
-1.51188e-20
-1.29317e-20
-1.08645e-20
-1.48386e-20
-1.35859e-20
-1.04138e-20
-8.76559e-21
-9.7004e-21
-9.021e-21
-5.134e-21
-5.14775e-21
-6.54684e-21
-1.09309e-20
-8.99703e-21
-1.08158e-20
-1.23312e-20
-7.35533e-21
-4.29351e-21
-4.59938e-21
-5.67884e-21
-3.99079e-21
-2.19736e-21
-1.39884e-21
-3.81289e-21
-4.00793e-21
-3.04583e-21
-5.89698e-21
-2.49404e-21
-3.52433e-22
-2.41478e-21
-1.35225e-21
1.64483e-22
-1.3233e-20
-1.49948e-20
-2.01721e-20
-1.60835e-20
-1.6035e-20
-1.64072e-20
-1.59203e-20
-1.76855e-20
-1.53338e-20
-1.12853e-20
-1.46121e-20
-1.36252e-20
-1.37798e-20
-1.07275e-20
-1.2213e-20
-1.23197e-20
-8.18173e-21
-5.3082e-21
-3.56739e-21
-5.85268e-21
-1.02774e-20
-1.31993e-20
-1.25215e-20
-7.61267e-21
-4.87408e-21
-6.30594e-21
-6.56347e-21
-4.00129e-21
-3.32269e-21
-1.65899e-21
-2.46563e-21
-3.18617e-21
-4.66377e-21
-4.15945e-21
-6.96293e-21
-4.90079e-21
1.57056e-21
5.86207e-22
-1.63923e-21
-3.12506e-23
-1.40402e-20
-1.40258e-20
-1.76458e-20
-1.35228e-20
-1.41573e-20
-1.68648e-20
-1.83407e-20
-1.91086e-20
-1.59286e-20
-1.41045e-20
-1.13624e-20
-1.57786e-20
-8.87212e-21
-1.06091e-20
-1.29995e-20
-1.13728e-20
-9.4342e-21
-6.3469e-21
-7.90127e-21
-5.49296e-21
-1.18978e-20
-1.13594e-20
-1.22401e-20
-5.82216e-21
-6.65821e-21
-1.29103e-21
-5.69331e-21
-8.89072e-21
-8.26838e-22
-3.40905e-21
-2.67986e-21
-4.37082e-21
-5.98802e-21
-2.12453e-21
-1.63706e-21
-3.3505e-21
-1.4839e-21
-4.09786e-22
-3.79357e-22
-1.58786e-21
-1.01833e-20
-1.51355e-20
-1.95609e-20
-1.38393e-20
-1.27738e-20
-1.93702e-20
-1.56664e-20
-1.57467e-20
-1.67373e-20
-1.6521e-20
-1.36605e-20
-1.24585e-20
-9.96309e-21
-9.90713e-21
-1.63115e-20
-1.24184e-20
-9.14653e-21
-2.33909e-21
-7.07703e-21
-9.54185e-21
-1.53026e-20
-9.75086e-21
-7.10602e-21
-6.06637e-21
-6.36503e-21
-5.98596e-21
-6.81474e-21
-6.39791e-21
-3.95285e-21
-4.69862e-21
-3.31047e-21
-1.7887e-21
-2.66745e-21
-1.89759e-21
-6.88183e-22
-2.67043e-21
-1.78147e-21
-2.91279e-21
1.37344e-21
-6.68418e-23
-8.0588e-21
-1.17682e-20
-1.62404e-20
-1.55937e-20
-1.6515e-20
-1.66166e-20
-1.49764e-20
-1.44045e-20
-1.63544e-20
-1.6451e-20
-1.28713e-20
-1.32781e-20
-1.08102e-20
-8.14712e-21
-1.4396e-20
-1.48567e-20
-9.6618e-21
-7.7138e-21
-1.11662e-20
-1.12383e-20
-1.19854e-20
-3.32835e-21
-6.08985e-21
-6.66839e-21
-4.79004e-21
-5.91529e-21
-8.23113e-21
-5.1246e-21
-3.74638e-21
-5.39983e-21
-5.92634e-21
-1.69056e-21
-1.93199e-21
-2.39394e-21
-1.9001e-22
-2.04581e-21
-6.60932e-22
-1.90402e-21
-2.819e-21
-2.61296e-21
-5.05102e-21
-1.30933e-20
-1.81312e-20
-1.66221e-20
-1.52042e-20
-1.31422e-20
-1.23566e-20
-1.58131e-20
-1.97985e-20
-1.61251e-20
-1.26347e-20
-1.28047e-20
-1.1523e-20
-1.13366e-20
-1.34107e-20
-1.24068e-20
-8.17974e-21
-7.2626e-21
-1.43999e-20
-9.62436e-21
-1.01703e-20
-7.99966e-21
-5.85762e-21
-6.76788e-21
-3.2376e-21
-3.00716e-21
-1.13578e-20
-9.02398e-21
-7.9082e-21
-1.59815e-21
-1.88306e-21
-1.93604e-21
-2.70671e-21
-2.02884e-21
-2.11138e-21
-2.61778e-21
-2.18179e-21
-1.37084e-21
-2.82363e-21
-2.54328e-21
-9.87929e-21
-1.28807e-20
-1.57348e-20
-1.35807e-20
-1.19517e-20
-1.34164e-20
-1.56194e-20
-1.56282e-20
-1.68733e-20
-1.62899e-20
-1.67348e-20
-1.46572e-20
-9.80216e-21
-1.35403e-20
-1.3933e-20
-6.77414e-21
-7.27213e-21
-6.20184e-21
-1.38934e-20
-9.88808e-21
-9.59455e-21
-5.54506e-21
-6.3358e-21
-9.10782e-21
-7.90413e-21
-3.6712e-21
-7.63052e-21
-6.74579e-21
-6.36597e-21
-2.88504e-21
-3.53629e-21
-1.62199e-21
-4.35319e-21
-1.33718e-21
-2.42803e-21
-4.5095e-21
-5.09474e-22
-2.03387e-21
-2.75569e-21
-2.38174e-21
-1.76805e-20
-1.50403e-20
-1.36612e-20
-1.36652e-20
-1.44827e-20
-1.22401e-20
-1.55174e-20
-1.4595e-20
-1.53467e-20
-1.55071e-20
-1.55945e-20
-1.61e-20
-1.38688e-20
-1.66439e-20
-1.14669e-20
-8.44109e-21
-7.25015e-21
-6.48068e-21
-1.01887e-20
-9.75629e-21
-1.05199e-20
-2.88693e-21
-7.54643e-21
-8.68986e-21
-7.76729e-21
-5.58161e-21
-6.6862e-21
-9.24763e-21
-4.88096e-21
-1.28462e-21
-3.64576e-21
-1.49457e-21
-1.42278e-21
-2.97866e-21
-5.45457e-21
-6.08411e-21
-1.23584e-21
-1.52068e-21
-7.48391e-22
5.49194e-23
-1.82728e-20
-1.69098e-20
-1.32196e-20
-1.39568e-20
-1.47961e-20
-1.69697e-20
-1.47243e-20
-1.26377e-20
-1.75255e-20
-1.23722e-20
-1.5166e-20
-1.73352e-20
-1.41375e-20
-1.16555e-20
-1.06908e-20
-8.25762e-21
-5.15362e-21
-3.68455e-21
-6.50908e-21
-1.06315e-20
-1.16778e-20
-6.08563e-21
-9.03733e-21
-9.19571e-21
-8.625e-21
-9.26154e-21
-6.78839e-21
-6.61002e-21
-3.53738e-21
-1.23788e-21
-2.28232e-21
-4.45005e-21
-1.12137e-21
-8.97568e-22
-9.10974e-21
-4.90484e-21
-1.96615e-21
-2.86669e-22
-1.5748e-21
-1.10554e-21
-1.41415e-20
-1.47031e-20
-1.6777e-20
-1.40391e-20
-1.45992e-20
-1.60671e-20
-1.60162e-20
-1.70954e-20
-1.33237e-20
-1.49952e-20
-1.66045e-20
-1.67468e-20
-9.20749e-21
-1.40919e-20
-1.48736e-20
-8.21299e-21
-3.84366e-21
-3.76275e-21
-7.8532e-21
-6.65937e-21
-7.70609e-21
-9.64052e-21
-1.10143e-20
-8.92721e-21
-1.0734e-20
-4.92146e-21
-6.47588e-21
-7.99674e-21
-1.31611e-21
-2.55891e-21
-6.03425e-21
-5.31717e-21
-4.46238e-22
-5.36129e-21
-8.73623e-21
-5.29476e-21
-3.46747e-21
8.56399e-22
-2.676e-21
-3.48417e-21
-8.62672e-21
-1.37466e-20
-1.61566e-20
-1.57503e-20
-1.34476e-20
-1.67689e-20
-1.5859e-20
-1.53825e-20
-1.17501e-20
-1.61408e-20
-1.8946e-20
-1.52326e-20
-8.64586e-21
-9.95959e-21
-1.1452e-20
-6.78561e-21
-6.8066e-21
-9.61157e-21
-7.12741e-21
-7.13215e-21
-7.81414e-21
-1.00608e-20
-7.95378e-21
-8.28851e-21
-1.06469e-20
-7.98495e-21
-4.03241e-21
-4.82642e-21
-4.6407e-21
-4.15375e-21
-4.08237e-21
-5.28967e-21
-2.02682e-21
-4.03348e-21
-8.98771e-21
-5.55345e-21
-2.41724e-21
-1.00512e-21
-1.85741e-21
-2.20272e-21
-1.24072e-20
-1.56547e-20
-1.79189e-20
-1.27199e-20
-1.28602e-20
-1.55127e-20
-1.57573e-20
-1.81805e-20
-1.02414e-20
-1.30887e-20
-1.99398e-20
-1.66955e-20
-1.11437e-20
-1.13375e-20
-7.1456e-21
-7.56368e-21
-8.44482e-21
-5.89812e-21
-4.46676e-21
-7.86556e-21
-8.41683e-21
-1.22133e-20
-1.05056e-20
-1.15654e-20
-8.85357e-21
-7.19165e-21
-4.15484e-21
-7.62892e-21
-5.37905e-21
-2.66417e-21
-3.27818e-21
-4.39946e-21
-1.24028e-21
-2.19221e-21
-5.79943e-21
-8.20743e-21
-3.64307e-21
-1.99573e-21
-1.06022e-21
-9.21168e-22
-1.15421e-20
-1.40199e-20
-1.55793e-20
-1.74983e-20
-1.52298e-20
-1.77695e-20
-1.51583e-20
-1.21292e-20
-1.11214e-20
-1.26946e-20
-1.68377e-20
-1.51346e-20
-1.04099e-20
-1.13977e-20
-1.03204e-20
-1.16911e-20
-8.01026e-21
-6.29898e-21
-1.98336e-21
-3.71483e-21
-7.61032e-21
-1.31852e-20
-1.00419e-20
-8.49023e-21
-9.45668e-21
-8.01564e-21
-3.81101e-21
-2.96966e-21
-7.49562e-21
-3.8459e-21
-1.83843e-21
-7.05001e-21
-5.12369e-21
-2.8593e-21
-5.76556e-21
-3.86277e-21
-4.12032e-21
-2.95514e-21
-1.33848e-21
-2.06466e-21
-9.82502e-21
-1.39538e-20
-1.49524e-20
-1.62801e-20
-1.42609e-20
-1.59035e-20
-1.47147e-20
-1.29267e-20
-1.24381e-20
-1.3422e-20
-1.68623e-20
-1.00714e-20
-1.08519e-20
-1.16567e-20
-9.82476e-21
-7.46249e-21
-1.00004e-20
-7.39026e-21
-6.56645e-21
-6.43051e-21
-7.96525e-21
-6.64736e-21
-9.43315e-21
-9.69079e-21
-6.96044e-21
-6.0647e-21
-6.07459e-21
-4.26094e-21
-5.41452e-21
-3.2655e-21
-4.13725e-21
-5.23378e-21
-6.97434e-21
-7.5611e-21
-5.34008e-21
-3.78086e-21
-3.0916e-21
-3.672e-21
-1.48366e-21
-1.6245e-21
-1.26846e-20
-1.84186e-20
-1.50302e-20
-1.1762e-20
-1.66607e-20
-1.72533e-20
-1.54854e-20
-1.22282e-20
-1.32785e-20
-1.3383e-20
-1.36766e-20
-1.07698e-20
-1.25227e-20
-9.42401e-21
-1.27783e-20
-6.34317e-21
-8.16808e-21
-4.86876e-21
-6.88717e-21
-5.30224e-21
-9.3662e-21
-7.97152e-21
-7.32643e-21
-8.5085e-21
-9.80082e-21
-3.95609e-21
-4.78275e-21
-6.00279e-21
-3.14594e-21
-5.37179e-21
-4.11549e-21
-5.06581e-21
-7.38544e-21
-5.04854e-21
-8.0115e-21
-3.79448e-21
-2.4743e-21
-5.31325e-21
-1.63834e-21
-4.65387e-22
-1.1231e-20
-1.55515e-20
-1.79576e-20
-1.25105e-20
-1.3093e-20
-1.90418e-20
-1.5778e-20
-9.539e-21
-1.25475e-20
-1.5843e-20
-1.16518e-20
-1.21234e-20
-1.4198e-20
-1.02306e-20
-9.82659e-21
-8.26882e-21
-5.63834e-21
-9.49049e-21
-5.11411e-21
-3.8071e-21
-8.95935e-21
-9.75114e-21
-9.6526e-21
-9.56689e-21
-1.05511e-20
-6.20482e-21
-4.61998e-21
-4.7463e-22
-3.57292e-21
-4.29948e-21
-4.63095e-21
-6.96251e-21
-2.75439e-21
-3.49181e-21
-6.91879e-21
-7.12377e-21
-2.36231e-21
-2.98916e-21
-1.71996e-21
-6.13753e-22
-1.28041e-20
-1.2983e-20
-1.37418e-20
-1.40981e-20
-1.48216e-20
-1.49821e-20
-1.58562e-20
-1.43335e-20
-1.23585e-20
-1.27976e-20
-1.18268e-20
-1.00866e-20
-1.25048e-20
-1.27008e-20
-1.02875e-20
-9.55313e-21
-5.01693e-21
-7.21225e-21
-4.23834e-21
-6.2302e-21
-7.13885e-21
-7.45014e-21
-1.0392e-20
-1.3309e-20
-9.80618e-21
-5.90975e-21
-3.18101e-21
-4.11191e-21
-5.84655e-21
-3.17005e-21
-4.06655e-21
-4.13817e-21
-1.9108e-21
-2.53022e-21
-4.3863e-21
-6.38831e-21
-2.32622e-21
-2.76553e-21
-3.18097e-21
-2.89448e-21
-1.65431e-20
-1.38167e-20
-1.21064e-20
-1.41412e-20
-1.68968e-20
-1.60781e-20
-1.43239e-20
-1.34272e-20
-1.41438e-20
-1.17356e-20
-8.95568e-21
-1.11759e-20
-1.44765e-20
-1.20146e-20
-8.40218e-21
-8.82048e-21
-5.75444e-21
-4.11546e-21
-2.69791e-21
-5.79193e-21
-6.54357e-21
-9.54123e-21
-1.57049e-20
-1.03914e-20
-8.16485e-21
-8.41619e-21
-3.83366e-21
-2.19567e-21
-2.63517e-21
-5.96789e-21
-4.91925e-21
-7.27938e-21
7.40121e-22
-2.18649e-21
-5.48172e-21
-1.62637e-21
-2.10344e-21
-1.51016e-21
-3.09487e-21
-3.68517e-21
-1.02808e-20
-1.06408e-20
-1.32767e-20
-1.20524e-20
-1.84266e-20
-1.5011e-20
-1.37346e-20
-1.44018e-20
-1.38527e-20
-1.29196e-20
-1.17908e-20
-9.55687e-21
-1.11848e-20
-9.75941e-21
-6.83252e-21
-1.02474e-20
-7.1345e-21
-5.76947e-21
-3.62211e-21
-1.61347e-21
-7.34752e-21
-1.26497e-20
-1.17295e-20
-1.02536e-20
-1.06458e-20
-9.0244e-21
1.93325e-22
-2.41704e-21
-5.53346e-21
-4.79646e-21
-4.4178e-21
-4.93805e-21
-1.45546e-22
-1.66729e-21
-2.82441e-21
-2.72659e-21
-1.88276e-21
-4.68889e-21
-2.11225e-21
-1.21244e-21
-1.13117e-20
-1.1626e-20
-1.29749e-20
-1.44627e-20
-1.56726e-20
-1.08154e-20
-1.30901e-20
-1.2394e-20
-1.32985e-20
-1.19153e-20
-1.15998e-20
-1.36804e-20
-9.92169e-21
-7.04846e-21
-7.78181e-21
-1.10252e-20
-8.75309e-21
-5.31849e-21
-5.17166e-21
-5.06095e-21
-4.4349e-21
-7.91132e-21
-1.2366e-20
-1.08334e-20
-7.85652e-21
-7.48881e-21
-4.37654e-21
-3.54244e-21
-3.21981e-21
-5.49406e-21
-4.84733e-21
-4.3033e-21
-6.68738e-22
7.90731e-23
-1.2936e-22
-3.25626e-21
-1.45514e-21
9.02092e-22
-4.63144e-21
-2.93283e-21
-1.24939e-20
-9.7887e-21
-1.03729e-20
-1.08133e-20
-1.42248e-20
-1.46429e-20
-1.36288e-20
-1.58131e-20
-1.40422e-20
-1.13901e-20
-6.35858e-21
-1.17139e-20
-5.91611e-21
-6.25985e-21
-8.76057e-21
-1.09267e-20
-1.15732e-20
-5.75716e-21
-5.12742e-21
-6.27157e-21
-3.41727e-21
-8.43208e-21
-1.03487e-20
-8.86064e-21
-9.6549e-21
-6.53645e-21
-5.75045e-21
-9.03122e-21
-3.11618e-21
-4.28463e-21
-5.52404e-21
-3.64002e-21
-2.95469e-21
-1.89113e-21
3.7975e-22
1.46856e-21
-3.15292e-21
-1.57647e-22
6.06007e-22
-8.20462e-22
-7.15647e-21
-9.90127e-21
-1.2513e-20
-1.0496e-20
-1.18681e-20
-1.39909e-20
-1.11873e-20
-1.24799e-20
-1.2829e-20
-1.28015e-20
-1.06805e-20
-6.21756e-21
-8.17988e-21
-7.8235e-21
-8.79643e-21
-8.61785e-21
-7.64502e-21
-5.50656e-21
-5.97937e-21
-6.71848e-21
-3.7083e-21
-6.73713e-21
-1.01777e-20
-1.10972e-20
-8.85106e-21
-6.53227e-21
-3.84214e-21
-4.4824e-21
-5.89321e-21
-2.85743e-21
-4.93807e-21
-4.09422e-21
-3.11646e-21
-2.41398e-21
-3.18935e-21
-5.17936e-22
7.32597e-22
4.37036e-22
9.33024e-22
-1.25078e-21
-5.67971e-21
-8.16814e-21
-1.13208e-20
-1.31209e-20
-9.854e-21
-1.17644e-20
-1.22074e-20
-1.04613e-20
-8.83714e-21
-1.13615e-20
-1.00585e-20
-7.28529e-21
-1.00276e-20
-6.9562e-21
-8.43946e-21
-8.74638e-21
-6.55712e-21
-1.23967e-21
-3.04542e-21
-9.36715e-21
-3.3665e-21
-9.83087e-21
-1.16773e-20
-9.46106e-21
-7.94171e-21
-8.12053e-21
-7.69288e-21
-1.01099e-21
-4.34061e-21
-2.3507e-21
-5.20179e-21
-3.83221e-21
-5.10065e-21
-2.37041e-21
-1.34496e-21
-7.98179e-22
1.1929e-21
-1.60723e-21
-1.12006e-21
-1.07993e-21
-3.7971e-21
-8.48393e-21
-1.18717e-20
-8.08398e-21
-8.21084e-21
-1.17219e-20
-1.028e-20
-1.06998e-20
-9.67363e-21
-1.05814e-20
-6.7006e-21
-9.35272e-21
-8.84058e-21
-9.09995e-21
-7.07147e-21
-4.13951e-21
-3.8837e-21
-4.8948e-21
-3.90543e-21
-9.83487e-21
-6.74836e-21
-8.53994e-21
-1.21496e-20
-1.26345e-20
-4.35531e-21
-4.90499e-21
-6.30638e-21
-5.21452e-21
-1.73571e-21
-3.18116e-21
-5.43828e-21
-4.84509e-21
-6.54082e-21
-2.42731e-21
-2.08756e-21
-3.8237e-21
2.28723e-21
4.50376e-21
-8.52558e-22
-1.78993e-21
-4.86399e-21
-7.33828e-21
-9.97728e-21
-6.80824e-21
-5.66242e-21
-1.35208e-20
-1.03741e-20
-6.89722e-21
-1.03178e-20
-9.46446e-21
-6.97889e-21
-8.17476e-21
-7.37143e-21
-7.64736e-21
-8.07844e-21
-8.09415e-21
-1.2934e-21
-1.94363e-21
-5.59218e-21
-6.08771e-21
-3.28314e-21
-7.32507e-21
-1.0514e-20
-1.15787e-20
-7.44289e-21
-5.21815e-21
-5.22027e-21
-1.29922e-21
-4.2132e-21
-4.49628e-21
-3.8418e-21
-4.68607e-21
-4.59512e-21
-1.7273e-21
-1.34958e-21
-5.20673e-21
6.24428e-22
2.81293e-21
-3.68442e-22
-1.27256e-23
-5.93378e-21
-4.81779e-21
-6.48398e-21
-3.53616e-21
-4.31134e-21
-2.73232e-21
-8.38484e-21
-5.03626e-21
-6.9048e-21
-6.31015e-21
-2.615e-21
-2.84747e-21
-6.12132e-21
-5.55426e-21
-2.62731e-21
-4.84785e-21
-1.30818e-21
6.37777e-22
-5.89218e-21
-1.60993e-21
-4.44255e-21
-9.37113e-21
-7.00467e-21
-5.52537e-21
-2.5369e-21
-3.53504e-21
-3.45833e-21
-1.44712e-21
-1.21878e-21
-8.59576e-23
-1.50534e-21
-2.32152e-21
-3.36347e-21
-2.34428e-21
3.89034e-22
-3.23629e-21
-6.51589e-22
-1.14401e-21
-2.67903e-21
-1.38347e-22
-7.39487e-21
-1.03816e-20
-1.44997e-20
-1.0726e-20
-9.77155e-21
-1.20288e-20
-8.7549e-21
-5.56301e-21
-1.22595e-20
-1.04753e-20
-6.10906e-21
-1.11187e-20
-1.14762e-20
-6.72993e-21
-8.45048e-21
-1.05766e-20
-6.93334e-21
-9.5776e-22
-2.97511e-21
-6.13013e-21
-4.56426e-21
-5.71789e-21
-6.64145e-21
-5.01037e-21
-2.59926e-21
-1.73598e-21
-2.46876e-21
-4.15797e-21
-5.78193e-21
-3.59432e-21
-3.17377e-21
-2.47938e-21
-4.76639e-21
-3.60015e-21
-4.28223e-21
-3.45238e-21
3.82832e-22
-2.92842e-21
-1.31189e-21
-4.81197e-22
-1.21344e-20
-1.48033e-20
-1.93932e-20
-1.4747e-20
-1.37627e-20
-1.70894e-20
-1.50573e-20
-1.14882e-20
-1.04194e-20
-1.68782e-20
-1.52553e-20
-1.38624e-20
-1.32544e-20
-1.04045e-20
-1.22693e-20
-1.14905e-20
-9.14957e-21
-7.2659e-21
-8.66011e-21
-7.65998e-21
-7.45949e-21
-8.20616e-21
-9.69143e-21
-9.68854e-21
-5.31951e-21
-4.29291e-21
-5.73476e-21
-5.19657e-21
-7.57306e-21
-3.37488e-21
-3.72512e-21
-3.3516e-21
-5.08206e-21
-4.13567e-21
-7.02797e-21
-2.53615e-21
9.99314e-22
1.74216e-21
3.35107e-22
5.31685e-22
-1.29492e-20
-1.49019e-20
-1.46965e-20
-1.58036e-20
-1.64418e-20
-2.02508e-20
-1.59711e-20
-1.48719e-20
-1.4243e-20
-1.36985e-20
-1.3664e-20
-1.41323e-20
-1.24123e-20
-1.16549e-20
-1.26208e-20
-1.15936e-20
-1.09056e-20
-8.65623e-21
-7.93154e-21
-7.36068e-21
-8.26443e-21
-6.7528e-21
-7.34003e-21
-8.58877e-21
-7.86427e-21
-4.84969e-21
-6.71371e-21
-9.05978e-21
-3.6052e-21
-6.54957e-21
-8.02006e-21
-3.15856e-21
-3.59568e-21
-4.68556e-21
-4.13704e-21
-2.77005e-21
2.72368e-22
-2.06487e-22
1.26578e-23
8.0031e-22
-1.64223e-20
-1.61916e-20
-1.81058e-20
-1.77654e-20
-1.71668e-20
-1.85049e-20
-1.77428e-20
-1.3122e-20
-1.41276e-20
-1.46923e-20
-1.53176e-20
-1.7958e-20
-1.12382e-20
-1.23638e-20
-1.42196e-20
-1.23311e-20
-1.10962e-20
-1.05464e-20
-9.43292e-21
-5.38303e-21
-9.68012e-21
-1.0503e-20
-9.3814e-21
-8.54207e-21
-6.67478e-21
-5.44384e-21
-7.01597e-21
-6.27348e-21
-5.87337e-21
-8.52317e-21
-5.94527e-21
-8.88118e-22
-6.65899e-21
-4.75299e-21
-4.58782e-21
-2.21183e-21
-2.87366e-22
-8.97174e-22
-5.12391e-22
-9.00218e-23
-1.83771e-20
-1.65811e-20
-1.62635e-20
-1.94832e-20
-2.11237e-20
-2.16155e-20
-1.7003e-20
-1.30998e-20
-1.24526e-20
-1.59827e-20
-1.5351e-20
-1.55941e-20
-1.19023e-20
-1.40892e-20
-1.79701e-20
-1.5247e-20
-1.10982e-20
-1.07577e-20
-8.60051e-21
-6.62536e-21
-1.00791e-20
-1.03318e-20
-1.0273e-20
-9.60337e-21
-8.35064e-21
-4.59536e-21
-6.33592e-21
-6.91066e-21
-6.93237e-21
-5.78605e-21
-5.5229e-21
-4.57762e-21
-3.55342e-21
-3.0381e-21
-3.50463e-21
-2.4548e-21
-4.13179e-22
-9.93042e-22
2.76411e-22
-7.8347e-22
-1.63682e-20
-1.75792e-20
-1.71704e-20
-1.90239e-20
-2.16096e-20
-2.28083e-20
-1.59573e-20
-1.93227e-20
-1.7429e-20
-1.56089e-20
-1.41551e-20
-1.68792e-20
-1.37607e-20
-1.26993e-20
-1.68712e-20
-1.43358e-20
-1.29046e-20
-9.07729e-21
-9.01421e-21
-7.64047e-21
-1.01489e-20
-1.22101e-20
-1.0107e-20
-1.01042e-20
-7.98615e-21
-6.05717e-21
-5.74829e-21
-6.6705e-21
-7.55776e-21
-6.43604e-21
-5.67055e-21
-3.55439e-21
-1.42054e-21
-2.45721e-21
-3.92526e-21
-2.40076e-21
8.84881e-23
1.1571e-21
2.81086e-21
-1.76711e-21
-1.96645e-20
-2.17566e-20
-1.72816e-20
-1.96991e-20
-2.22858e-20
-2.11601e-20
-1.82367e-20
-1.81625e-20
-2.04718e-20
-1.91714e-20
-1.4316e-20
-1.53456e-20
-1.41387e-20
-1.45098e-20
-1.6127e-20
-1.50002e-20
-9.77784e-21
-7.33514e-21
-9.75257e-21
-9.06437e-21
-1.0837e-20
-1.14469e-20
-1.11038e-20
-1.18783e-20
-7.45475e-21
-6.60421e-21
-6.42709e-21
-6.2305e-21
-5.91627e-21
-5.46036e-21
-6.50494e-21
-4.0165e-21
1.04407e-22
2.79187e-22
-3.89768e-21
-4.4296e-21
-4.90205e-22
-4.89453e-22
3.66247e-22
-2.10965e-21
-1.71146e-20
-1.9414e-20
-1.76779e-20
-1.91604e-20
-2.30678e-20
-2.33978e-20
-1.73962e-20
-1.99712e-20
-2.14748e-20
-1.8363e-20
-1.63835e-20
-1.67447e-20
-1.41358e-20
-1.30369e-20
-1.66408e-20
-1.65031e-20
-1.1032e-20
-7.23742e-21
-3.20188e-21
-5.00386e-21
-1.04988e-20
-1.45587e-20
-1.16192e-20
-1.13372e-20
-8.98225e-21
-5.98667e-21
-6.02567e-21
-8.59771e-21
-4.03242e-21
-4.97857e-21
-6.89084e-21
-3.42706e-21
-3.88578e-21
-3.61206e-21
-3.35954e-21
-1.74386e-22
1.17806e-21
-4.3098e-23
-1.55826e-21
-6.11176e-22
-1.9209e-20
-2.21928e-20
-2.17949e-20
-2.15456e-20
-2.13178e-20
-2.08596e-20
-1.9572e-20
-2.0083e-20
-2.02717e-20
-1.92998e-20
-1.65615e-20
-1.93242e-20
-1.36897e-20
-1.39394e-20
-1.53117e-20
-1.41353e-20
-1.21789e-20
-6.82918e-21
-7.96483e-21
-9.02927e-21
-7.60041e-21
-1.26349e-20
-1.23206e-20
-1.2785e-20
-7.60986e-21
-6.80217e-21
-6.48552e-21
-7.94993e-21
-3.96091e-21
-4.66411e-21
-6.12309e-21
-4.43548e-21
-2.93366e-21
-2.41334e-21
-2.1772e-21
-7.11951e-22
-1.35256e-22
-7.69894e-23
-1.31579e-21
-1.23038e-21
-1.68582e-20
-1.91571e-20
-1.93713e-20
-2.31318e-20
-2.37838e-20
-2.13984e-20
-2.35818e-20
-2.02703e-20
-1.71691e-20
-1.86062e-20
-1.81864e-20
-1.62209e-20
-1.55553e-20
-1.53809e-20
-1.67403e-20
-1.39591e-20
-1.05531e-20
-7.94297e-21
-7.43043e-21
-6.0242e-21
-1.03711e-20
-1.46126e-20
-1.39615e-20
-1.32061e-20
-8.30892e-21
-6.45383e-21
-4.5964e-21
-6.58965e-21
-6.61017e-21
-5.66002e-21
-3.64739e-21
-3.77308e-21
-4.55437e-21
-3.70489e-21
-2.86569e-21
-8.79856e-22
6.27826e-22
-9.02766e-23
-2.11257e-21
-8.66237e-22
-2.2719e-20
-2.37142e-20
-2.11252e-20
-2.12095e-20
-2.10334e-20
-2.14133e-20
-2.16266e-20
-2.28449e-20
-2.13071e-20
-1.93735e-20
-1.57794e-20
-1.34347e-20
-1.52302e-20
-1.31057e-20
-1.61689e-20
-1.50754e-20
-1.09606e-20
-7.75715e-21
-7.49117e-21
-8.87028e-21
-1.22e-20
-1.23798e-20
-1.42662e-20
-1.5251e-20
-8.43277e-21
-4.00173e-21
-5.53472e-21
-9.332e-21
-5.8436e-21
-5.31622e-21
-3.99826e-21
-3.15565e-21
-2.11961e-21
-4.54902e-21
-2.50379e-21
-1.11001e-21
-1.44657e-21
-1.79967e-21
-2.49913e-21
-2.72503e-21
-2.15163e-20
-2.43046e-20
-2.00257e-20
-2.03421e-20
-2.22945e-20
-2.24747e-20
-2.28338e-20
-2.24805e-20
-1.76908e-20
-2.12361e-20
-1.68164e-20
-1.3777e-20
-1.70792e-20
-1.49403e-20
-1.43781e-20
-1.49132e-20
-1.39238e-20
-6.20348e-21
-6.32915e-21
-9.29762e-21
-1.20501e-20
-1.36396e-20
-1.31425e-20
-1.30876e-20
-9.3432e-21
-9.15668e-21
-7.17216e-21
-6.40701e-21
-3.33784e-21
-7.22844e-21
-5.00842e-21
-3.6764e-21
-2.34712e-21
-3.86047e-21
-3.23086e-21
-2.6047e-21
4.17245e-22
-1.903e-21
-2.80372e-21
3.85e-22
-2.44069e-20
-2.30721e-20
-2.10973e-20
-2.27037e-20
-2.27888e-20
-2.43461e-20
-2.12402e-20
-2.04182e-20
-1.94898e-20
-1.92109e-20
-1.63866e-20
-1.70056e-20
-1.68723e-20
-1.47912e-20
-1.47651e-20
-1.31844e-20
-1.04353e-20
-6.58068e-21
-9.20261e-21
-1.26249e-20
-9.05046e-21
-1.22102e-20
-1.47973e-20
-1.40778e-20
-1.07624e-20
-7.27186e-21
-7.05387e-21
-5.71592e-21
-4.91339e-21
-4.84061e-21
-5.66533e-21
-5.91919e-21
-2.82001e-21
-2.74267e-21
-8.41523e-21
9.87855e-23
4.79158e-22
-5.20789e-21
-3.63614e-21
-1.50836e-22
-2.65696e-20
-2.48179e-20
-2.21408e-20
-2.34365e-20
-2.24938e-20
-2.19496e-20
-2.30687e-20
-1.8688e-20
-1.97823e-20
-2.19848e-20
-1.83234e-20
-1.60217e-20
-1.71554e-20
-1.27503e-20
-1.45355e-20
-1.39193e-20
-1.52556e-20
-8.76515e-21
-5.44683e-21
-8.55671e-21
-1.26259e-20
-1.39003e-20
-1.36177e-20
-1.62119e-20
-9.63508e-21
-6.76506e-21
-6.21404e-21
-6.94838e-21
-6.74304e-21
-3.74249e-21
-5.26857e-21
-4.99366e-21
-3.23837e-21
-5.00192e-21
-6.49521e-21
-2.18249e-21
-5.43577e-22
1.14856e-21
-1.72099e-21
-7.17278e-22
-2.82945e-20
-2.52484e-20
-2.11511e-20
-2.17592e-20
-2.32408e-20
-2.10675e-20
-2.23122e-20
-1.97189e-20
-2.06073e-20
-1.97408e-20
-1.81238e-20
-1.71143e-20
-1.82958e-20
-1.4917e-20
-1.41953e-20
-1.21818e-20
-1.20227e-20
-9.61504e-21
-9.53088e-21
-1.19742e-20
-1.131e-20
-1.3849e-20
-1.58783e-20
-1.36162e-20
-9.36252e-21
-8.70969e-21
-6.89091e-21
-6.19771e-21
-5.74442e-21
-2.96553e-21
-5.0507e-21
-4.46086e-21
-4.119e-21
-2.39751e-21
-5.22542e-21
-4.12601e-21
1.76424e-21
-3.50958e-22
-1.89804e-21
-5.96618e-22
-2.37792e-20
-2.48286e-20
-2.50186e-20
-2.35409e-20
-2.29585e-20
-2.16184e-20
-2.10727e-20
-2.04704e-20
-1.99205e-20
-1.76111e-20
-1.83323e-20
-1.86039e-20
-1.91799e-20
-1.54937e-20
-1.51718e-20
-1.14665e-20
-1.21209e-20
-1.06639e-20
-9.39499e-21
-9.09908e-21
-1.30246e-20
-1.52107e-20
-1.54608e-20
-1.0715e-20
-8.98484e-21
-9.13435e-21
-6.82108e-21
-6.69653e-21
-6.64971e-21
-4.69239e-21
-3.71585e-21
-4.42134e-21
-4.12299e-21
-3.61307e-21
-4.68107e-21
-2.51037e-21
2.61572e-22
-1.36366e-21
-1.38731e-21
-1.41865e-21
-2.11612e-20
-2.27456e-20
-2.4171e-20
-2.07413e-20
-2.50915e-20
-2.2076e-20
-2.18885e-20
-2.27794e-20
-2.19751e-20
-1.6646e-20
-1.73359e-20
-1.95399e-20
-1.79554e-20
-1.69694e-20
-1.5475e-20
-1.21796e-20
-1.16761e-20
-8.30489e-21
-1.32752e-20
-1.15824e-20
-1.42496e-20
-1.19442e-20
-1.14655e-20
-9.31403e-21
-9.48479e-21