/*--------------------------------*- C++ -*----------------------------------*\
| =========                 |                                                 |
| \\      /  F ield         | OpenFOAM: The Open Source CFD Toolbox           |
|  \\    /   O peration     | Version:  v2012                                 |
|   \\  /    A nd           | Website:  www.openfoam.com                      |
|    \\/     M anipulation  |                                                 |
\*---------------------------------------------------------------------------*/
FoamFile
{
    version     2.0;
    format      ascii;
    class       surfaceScalarField;
    location    "45";
    object      phi;
}
// * * * * * * * * * * * * * * * * * * * * * * * * * * * * * * * * * * * * * //

dimensions      [0 3 -1 0 0 0 0];
oriented        oriented;


internalField   nonuniform List<scalar> 
187200
(
1.875e-06
3.13145e-22
2.96334e-22
1.875e-06
3.16598e-22
3.77092e-22
1.875e-06
3.98237e-22
5.48347e-22
1.875e-06
3.32745e-22
4.19137e-22
1.875e-06
3.76192e-22
2.77899e-22
1.875e-06
4.95865e-22
4.14627e-22
1.875e-06
4.03376e-22
3.61956e-22
1.875e-06
3.31616e-22
3.05906e-22
1.875e-06
2.43998e-22
4.14583e-22
1.875e-06
3.77359e-22
3.59072e-22
1.875e-06
4.7646e-22
2.70395e-22
1.875e-06
3.78785e-22
3.2646e-22
1.875e-06
2.81044e-22
3.90319e-22
1.875e-06
2.30103e-22
2.06889e-22
1.875e-06
2.30673e-22
2.79139e-22
1.875e-06
2.39547e-22
3.4972e-22
1.875e-06
2.55392e-22
2.91971e-22
1.875e-06
1.45735e-22
1.47574e-22
1.875e-06
1.48948e-22
1.21739e-22
1.875e-06
1.17955e-22
2.13185e-22
1.875e-06
8.62468e-23
2.09377e-22
1.875e-06
1.69447e-22
2.33634e-22
1.875e-06
2.6923e-22
2.30784e-22
1.875e-06
3.35804e-22
1.61882e-22
1.875e-06
2.54775e-22
1.43425e-22
1.875e-06
1.82691e-22
1.28177e-22
1.875e-06
2.13862e-22
1.90792e-22
1.875e-06
1.7577e-22
8.82791e-23
1.875e-06
7.98383e-23
1.65336e-22
1.875e-06
1.12385e-22
1.53939e-22
1.875e-06
3.28174e-23
1.26805e-22
1.875e-06
4.4949e-23
1.16586e-22
1.875e-06
1.37312e-22
1.49664e-22
1.875e-06
9.38098e-23
1.80368e-22
1.875e-06
2.03563e-23
8.46936e-23
1.875e-06
-8.57615e-23
-6.73772e-23
1.875e-06
-3.60961e-23
1.68795e-23
1.875e-06
-1.13956e-23
1.45347e-22
1.875e-06
-2.51276e-23
1.4269e-22
-3.01169e-23
6.99533e-23
1.875e-06
2.57314e-23
2.74996e-22
1.875e-06
1.54564e-22
6.10398e-22
1.875e-06
3.10992e-22
8.35967e-22
1.875e-06
3.46103e-22
7.44102e-22
1.875e-06
2.76041e-22
6.65067e-22
1.875e-06
3.38163e-22
7.5479e-22
1.875e-06
4.38536e-22
8.19735e-22
1.875e-06
3.94375e-22
7.76361e-22
1.875e-06
4.05867e-22
7.87829e-22
1.875e-06
3.1057e-22
7.95699e-22
1.875e-06
2.16849e-22
6.81009e-22
1.875e-06
2.51568e-22
5.92381e-22
1.875e-06
2.68092e-22
6.89491e-22
1.875e-06
2.21534e-22
5.96824e-22
1.875e-06
1.40989e-22
6.19169e-22
1.875e-06
1.07159e-22
5.90731e-22
1.875e-06
3.37449e-22
5.5316e-22
1.875e-06
3.67986e-22
6.06272e-22
1.875e-06
1.68845e-22
5.24865e-22
1.875e-06
7.68103e-23
4.82467e-22
1.875e-06
1.98452e-22
5.5275e-22
1.875e-06
3.16073e-22
5.26174e-22
1.875e-06
2.32101e-22
3.90956e-22
1.875e-06
1.21027e-22
2.69966e-22
1.875e-06
1.40245e-22
3.21114e-22
1.875e-06
1.9589e-22
3.26508e-22
1.875e-06
1.60313e-22
3.50575e-22
1.875e-06
8.16686e-23
2.31208e-22
1.875e-06
1.59277e-22
4.38162e-22
1.875e-06
1.10736e-22
2.63773e-22
1.875e-06
1.48552e-22
3.06096e-22
1.875e-06
6.82629e-23
2.23923e-22
1.875e-06
-8.87748e-24
1.09908e-22
1.875e-06
-7.26583e-24
1.31413e-22
1.875e-06
3.95905e-23
2.30326e-22
1.875e-06
-2.36269e-24
8.48146e-23
1.875e-06
-1.08915e-23
2.29805e-23
1.875e-06
-3.80939e-23
3.09153e-23
1.875e-06
-7.93902e-23
5.53375e-23
-1.07843e-22
1.87658e-23
1.875e-06
8.64327e-23
3.91698e-22
1.875e-06
1.41809e-22
6.99884e-22
1.875e-06
1.25793e-22
7.56162e-22
1.875e-06
3.00724e-22
8.51979e-22
1.875e-06
3.2186e-22
9.10261e-22
1.875e-06
4.00821e-22
9.78908e-22
1.875e-06
3.9679e-22
9.38974e-22
1.875e-06
2.63249e-22
1.01599e-21
1.875e-06
3.03663e-22
9.85174e-22
1.875e-06
2.98959e-22
8.69786e-22
1.875e-06
2.68506e-22
8.34947e-22
1.875e-06
2.48696e-22
7.25397e-22
1.875e-06
2.35009e-22
7.31031e-22
1.875e-06
2.14571e-22
7.30896e-22
1.875e-06
2.66412e-22
7.96834e-22
1.875e-06
3.2161e-22
7.94652e-22
1.875e-06
1.3961e-22
5.77139e-22
1.875e-06
2.75603e-22
6.1235e-22
1.875e-06
1.71747e-22
6.33391e-22
1.875e-06
1.35926e-22
6.33501e-22
1.875e-06
1.6175e-22
6.38246e-22
1.875e-06
1.07811e-22
4.16608e-22
1.875e-06
2.20797e-22
3.11922e-22
1.875e-06
2.12874e-22
3.83536e-22
1.875e-06
2.721e-22
4.51469e-22
1.875e-06
8.01533e-23
3.90802e-22
1.875e-06
1.27614e-22
4.34226e-22
1.875e-06
5.62094e-23
4.51438e-22
1.875e-06
1.44618e-22
3.49161e-22
1.875e-06
1.56635e-22
3.77602e-22
1.875e-06
7.64949e-23
4.3511e-22
1.875e-06
6.99424e-23
2.73205e-22
1.875e-06
-2.10797e-23
1.43732e-22
1.875e-06
-1.5618e-23
2.01203e-22
1.875e-06
3.41863e-23
1.77891e-22
1.875e-06
2.28118e-23
9.3848e-23
1.875e-06
4.25843e-23
3.52897e-23
1.875e-06
6.90921e-24
9.52938e-23
1.875e-06
-4.20593e-24
8.37598e-23
-2.88595e-23
2.14021e-23
1.875e-06
2.57957e-22
4.83603e-22
1.875e-06
1.6399e-22
7.81876e-22
1.875e-06
1.3707e-22
9.44443e-22
1.875e-06
1.53189e-22
9.23762e-22
1.875e-06
2.3245e-22
9.65991e-22
1.875e-06
2.30031e-22
9.13308e-22
1.875e-06
1.91832e-22
9.42939e-22
1.875e-06
3.22334e-22
1.03186e-21
1.875e-06
2.69485e-22
1.05001e-21
1.875e-06
3.46414e-22
9.50223e-22
1.875e-06
3.36169e-22
9.24086e-22
1.875e-06
1.20008e-22
9.14039e-22
1.875e-06
1.58478e-22
7.59258e-22
1.875e-06
1.72666e-22
8.07209e-22
1.875e-06
3.28055e-22
8.53781e-22
1.875e-06
3.94705e-22
8.17807e-22
1.875e-06
2.27769e-22
7.03202e-22
1.875e-06
1.02243e-22
6.43563e-22
1.875e-06
2.02436e-22
7.86251e-22
1.875e-06
1.80129e-22
6.7429e-22
1.875e-06
1.29718e-22
6.60526e-22
1.875e-06
1.75771e-22
5.49759e-22
1.875e-06
1.30791e-22
3.6285e-22
1.875e-06
1.47382e-22
3.93005e-22
1.875e-06
7.54334e-23
3.66909e-22
1.875e-06
1.61346e-22
4.87389e-22
1.875e-06
7.67828e-23
4.37072e-22
1.875e-06
1.32464e-22
3.99083e-22
1.875e-06
9.25187e-23
3.60934e-22
1.875e-06
-2.6375e-23
3.99035e-22
1.875e-06
3.09525e-23
3.40945e-22
1.875e-06
1.01254e-23
2.24224e-22
1.875e-06
-2.45312e-23
3.05223e-22
1.875e-06
-2.479e-23
2.4745e-22
1.875e-06
6.71043e-23
1.69882e-22
1.875e-06
1.04197e-23
7.84566e-23
1.875e-06
-1.13882e-23
1.62242e-23
1.875e-06
3.2686e-23
9.84628e-23
1.875e-06
-9.51396e-23
5.23785e-23
1.57092e-23
4.18706e-23
1.875e-06
-6.6967e-24
3.64129e-22
1.875e-06
1.05964e-22
8.15619e-22
1.875e-06
7.14692e-23
9.4032e-22
1.875e-06
1.25093e-22
1.04717e-21
1.875e-06
1.75656e-22
1.11206e-21
1.875e-06
1.08943e-22
1.0514e-21
1.875e-06
9.95953e-23
1.01991e-21
1.875e-06
3.43574e-22
1.02869e-21
1.875e-06
4.40768e-22
1.06692e-21
1.875e-06
2.84267e-22
9.67891e-22
1.875e-06
1.87314e-22
9.00818e-22
1.875e-06
2.29468e-22
9.6561e-22
1.875e-06
2.3552e-22
8.5843e-22
1.875e-06
1.85392e-22
9.17384e-22
1.875e-06
1.45901e-22
8.94955e-22
1.875e-06
2.05389e-22
7.47488e-22
1.875e-06
1.23237e-22
7.10117e-22
1.875e-06
4.81798e-23
7.31727e-22
1.875e-06
9.46404e-23
7.39455e-22
1.875e-06
2.2771e-22
6.93155e-22
1.875e-06
1.54116e-22
7.11069e-22
1.875e-06
2.00587e-22
5.66231e-22
1.875e-06
1.36226e-22
4.58432e-22
1.875e-06
1.64424e-22
4.59563e-22
1.875e-06
1.09021e-22
5.20765e-22
1.875e-06
1.39821e-22
4.70685e-22
1.875e-06
1.47287e-22
4.19859e-22
1.875e-06
2.1328e-24
3.56408e-22
1.875e-06
8.70314e-24
3.46257e-22
1.875e-06
2.93193e-23
3.62839e-22
1.875e-06
1.11441e-22
3.31477e-22
1.875e-06
1.32465e-22
3.58366e-22
1.875e-06
-2.07598e-23
2.6549e-22
1.875e-06
-6.78647e-23
2.13507e-22
1.875e-06
-4.00206e-23
7.6617e-23
1.875e-06
-1.45336e-23
8.59042e-23
1.875e-06
2.37768e-23
2.37046e-23
1.875e-06
5.03336e-23
4.92132e-23
1.875e-06
5.2435e-23
9.13384e-23
-4.98119e-23
4.20571e-23
1.875e-06
6.64155e-23
4.0756e-22
1.875e-06
1.10768e-22
8.7014e-22
1.875e-06
6.55636e-23
1.00904e-21
1.875e-06
4.39481e-23
1.05434e-21
1.875e-06
8.01085e-23
1.19616e-21
1.875e-06
1.53426e-22
1.23566e-21
1.875e-06
1.7642e-22
1.14581e-21
1.875e-06
2.26798e-22
1.1768e-21
1.875e-06
3.27129e-22
1.08412e-21
1.875e-06
2.43189e-22
9.77427e-22
1.875e-06
2.29447e-22
9.3485e-22
1.875e-06
2.39639e-22
1.04595e-21
1.875e-06
2.0242e-22
8.84097e-22
1.875e-06
2.25643e-22
8.68518e-22
1.875e-06
1.17498e-22
9.19757e-22
1.875e-06
1.01118e-22
7.92942e-22
1.875e-06
1.16841e-22
8.34133e-22
1.875e-06
8.73991e-24
7.69574e-22
1.875e-06
8.85966e-23
7.6454e-22
1.875e-06
1.30881e-22
6.72213e-22
1.875e-06
2.05221e-22
7.43703e-22
1.875e-06
1.61815e-22
5.69921e-22
1.875e-06
2.12834e-22
4.94831e-22
1.875e-06
2.12605e-22
5.24269e-22
1.875e-06
1.02692e-22
5.12598e-22
1.875e-06
1.72282e-22
4.66947e-22
1.875e-06
4.64284e-23
3.65997e-22
1.875e-06
7.86961e-24
4.14373e-22
1.875e-06
-3.93455e-23
3.45509e-22
1.875e-06
-1.96266e-23
3.58203e-22
1.875e-06
9.7456e-23
3.20592e-22
1.875e-06
1.08054e-22
2.33975e-22
1.875e-06
-6.05483e-23
2.12566e-22
1.875e-06
2.033e-23
2.09266e-22
1.875e-06
-1.57626e-23
1.49224e-22
1.875e-06
6.42565e-23
9.8093e-23
1.875e-06
4.61558e-23
-2.03567e-23
1.875e-06
6.7242e-24
-5.1414e-23
1.875e-06
6.07778e-23
-2.55708e-23
7.23879e-23
9.85007e-23
1.875e-06
1.50248e-23
4.6082e-22
1.875e-06
1.2334e-22
9.6102e-22
1.875e-06
1.36441e-22
1.06726e-21
1.875e-06
3.69035e-23
1.16409e-21
1.875e-06
1.01224e-22
1.29376e-21
1.875e-06
8.7697e-23
1.2736e-21
1.875e-06
2.44524e-22
1.2401e-21
1.875e-06
3.66584e-22
1.19556e-21
1.875e-06
2.86092e-22
1.20006e-21
1.875e-06
2.27929e-22
1.17314e-21
1.875e-06
1.30915e-22
9.75402e-22
1.875e-06
1.02256e-22
9.459e-22
1.875e-06
1.38817e-22
8.91265e-22
1.875e-06
2.14621e-22
8.96614e-22
1.875e-06
1.51835e-22
9.75472e-22
1.875e-06
1.09654e-22
8.73371e-22
1.875e-06
1.04745e-22
7.82843e-22
1.875e-06
1.4473e-22
7.53438e-22
1.875e-06
1.54857e-22
7.6754e-22
1.875e-06
8.22049e-23
6.80557e-22
1.875e-06
1.0737e-22
7.05311e-22
1.875e-06
8.84304e-23
5.11056e-22
1.875e-06
8.05307e-23
4.98067e-22
1.875e-06
3.19857e-23
5.61644e-22
1.875e-06
1.597e-22
5.28924e-22
1.875e-06
1.14972e-22
4.20647e-22
1.875e-06
6.68837e-23
4.41983e-22
1.875e-06
1.48167e-22
4.40457e-22
1.875e-06
6.21272e-23
3.35869e-22
1.875e-06
2.96696e-23
3.63543e-22
1.875e-06
-3.20455e-23
2.68579e-22
1.875e-06
-2.68748e-23
1.71805e-22
1.875e-06
1.03851e-22
2.39758e-22
1.875e-06
7.85897e-23
1.01389e-22
1.875e-06
8.29458e-23
1.17303e-22
1.875e-06
2.60632e-23
8.89875e-23
1.875e-06
-3.30018e-23
-5.51793e-23
1.875e-06
7.45761e-23
-2.5268e-23
1.875e-06
5.25134e-23
7.96107e-24
4.50236e-23
7.19498e-23
1.875e-06
1.26348e-22
3.5813e-22
1.875e-06
8.64302e-23
8.36172e-22
1.875e-06
1.16149e-22
1.07594e-21
1.875e-06
1.47168e-22
1.25704e-21
1.875e-06
1.59541e-22
1.39102e-21
1.875e-06
2.7082e-22
1.43785e-21
1.875e-06
2.19196e-22
1.22027e-21
1.875e-06
5.36513e-23
1.16456e-21
1.875e-06
1.00007e-22
1.20725e-21
1.875e-06
2.43516e-22
1.12118e-21
1.875e-06
9.75397e-23
1.08816e-21
1.875e-06
9.8987e-23
1.02636e-21
1.875e-06
2.06779e-22
9.08897e-22
1.875e-06
1.36376e-22
8.73978e-22
1.875e-06
1.75934e-22
9.5419e-22
1.875e-06
1.20139e-22
9.1032e-22
1.875e-06
1.18255e-22
8.27603e-22
1.875e-06
6.73593e-23
7.5161e-22
1.875e-06
1.2434e-22
5.35751e-22
1.875e-06
2.17352e-22
5.68268e-22
1.875e-06
5.55741e-23
6.95566e-22
1.875e-06
5.21019e-23
6.61333e-22
1.875e-06
1.63571e-22
5.61946e-22
1.875e-06
8.59593e-23
5.83826e-22
1.875e-06
2.95213e-23
5.62202e-22
1.875e-06
6.2785e-23
4.2571e-22
1.875e-06
2.31451e-22
4.7236e-22
1.875e-06
1.28511e-22
4.2049e-22
1.875e-06
8.74686e-23
2.79637e-22
1.875e-06
7.71003e-23
3.27487e-22
1.875e-06
-5.38514e-23
2.94653e-22
1.875e-06
-5.25738e-23
2.01877e-22
1.875e-06
5.75359e-23
2.81262e-22
1.875e-06
5.31469e-23
1.95726e-22
1.875e-06
7.27562e-23
5.70403e-23
1.875e-06
1.7886e-23
-6.16065e-23
1.875e-06
-1.38876e-23
-1.11109e-22
1.875e-06
3.2856e-24
-1.06279e-22
1.875e-06
-5.8534e-24
-4.52988e-24
-2.15116e-23
-3.57202e-23
1.875e-06
-1.63069e-22
2.77022e-22
1.875e-06
-3.51539e-23
8.39064e-22
1.875e-06
7.30427e-23
1.17732e-21
1.875e-06
1.29076e-22
1.25119e-21
1.875e-06
1.87048e-22
1.32735e-21
1.875e-06
2.044e-22
1.30556e-21
1.875e-06
1.55436e-22
1.32329e-21
1.875e-06
1.54038e-22
1.32551e-21
1.875e-06
9.02419e-23
1.26441e-21
1.875e-06
1.00823e-22
1.11595e-21
1.875e-06
2.24367e-22
1.15831e-21
1.875e-06
1.07277e-22
1.14095e-21
1.875e-06
4.40344e-23
8.58983e-22
1.875e-06
8.62193e-23
8.97272e-22
1.875e-06
1.70862e-22
9.22954e-22
1.875e-06
1.03493e-22
8.78313e-22
1.875e-06
1.32529e-22
8.73898e-22
1.875e-06
2.17391e-22
8.07834e-22
1.875e-06
-1.16333e-23
6.52924e-22
1.875e-06
-4.09723e-23
5.81361e-22
1.875e-06
1.98306e-22
6.86032e-22
1.875e-06
2.19709e-22
6.88411e-22
1.875e-06
1.48408e-22
5.31938e-22
1.875e-06
1.78206e-22
7.03064e-22
1.875e-06
2.42353e-22
6.30894e-22
1.875e-06
1.21701e-22
4.8788e-22
1.875e-06
-4.55532e-23
3.717e-22
1.875e-06
-1.80879e-23
3.39645e-22
1.875e-06
8.12087e-23
2.58774e-22
1.875e-06
8.06475e-23
2.49318e-22
1.875e-06
4.84029e-24
3.60026e-22
1.875e-06
-2.9355e-23
2.93247e-22
1.875e-06
1.7416e-23
2.17635e-22
1.875e-06
2.62735e-23
1.42356e-22
1.875e-06
2.42895e-23
-1.09771e-22
1.875e-06
1.11571e-22
-1.03889e-22
1.875e-06
1.22845e-22
-7.77531e-23
1.875e-06
-2.60447e-23
-1.61883e-22
1.875e-06
-8.65112e-24
-3.53342e-23
-5.91464e-24
-4.04655e-23
1.875e-06
-3.34946e-23
4.33247e-22
1.875e-06
7.58014e-23
8.38412e-22
1.875e-06
1.58228e-22
1.09429e-21
1.875e-06
2.30221e-22
1.33352e-21
1.875e-06
7.30882e-23
1.37608e-21
1.875e-06
7.02545e-23
1.30338e-21
1.875e-06
2.4902e-22
1.47416e-21
1.875e-06
9.6913e-23
1.38648e-21
1.875e-06
1.22581e-22
1.23619e-21
1.875e-06
7.45288e-23
1.09603e-21
1.875e-06
1.15151e-22
1.06477e-21
1.875e-06
1.6549e-22
1.04143e-21
1.875e-06
9.23414e-23
9.47136e-22
1.875e-06
1.20152e-22
1.00569e-21
1.875e-06
1.39298e-22
9.38829e-22
1.875e-06
1.84028e-22
8.93627e-22
1.875e-06
6.67122e-23
8.25025e-22
1.875e-06
4.27383e-23
7.34062e-22
1.875e-06
-7.74878e-24
7.4681e-22
1.875e-06
1.35545e-22
6.52645e-22
1.875e-06
1.98962e-22
7.0027e-22
1.875e-06
2.57627e-22
7.46399e-22
1.875e-06
1.30376e-22
5.8865e-22
1.875e-06
1.45122e-22
6.22251e-22
1.875e-06
1.73648e-22
5.44453e-22
1.875e-06
5.55815e-23
4.63558e-22
1.875e-06
-7.0985e-23
3.82657e-22
1.875e-06
-3.49777e-23
3.83192e-22
1.875e-06
5.36645e-24
2.94768e-22
1.875e-06
1.1796e-22
2.72864e-22
1.875e-06
3.69406e-23
3.09047e-22
1.875e-06
-5.23203e-23
2.98283e-22
1.875e-06
6.95345e-23
2.43229e-22
1.875e-06
7.89303e-24
1.31721e-22
1.875e-06
-1.48593e-22
-1.32175e-22
1.875e-06
8.41047e-23
-2.72249e-22
1.875e-06
7.35069e-23
-2.87788e-22
1.875e-06
2.56322e-23
-2.42864e-22
1.875e-06
3.45984e-23
-1.37194e-22
5.58105e-23
-1.40902e-22
1.875e-06
7.69898e-23
6.48131e-22
1.875e-06
1.41799e-22
9.94621e-22
1.875e-06
1.13027e-22
1.09449e-21
1.875e-06
8.38541e-23
1.21613e-21
1.875e-06
1.60082e-22
1.37997e-21
1.875e-06
1.53215e-22
1.34664e-21
1.875e-06
-5.07472e-24
1.28685e-21
1.875e-06
1.63059e-22
1.44471e-21
1.875e-06
9.59906e-23
1.38776e-21
1.875e-06
9.38545e-23
1.16036e-21
1.875e-06
2.19251e-22
9.91552e-22
1.875e-06
9.67369e-23
9.06927e-22
1.875e-06
4.86125e-23
9.70888e-22
1.875e-06
1.32743e-22
9.14211e-22
1.875e-06
7.30519e-23
9.22885e-22
1.875e-06
6.3978e-23
8.70513e-22
1.875e-06
1.79261e-22
8.99433e-22
1.875e-06
1.30095e-22
8.1875e-22
1.875e-06
1.5769e-22
8.5713e-22
1.875e-06
5.86322e-23
7.07239e-22
1.875e-06
9.06991e-23
6.81605e-22
1.875e-06
9.30654e-23
5.7938e-22
1.875e-06
1.16461e-22
6.36727e-22
1.875e-06
1.36829e-22
6.33099e-22
1.875e-06
1.16302e-22
4.91766e-22
1.875e-06
1.20277e-23
3.92942e-22
1.875e-06
6.52828e-23
4.91692e-22
1.875e-06
4.56812e-23
4.92907e-22
1.875e-06
3.21932e-23
3.16179e-22
1.875e-06
-9.64413e-23
2.23216e-22
1.875e-06
-3.05442e-23
3.09266e-22
1.875e-06
3.53489e-23
3.25658e-22
1.875e-06
4.0272e-23
1.08495e-22
1.875e-06
6.07401e-23
1.39098e-22
1.875e-06
8.37969e-23
6.99223e-24
1.875e-06
-1.14945e-22
-3.08155e-22
1.875e-06
-1.29798e-22
-3.584e-22
1.875e-06
-2.52175e-23
-2.113e-22
1.875e-06
5.47436e-23
-1.93898e-22
8.06371e-23
-2.05301e-22
1.875e-06
2.344e-22
5.99644e-22
1.875e-06
9.51001e-23
9.75022e-22
1.875e-06
1.21253e-22
1.09167e-21
1.875e-06
1.32845e-22
1.25967e-21
1.875e-06
1.57762e-22
1.40218e-21
1.875e-06
8.17069e-23
1.35036e-21
1.875e-06
2.11369e-22
1.42946e-21
1.875e-06
1.93051e-22
1.37702e-21
1.875e-06
6.22378e-23
1.29353e-21
1.875e-06
2.1031e-23
1.16908e-21
1.875e-06
1.8449e-23
8.85909e-22
1.875e-06
1.39732e-22
9.2892e-22
1.875e-06
1.21691e-22
1.05817e-21
1.875e-06
1.25072e-22
9.55739e-22
1.875e-06
1.06625e-22
9.18463e-22
1.875e-06
1.35601e-22
9.15403e-22
1.875e-06
9.33547e-23
9.07582e-22
1.875e-06
7.67291e-23
7.59408e-22
1.875e-06
1.17921e-22
8.1381e-22
1.875e-06
2.7535e-22
8.31779e-22
1.875e-06
1.21735e-22
7.25344e-22
1.875e-06
4.47333e-23
6.23583e-22
1.875e-06
4.01254e-23
5.50806e-22
1.875e-06
5.90419e-23
5.88824e-22
1.875e-06
-7.95011e-23
4.7408e-22
1.875e-06
-1.02751e-23
5.24983e-22
1.875e-06
-2.35012e-23
4.52424e-22
1.875e-06
6.59131e-24
4.04286e-22
1.875e-06
1.24808e-23
2.65383e-22
1.875e-06
-5.1203e-23
3.4821e-22
1.875e-06
9.58339e-23
3.58961e-22
1.875e-06
1.18949e-22
3.44425e-22
1.875e-06
-8.7518e-23
1.13094e-22
1.875e-06
3.9304e-23
4.60523e-23
1.875e-06
1.1948e-22
-9.60945e-23
1.875e-06
-9.38696e-23
-2.1878e-22
1.875e-06
-6.30322e-23
-2.96582e-22
1.875e-06
1.82587e-23
-2.17925e-22
1.875e-06
-8.06174e-23
-2.4405e-22
-1.24562e-22
-4.55222e-22
1.875e-06
7.73266e-23
5.56286e-22
1.875e-06
1.93751e-22
9.77103e-22
1.875e-06
1.31636e-22
1.11671e-21
1.875e-06
1.54851e-22
1.32246e-21
1.875e-06
-3.60328e-24
1.36578e-21
1.875e-06
2.91324e-24
1.38943e-21
1.875e-06
2.61648e-23
1.29052e-21
1.875e-06
-1.97202e-23
1.20736e-21
1.875e-06
1.46827e-22
1.25312e-21
1.875e-06
1.4269e-22
1.1418e-21
1.875e-06
2.70355e-23
9.53598e-22
1.875e-06
1.13212e-22
9.77267e-22
1.875e-06
1.59456e-22
1.08914e-21
1.875e-06
1.1037e-22
9.95674e-22
1.875e-06
1.05674e-22
9.41011e-22
1.875e-06
5.23774e-23
8.03298e-22
1.875e-06
1.10252e-22
8.15201e-22
1.875e-06
8.84025e-23
8.02051e-22
1.875e-06
1.2915e-22
9.18749e-22
1.875e-06
1.28538e-22
7.80671e-22
1.875e-06
1.49947e-22
6.67495e-22
1.875e-06
1.30702e-22
6.37961e-22
1.875e-06
5.47724e-23
6.62407e-22
1.875e-06
-1.67587e-23
5.96853e-22
1.875e-06
1.96783e-24
5.66638e-22
1.875e-06
-1.98358e-23
5.01604e-22
1.875e-06
-9.03379e-23
4.35851e-22
1.875e-06
-2.88219e-23
3.79055e-22
1.875e-06
-4.45354e-23
3.30204e-22
1.875e-06
-6.73387e-23
3.31038e-22
1.875e-06
-9.76708e-23
2.76174e-22
1.875e-06
7.35802e-23
3.14011e-22
1.875e-06
6.77982e-23
2.22286e-22
1.875e-06
-3.0252e-23
-4.31779e-23
1.875e-06
-4.70077e-24
-9.57132e-23
1.875e-06
3.57619e-24
-2.65553e-22
1.875e-06
3.43765e-24
-2.61753e-22
1.875e-06
-1.3498e-22
-1.64315e-22
1.875e-06
-1.21309e-22
-1.60337e-22
-1.25773e-22
-3.25049e-22
1.875e-06
-1.6382e-22
5.72177e-22
1.875e-06
3.47824e-23
9.17534e-22
1.875e-06
1.65576e-22
1.16382e-21
1.875e-06
3.72028e-23
1.28757e-21
1.875e-06
6.47307e-24
1.4012e-21
1.875e-06
2.73545e-24
1.39314e-21
1.875e-06
5.64869e-23
1.38486e-21
1.875e-06
2.18077e-22
1.23845e-21
1.875e-06
7.9704e-23
1.17377e-21
1.875e-06
-7.78116e-23
1.10973e-21
1.875e-06
-3.09651e-23
1.05883e-21
1.875e-06
1.35269e-22
9.77953e-22
1.875e-06
1.69827e-22
1.04749e-21
1.875e-06
6.66859e-23
9.27843e-22
1.875e-06
1.58901e-23
9.28448e-22
1.875e-06
2.74804e-23
8.74787e-22
1.875e-06
1.27212e-22
9.36439e-22
1.875e-06
2.32382e-22
9.2323e-22
1.875e-06
2.53845e-22
8.10356e-22
1.875e-06
6.12696e-23
6.54378e-22
1.875e-06
1.70529e-22
7.08287e-22
1.875e-06
4.32057e-23
6.90253e-22
1.875e-06
4.92772e-23
6.65407e-22
1.875e-06
-6.32011e-24
6.61097e-22
1.875e-06
-9.06257e-23
5.153e-22
1.875e-06
2.05985e-23
4.9602e-22
1.875e-06
1.29383e-22
5.28671e-22
1.875e-06
-1.15779e-23
4.31076e-22
1.875e-06
-9.33189e-23
3.50753e-22
1.875e-06
-7.26833e-23
3.12059e-22
1.875e-06
-1.14367e-22
2.97119e-22
1.875e-06
-1.4852e-22
2.01048e-22
1.875e-06
1.1747e-23
2.01514e-22
1.875e-06
-1.74834e-23
9.06332e-23
1.875e-06
-4.24494e-23
-1.58223e-22
1.875e-06
-3.08313e-23
-3.2482e-22
1.875e-06
-1.31388e-22
-4.32154e-22
1.875e-06
-3.44813e-23
-2.58018e-22
1.875e-06
-1.00539e-22
-2.17955e-22
-1.68315e-22
-2.91036e-22
1.875e-06
-5.75505e-23
7.6377e-22
1.875e-06
-1.77887e-22
9.76951e-22
1.875e-06
7.06492e-25
1.0919e-21
1.875e-06
-1.51272e-23
1.28635e-21
1.875e-06
2.17709e-23
1.43701e-21
1.875e-06
4.4638e-23
1.33535e-21
1.875e-06
-7.08047e-23
1.29269e-21
1.875e-06
-4.9968e-23
1.14413e-21
1.875e-06
5.01427e-23
1.21502e-21
1.875e-06
1.48271e-24
1.19482e-21
1.875e-06
1.28962e-22
1.15962e-21
1.875e-06
7.73633e-23
9.95036e-22
1.875e-06
1.02915e-22
1.05096e-21
1.875e-06
7.95785e-23
1.00734e-21
1.875e-06
1.77384e-22
9.64783e-22
1.875e-06
1.75634e-22
8.52103e-22
1.875e-06
8.81105e-23
8.19147e-22
1.875e-06
1.22442e-22
8.42035e-22
1.875e-06
9.2517e-23
7.89626e-22
1.875e-06
1.09931e-22
7.92275e-22
1.875e-06
6.62228e-23
6.8324e-22
1.875e-06
1.61072e-22
6.96864e-22
1.875e-06
5.45857e-23
7.59175e-22
1.875e-06
-1.68163e-22
5.71704e-22
1.875e-06
-1.38316e-22
5.22128e-22
1.875e-06
-1.14899e-24
5.3701e-22
1.875e-06
6.71213e-23
4.35863e-22
1.875e-06
1.19717e-23
4.00427e-22
1.875e-06
-1.40643e-23
3.2799e-22
1.875e-06
-4.16248e-23
2.70553e-22
1.875e-06
-1.56134e-23
3.51632e-22
1.875e-06
-5.28952e-23
2.97822e-22
1.875e-06
-2.49188e-23
2.04251e-22
1.875e-06
-7.94024e-24
4.90659e-23
1.875e-06
-4.59484e-23
-1.59489e-22
1.875e-06
2.95987e-24
-2.53798e-22
1.875e-06
-1.17442e-22
-3.6631e-22
1.875e-06
-1.58219e-22
-2.95934e-22
1.875e-06
-5.14051e-23
-2.29421e-22
-9.05451e-23
-2.63278e-22
1.875e-06
-5.39193e-23
6.79357e-22
1.875e-06
-1.08372e-22
1.08626e-21
1.875e-06
-1.31757e-22
1.19616e-21
1.875e-06
-1.23915e-22
1.3734e-21
1.875e-06
-5.85359e-23
1.41431e-21
1.875e-06
2.66623e-24
1.35567e-21
1.875e-06
3.05351e-23
1.32819e-21
1.875e-06
3.58339e-23
1.23277e-21
1.875e-06
2.42415e-23
1.18522e-21
1.875e-06
1.3002e-22
1.18643e-21
1.875e-06
-4.86013e-24
1.11866e-21
1.875e-06
7.65074e-23
1.06148e-21
1.875e-06
-7.6563e-23
1.07034e-21
1.875e-06
1.21415e-23
1.04103e-21
1.875e-06
1.3509e-22
9.30076e-22
1.875e-06
1.86539e-22
7.49241e-22
1.875e-06
1.17505e-22
8.26828e-22
1.875e-06
7.06121e-23
8.45273e-22
1.875e-06
1.98271e-22
8.4382e-22
1.875e-06
9.47593e-23
7.26505e-22
1.875e-06
1.35918e-22
7.10426e-22
1.875e-06
8.00415e-24
6.56817e-22
1.875e-06
-5.69046e-23
6.63835e-22
1.875e-06
-1.16486e-22
5.93563e-22
1.875e-06
-2.29616e-23
6.11549e-22
1.875e-06
-1.35839e-22
5.33888e-22
1.875e-06
-2.28815e-24
3.8632e-22
1.875e-06
1.55824e-22
3.88773e-22
1.875e-06
-3.73247e-23
3.91372e-22
1.875e-06
4.73445e-23
3.55246e-22
1.875e-06
1.05034e-23
2.95096e-22
1.875e-06
-2.39491e-23
2.63792e-22
1.875e-06
-1.2028e-23
1.90628e-22
1.875e-06
-1.29359e-22
8.57192e-23
1.875e-06
-2.36118e-22
-1.68671e-22
1.875e-06
-1.4959e-22
-3.68653e-22
1.875e-06
4.82769e-23
-2.43222e-22
1.875e-06
-2.13424e-23
-9.2648e-23
1.875e-06
-3.51854e-23
-1.57411e-22
-1.18192e-23
-1.86622e-22
1.875e-06
-1.50326e-22
5.83634e-22
1.875e-06
-7.19188e-23
1.09277e-21
1.875e-06
-2.20461e-23
1.26806e-21
1.875e-06
-4.1084e-23
1.40054e-21
1.875e-06
-6.58561e-23
1.5295e-21
1.875e-06
3.72608e-24
1.35153e-21
1.875e-06
-1.01553e-22
1.32787e-21
1.875e-06
-1.39169e-22
1.28011e-21
1.875e-06
1.63503e-23
1.31191e-21
1.875e-06
1.74755e-22
1.11404e-21
1.875e-06
1.33965e-22
1.13578e-21
1.875e-06
-5.3647e-23
1.08408e-21
1.875e-06
2.37239e-23
1.16842e-21
1.875e-06
5.76852e-23
1.16329e-21
1.875e-06
1.42357e-22
9.29743e-22
1.875e-06
5.56957e-23
6.86731e-22
1.875e-06
6.03825e-23
7.67746e-22
1.875e-06
3.32954e-23
7.81432e-22
1.875e-06
9.10354e-23
8.36731e-22
1.875e-06
2.2684e-22
7.82051e-22
1.875e-06
1.68871e-22
7.20081e-22
1.875e-06
-5.18672e-23
6.19273e-22
1.875e-06
-2.13079e-22
5.25011e-22
1.875e-06
-5.61252e-23
5.79259e-22
1.875e-06
-2.94811e-23
5.60699e-22
1.875e-06
9.09348e-23
6.46952e-22
1.875e-06
6.55053e-23
3.853e-22
1.875e-06
2.19501e-23
3.09078e-22
1.875e-06
1.09173e-22
4.81069e-22
1.875e-06
5.98213e-23
3.5784e-22
1.875e-06
3.14024e-23
2.51506e-22
1.875e-06
-6.39754e-23
2.52677e-22
1.875e-06
-1.9531e-22
1.59449e-22
1.875e-06
-1.04945e-22
2.02545e-22
1.875e-06
-8.70579e-23
6.90447e-23
1.875e-06
-1.20684e-22
-2.63847e-22
1.875e-06
-4.34843e-23
-2.76567e-22
1.875e-06
7.50887e-23
-9.30694e-23
1.875e-06
-8.38981e-23
-2.17515e-22
-6.4899e-23
-3.5578e-22
1.875e-06
-9.308e-23
6.86608e-22
1.875e-06
-1.63058e-22
1.11833e-21
1.875e-06
-1.67757e-22
1.23717e-21
1.875e-06
2.28881e-23
1.43018e-21
1.875e-06
6.6673e-23
1.45202e-21
1.875e-06
-1.42134e-22
1.32688e-21
1.875e-06
-1.18676e-22
1.34639e-21
1.875e-06
-1.0491e-22
1.35656e-21
1.875e-06
1.21223e-23
1.34861e-21
1.875e-06
3.8043e-23
1.24291e-21
1.875e-06
3.13514e-23
1.13841e-21
1.875e-06
1.07907e-22
1.0902e-21
1.875e-06
6.19292e-23
1.15538e-21
1.875e-06
3.88769e-23
1.19165e-21
1.875e-06
2.29696e-23
9.22454e-22
1.875e-06
7.70439e-23
8.27092e-22
1.875e-06
5.83153e-23
8.14411e-22
1.875e-06
2.06621e-22
8.3175e-22
1.875e-06
2.05756e-22
6.9676e-22
1.875e-06
1.39622e-22
6.2549e-22
1.875e-06
-5.05537e-23
5.72632e-22
1.875e-06
-2.27599e-22
7.06533e-22
1.875e-06
-1.03126e-22
5.94832e-22
1.875e-06
-3.61135e-23
6.02732e-22
1.875e-06
-5.99643e-23
6.31452e-22
1.875e-06
-5.06737e-24
6.16574e-22
1.875e-06
8.72333e-23
4.58757e-22
1.875e-06
1.81303e-23
3.29337e-22
1.875e-06
3.05138e-23
3.19771e-22
1.875e-06
8.89521e-23
3.19818e-22
1.875e-06
6.9296e-23
2.28545e-22
1.875e-06
-5.66978e-23
2.04829e-22
1.875e-06
-7.43242e-23
2.15891e-22
1.875e-06
-2.17488e-23
2.09482e-22
1.875e-06
-6.14365e-23
9.57838e-23
1.875e-06
-7.46538e-23
-7.82072e-23
1.875e-06
-4.07946e-23
-1.27055e-22
1.875e-06
-1.25564e-23
-1.75305e-22
1.875e-06
1.417e-22
-1.75786e-22
1.18735e-22
-2.88337e-22
1.875e-06
-6.29709e-23
7.71696e-22
1.875e-06
1.76881e-23
1.14298e-21
1.875e-06
8.16353e-25
1.26591e-21
1.875e-06
-3.69826e-23
1.42203e-21
1.875e-06
-9.02771e-23
1.44133e-21
1.875e-06
-1.82006e-22
1.4017e-21
1.875e-06
-1.37158e-22
1.43903e-21
1.875e-06
-1.75112e-23
1.46531e-21
1.875e-06
6.31667e-23
1.35894e-21
1.875e-06
-5.21041e-24
1.19836e-21
1.875e-06
6.58253e-23
1.17733e-21
1.875e-06
1.09377e-22
1.16298e-21
1.875e-06
7.3389e-23
1.17769e-21
1.875e-06
1.49293e-22
1.20052e-21
1.875e-06
5.81024e-24
9.53805e-22
1.875e-06
-7.68852e-23
8.5598e-22
1.875e-06
-5.62019e-23
8.14568e-22
1.875e-06
-7.59894e-24
7.22439e-22
1.875e-06
1.166e-22
6.19511e-22
1.875e-06
9.39446e-24
5.53619e-22
1.875e-06
-7.09101e-23
5.55438e-22
1.875e-06
2.67281e-23
7.6401e-22
1.875e-06
-3.22245e-23
6.9599e-22
1.875e-06
-1.87738e-24
6.71317e-22
1.875e-06
-2.17833e-23
6.16572e-22
1.875e-06
-5.39726e-23
5.34992e-22
1.875e-06
9.84101e-23
4.16251e-22
1.875e-06
1.27176e-22
4.34697e-22
1.875e-06
1.40048e-22
3.49853e-22
1.875e-06
-4.99437e-23
3.01072e-22
1.875e-06
-8.98281e-23
1.35323e-22
1.875e-06
-1.77839e-23
1.15105e-22
1.875e-06
-1.256e-23
1.927e-22
1.875e-06
-7.24064e-24
3.07004e-22
1.875e-06
5.79361e-23
1.67952e-22
1.875e-06
3.84591e-23
1.81554e-23
1.875e-06
2.90113e-23
-8.22795e-23
1.875e-06
-3.36725e-23
-1.49079e-22
1.875e-06
-2.5551e-24
-3.00381e-22
5.16344e-23
-3.11448e-22
1.875e-06
1.89976e-22
8.71535e-22
1.875e-06
9.53024e-23
1.09865e-21
1.875e-06
-5.38528e-23
1.10047e-21
1.875e-06
-2.20146e-22
1.31062e-21
1.875e-06
-1.12189e-22
1.5253e-21
1.875e-06
-4.70572e-23
1.48237e-21
1.875e-06
3.5864e-23
1.51409e-21
1.875e-06
-4.90528e-23
1.46355e-21
1.875e-06
-1.30191e-22
1.28013e-21
1.875e-06
7.85117e-24
1.4023e-21
1.875e-06
-2.2418e-22
1.20565e-21
1.875e-06
4.10547e-22
1.19982e-21
1.875e-06
9.6049e-23
1.14885e-21
1.875e-06
1.23363e-22
1.15298e-21
1.875e-06
1.79987e-23
1.0988e-21
1.875e-06
-1.78498e-22
9.7425e-22
1.875e-06
-1.03608e-22
7.99181e-22
1.875e-06
-7.41074e-23
5.87034e-22
1.875e-06
-5.80618e-23
5.85436e-22
1.875e-06
-5.75913e-23
5.74241e-22
1.875e-06
-6.34018e-23
5.7344e-22
1.875e-06
-8.91693e-23
6.72455e-22
1.875e-06
-2.92152e-24
8.07389e-22
1.875e-06
6.80915e-23
6.58639e-22
1.875e-06
1.68717e-22
5.9084e-22
1.875e-06
7.06107e-23
5.18246e-22
1.875e-06
-4.9763e-23
3.58792e-22
1.875e-06
-1.66536e-23
3.54661e-22
1.875e-06
-1.67471e-22
2.92771e-22
1.875e-06
1.8235e-22
2.85483e-22
1.875e-06
1.88617e-24
2.92096e-22
1.875e-06
3.4294e-24
2.04909e-22
1.875e-06
1.26024e-22
1.37778e-22
1.875e-06
-1.11796e-22
2.93627e-22
1.875e-06
6.93258e-23
1.62009e-22
1.875e-06
1.19121e-22
5.38178e-23
1.875e-06
-5.14143e-23
-8.55679e-23
1.875e-06
3.61501e-23
-2.1952e-22
1.875e-06
1.32359e-24
-4.63851e-22
-3.8659e-23
-3.31167e-22
1.875e-06
2.71658e-22
7.14869e-22
1.875e-06
1.33013e-22
9.9188e-22
1.875e-06
-1.40359e-23
1.07081e-21
1.875e-06
8.28267e-24
1.39846e-21
1.875e-06
-9.23567e-24
1.44059e-21
1.875e-06
-2.76231e-23
1.49863e-21
1.875e-06
1.27829e-23
1.43414e-21
1.875e-06
-4.95861e-23
1.44057e-21
1.875e-06
-1.48836e-22
1.34146e-21
1.875e-06
-7.62991e-23
1.41001e-21
1.875e-06
-1.14171e-23
1.30974e-21
1.875e-06
6.3583e-23
1.27055e-21
1.875e-06
1.72137e-22
1.22924e-21
1.875e-06
1.12998e-22
1.07391e-21
1.875e-06
-1.00566e-22
9.75624e-22
1.875e-06
-4.62854e-23
9.92778e-22
1.875e-06
-1.01131e-22
8.47298e-22
1.875e-06
-1.14164e-22
6.42797e-22
1.875e-06
-1.77721e-22
6.44668e-22
1.875e-06
-1.03171e-22
6.40612e-22
1.875e-06
-3.30298e-23
6.25226e-22
1.875e-06
-1.0275e-22
7.47085e-22
1.875e-06
2.2117e-23
8.27963e-22
1.875e-06
5.71439e-23
5.72753e-22
1.875e-06
7.75604e-23
4.7695e-22
1.875e-06
1.31185e-22
5.35476e-22
1.875e-06
1.06718e-23
3.38781e-22
1.875e-06
6.1514e-23
3.7814e-22
1.875e-06
-2.28801e-23
3.59449e-22
1.875e-06
-6.06499e-23
2.51539e-22
1.875e-06
1.01562e-23
2.60392e-22
1.875e-06
2.95248e-23
9.24804e-23
1.875e-06
-5.78812e-23
8.96768e-23
1.875e-06
6.84203e-23
3.51151e-22
1.875e-06
1.54329e-22
2.73052e-22
1.875e-06
1.53002e-22
3.85673e-23
1.875e-06
1.09462e-22
-1.32733e-22
1.875e-06
-3.04273e-23
-3.04497e-22
1.875e-06
-1.19639e-22
-4.64228e-22
-1.02581e-22
-2.93375e-22
1.875e-06
4.68025e-23
5.48636e-22
1.875e-06
6.54745e-23
1.00332e-21
1.875e-06
2.13966e-23
1.10034e-21
1.875e-06
5.03081e-23
1.27726e-21
1.875e-06
-3.03266e-24
1.29407e-21
1.875e-06
1.50131e-22
1.53397e-21
1.875e-06
1.53483e-23
1.4252e-21
1.875e-06
-6.69926e-23
1.42471e-21
1.875e-06
4.31686e-24
1.43896e-21
1.875e-06
-1.46584e-22
1.4623e-21
1.875e-06
-6.41144e-23
1.39002e-21
1.875e-06
2.58205e-24
1.17255e-21
1.875e-06
-3.37684e-23
1.19263e-21
1.875e-06
-1.99216e-22
1.07703e-21
1.875e-06
-1.01757e-22
1.00218e-21
1.875e-06
-9.99397e-23
9.82431e-22
1.875e-06
-1.52514e-22
8.84396e-22
1.875e-06
-1.86556e-22
7.2239e-22
1.875e-06
-2.14312e-22