/*--------------------------------*- C++ -*----------------------------------*\
| =========                 |                                                 |
| \\      /  F ield         | OpenFOAM: The Open Source CFD Toolbox           |
|  \\    /   O peration     | Version:  v2012                                 |
|   \\  /    A nd           | Website:  www.openfoam.com                      |
|    \\/     M anipulation  |                                                 |
\*---------------------------------------------------------------------------*/
FoamFile
{
    version     2.0;
    format      ascii;
    class       volScalarField;
    location    "540/topAir";
    object      rho;
}
// * * * * * * * * * * * * * * * * * * * * * * * * * * * * * * * * * * * * * //

dimensions      [1 -3 0 0 0 0 0];


internalField   nonuniform List<scalar> 
1200
(
1.0696624
0.99875536
0.94223421
0.89543146
0.85536089
0.82026966
0.78918191
0.7617574
0.73797053
0.71738154
0.69976536
0.68509923
0.67376288
0.67393658
0.67742939
0.68420926
0.69342664
0.703758
0.71391887
0.72299477
0.73049012
0.73622239
0.74018313
0.74243399
0.74305225
0.74208342
0.73948267
0.7350082
0.72796645
0.71720766
1.15655
1.1526641
1.1473889
1.140991
1.1336671
1.1255749
1.1168569
1.1069184
1.0935106
1.0760587
1.0523082
1.0216309
0.98480758
0.94782114
0.91406649
0.88583284
0.86368358
0.8474019
0.83652807
0.83036696
0.8277634
0.82731763
0.82771792
0.82790127
0.82704642
0.82443727
0.81929355
0.81053512
0.79620537
0.77503187
1.158574
1.1584437
1.1582021
1.1578255
1.1572942
1.1565915
1.1557042
1.1546049
1.1532096
1.1514241
1.1489835
1.1415495
1.1224581
1.0900796
1.0492396
1.0056667
0.96478528
0.92936361
0.90061649
0.87874082
0.86312148
0.85256996
0.84568472
0.84113423
0.83778861
0.83470896
0.8310601
0.82590786
0.81768241
0.80422265
1.158618
1.1586137
1.1586033
1.1585829
1.1585476
1.1584914
1.1584072
1.1582862
1.1581152
1.1578747
1.1575187
1.1567653
1.154464
1.1424676
1.1098228
1.065886
1.0226072
0.98303899
0.94865152
0.92027742
0.89801524
0.8812461
0.86892504
0.85991994
0.85321082
0.84794682
0.84339287
0.83880546
0.83310464
0.82464641
1.0696767
0.99947741
0.94411991
0.89881246
0.86056623
0.82767194
0.79917179
0.77453984
0.75359778
0.73641697
0.72331842
0.71481526
0.71179085
0.72467434
0.74238656
0.76228227
0.78070268
0.79509005
0.80486302
0.81089288
0.81439037
0.81621402
0.81674433
0.81603387
0.81402582
0.81061313
0.80561756
0.79856006
0.78789665
0.77053978
1.1565527
1.152739
1.1476621
1.1416253
1.1348617
1.1275666
1.1199345
1.1121774
1.1045422
1.0973399
1.0909858
1.0860064
1.0830321
1.0828506
1.084352
1.0849698
1.0823042
1.0760352
1.0674532
1.0579811
1.0481798
1.0380154
1.0272416
1.0155686
1.0027774
0.9887549
0.97357364
0.95748403
0.94013196
0.91818555
1.1585742
1.1584474
1.1582182
1.1578705
1.1573933
1.1567802
1.1560302
1.1551498
1.1541539
1.1530728
1.1519598
1.1508181
1.149666
1.1482524
1.1438427
1.1331995
1.1141733
1.0893431
1.0636092
1.0412405
1.0217341
1.0032827
0.9856217
0.96860796
0.95241584
0.93597851
0.91891243
0.90171957
0.88436232
0.86642074
1.158618
1.1586138
1.1586041
1.1585857
1.158555
1.1585077
1.1584395
1.1583457
1.1582216
1.158062
1.1578594
1.157578
1.1569589
1.1537375
1.1401172
1.1131666
1.0785448
1.0368382
0.99593805
0.96072903
0.93358412
0.91359066
0.89798441
0.88521362
0.87455606
0.86630756
0.85961758
0.8537699
0.84793422
0.83956531
1.069676
0.99934947
0.94384646
0.89838304
0.85995577
0.82683366
0.79797564
0.77271928
0.75070829
0.73185075
0.71635709
0.70483678
0.69864712
0.70954111
0.72497936
0.74209633
0.75888873
0.7747643
0.78951222
0.80294091
0.81487042
0.82490361
0.83239884
0.83676365
0.83777608
0.83569054
0.83099727
0.82394164
0.81291767
0.79500503
1.1565523
1.1527256
1.147625
1.1415576
1.1347541
1.1274014
1.1196704
1.1117378
1.1038185
1.0962023
1.0893313
1.0839024
1.0808855
1.0809335
1.081638
1.0806969
1.0779437
1.073861
1.068405
1.0615049
1.0529487
1.0422288
1.0288521
1.0127442
0.99429569
0.97400275
0.95217826
0.92947225
0.90620102
0.88055716
1.1585742
1.1584468
1.1582163
1.1578669
1.1573877
1.1567726
1.1560203
1.1551357
1.1541333
1.1530451
1.1519377
1.1509343
1.1500942
1.1475185
1.1375198
1.1216921
1.1065693
1.0938904
1.0808894
1.0668792
1.0507516
1.0309393
1.00711
0.98052974
0.95334422
0.92805509
0.90599531
0.88692124
0.8661629
0.84159249
1.158618
1.1586138
1.1586041
1.1585856
1.1585548
1.1585076
1.1584399
1.1583471
1.158225
1.1580696
1.1578756
1.1576003
1.1565396
1.146342
1.1086539
1.0638212
1.0387567
1.0360064
1.0107467
0.97975682
0.95288718
0.93179118
0.91490822
0.90088226
0.88893941
0.87889088
0.87034427
0.86213142
0.84415075
0.82301523
1.0696612
0.99928081
0.94367793
0.8980654
0.85941186
0.8259335
0.79652397
0.77045355
0.74723323
0.72661911
0.70868325
0.69401226
0.68393163
0.68923816
0.69345862
0.69436913
0.69279721
0.69059707
0.68917265
0.68955136
0.69229144
0.69729293
0.70400531
0.71177569
0.71984098
0.72680757
0.73017887
0.7269533
0.71788692
0.70290149
1.1565518
1.1527194
1.147602
1.1415012
1.1346391
1.1271865
1.1192887
1.1110866
1.1027467
1.0945216
1.0868767
1.0806731
1.0769995
1.0748048
1.0708197
1.0653886
1.0593209
1.0531053
1.0467592
1.0399165
1.0318431
1.021771
1.0093733
0.99486797
0.97852378
0.96037991
0.94104412
0.92011375
0.88325632
0.82194923
1.1585741
1.1584465
1.1582151
1.1578632
1.1573792
1.1567553
1.1559874
1.1550767
1.154033
1.1528862
1.1517132
1.1506703
1.1494544
1.1411144
1.1237959
1.110813
1.1021806
1.0948607
1.0855027
1.0720522
1.0532969
1.028779
0.99971373
0.96841347
0.93652846
0.90628913
0.88145995
0.86115573
0.84092859
0.8115563
1.158618
1.1586138
1.158604
1.1585854
1.1585542
1.1585063
1.158437
1.1583415
1.1582146
1.1580504
1.1578369
1.1574278
1.1542733
1.1181161
1.0385872
0.99787873
0.99462854
0.99491321
0.99043011
0.97306434
0.95351111
0.93556357
0.91949859
0.90474004
0.88975656
0.87282619
0.85510502
0.83628088
0.81654557
0.7962362
1.0696467
0.99924233
0.94360727
0.89795676
0.85925739
0.82572347
0.79624956
0.77010448
0.74683345
0.72626246
0.70864234
0.69486066
0.68606721
0.69224905
0.69453275
0.69255949
0.68945345
0.68487653
0.67955477
0.6740452
0.66884931
0.66442176
0.66112545
0.65917975
0.65858875
0.65900139
0.65953734
0.65874425
0.65482477
0.64578297
1.1565514
1.1527163
1.1475915
1.1414772
1.1345941
1.1271112
1.1191724
1.1109192
1.1025302
1.0943067
1.086849
1.0812545
1.0782594
1.0738561
1.06781
1.0608571
1.0480527
1.0301241
1.0083801
0.98365654
0.95657205
0.92739914
0.89660866
0.86537667
0.83515413
0.80699769
0.78108853
0.7566917
0.73210731
0.70397421
1.1585741
1.1584464
1.1582144
1.1578614
1.1573751
1.1567473
1.1559732
1.1550535
1.1539988
1.1528454
1.151694
1.1507123
1.1484147
1.1305926
1.1169908
1.1086353
1.1033943
1.0966774
1.0874334
1.0748913
1.0555416
1.0286234
0.99629371
0.96300164
0.92953008
0.89615129
0.86287891
0.82897807
0.79318187
0.75306318
1.158618
1.1586138
1.158604
1.1585852
1.1585538
1.1585055
1.1584354
1.1583384
1.1582086
1.1580389
1.1578046
1.157119
1.1488393
1.0451678
0.98335731
0.97146183
0.9654124
0.95934393
0.95143199
0.94147055
0.93091314
0.91965501
0.90887564
0.89941975
0.89206279
0.88383539
0.86729551
0.84281886
0.8105009
0.77259221
1.0696304
0.999215
0.94357234
0.89791579
0.85920989
0.82566739
0.79617971
0.77001347
0.74669568
0.726011
0.70811045
0.69374706
0.68433982
0.69158273
0.69589107
0.69572189
0.6923986
0.68766912
0.68226757
0.67675736
0.67163365
0.66732714
0.66417275
0.6623709
0.66191497
0.66243353
0.66301406
0.66220207
0.65817134
0.64906035
1.156551
1.1527151
1.1475892
1.1414735
1.1345886
1.127103
1.1191589
1.110894
1.1024756
1.0941736
1.0865141
1.0804934
1.0771992
1.0740609
1.0687955
1.0623919
1.0543188
1.0419253
1.0272238
1.0123235
0.99758279
0.98097794
0.95955596
0.93211335
0.90076936
0.86753864
0.83398879
0.80045497
0.76572922
0.72687724
1.1585741
1.1584463
1.1582143
1.1578612
1.1573748
1.1567469
1.1559725
1.1550521
1.1539948
1.152832
1.1516505
1.1506248
1.1490834
1.1348855
1.1177657
1.1065438
1.1005038
1.0951896
1.0886295
1.0769335
1.0574541
1.0292737
0.99649152
0.9664533
0.9411092
0.91896904
0.89345081
0.86211589
0.8241503
0.77868813
1.158618
1.1586138
1.158604
1.1585852
1.1585538
1.1585055
1.1584355
1.1583386
1.1582092
1.1580406
1.1578169
1.1573244
1.1525803
1.0869187
0.98875478
0.97144855
0.96415877
0.95834442
0.95183868
0.94585987
0.9367476
0.92538256
0.91379753
0.90293706
0.89311116
0.88442506
0.87832717
0.85525485
0.82498294
0.78853148
1.0696139
0.99920171
0.9435771
0.89794872
0.85927889
0.82578283
0.79635309
0.77025163
0.74697941
0.72625966
0.70809118
0.69292574
0.68206138
0.68734472
0.69299395
0.6958707
0.69595406
0.69494981
0.69454397
0.6958351
0.69929679
0.70475375
0.71162767
0.71932605
0.72724992
0.73416832
0.73770265
0.73465291
0.72309853
0.70755304
1.1565506
1.152716
1.1475955
1.1414908
1.1346239
1.1271651
1.1192585
1.1110408
1.1026684
1.0943683
1.086547
1.0799667
1.0757746
1.0741557
1.0714288
1.0667135
1.0610881
1.0553039
1.0495052
1.0433734
1.03621
1.0271349
1.0155296
1.0013635
0.98489673
0.96613913
0.9461155
0.9251442
0.89539548
0.83589534
1.1585741
1.1584464
1.1582148
1.1578627
1.1573785
1.1567541
1.1559857
1.1550738
1.1540273
1.1528718
1.1516727
1.1505734
1.1495523
1.1446192
1.1280207
1.1117504
1.1005826
1.0924323
1.0833157
1.0707417
1.0530492
1.0295257
1.0016363
0.97254438
0.94371103
0.91531922
0.89252602
0.87465036
0.85553053
0.8277869
1.158618
1.1586138
1.158604
1.1585853
1.1585541
1.1585062
1.158437
1.1583417
1.158215
1.1580517
1.1578428
1.157509
1.1556904
1.1351317
1.0659779
0.99938659
0.99279003
0.99413255
0.9964649
0.9831063
0.96308774
0.94265436
0.92561133
0.91096499
0.89664239
0.87923351
0.86400919
0.84849321
0.82578687
0.80502565
1.0696036
0.99922801
0.94369204
0.89820697
0.85976143
0.82662043
0.79774025
0.77245745
0.75040866
0.731482
0.71583967
0.70399059
0.69716903
0.70739379
0.72299466
0.74124545
0.75955128
0.77673917
0.79234415
0.80612193
0.81793649
0.82759107
0.83475437
0.83910584
0.8405336
0.83920847
0.83542073
0.82922397
0.81919507
0.80169434
1.1565505
1.1527203
1.1476149
1.1415417
1.1347316
1.1273711
1.1196306
1.1116842
1.1037411
1.0960738
1.0890874
1.0834103
1.0799685
1.0798411
1.0813662
1.0814606
1.0793594
1.0755873
1.0702951
1.0635173
1.0552104
1.0450665
1.0326813
1.0178932
1.0008502
0.98170999
0.96056651
0.93807496
0.91501051
0.88949264
1.1585741
1.1584466
1.1582159
1.1578661
1.1573865
1.156771
1.1560181
1.1551326
1.1541282
1.1530348
1.1519116
1.1508692
1.1500279
1.1484916
1.1412543
1.12587
1.1093262
1.0955203
1.0821911
1.0680956
1.0524519
1.0339554
1.0121189
0.9878948
0.96278804
0.93824257
0.91523069
0.89471906
0.87420987
0.85084326
1.158618
1.1586138
1.158604
1.1585855
1.1585547
1.1585076
1.1584398
1.1583473
1.1582255
1.1580709
1.157879
1.157627
1.1569568
1.1514385
1.1243108
1.0757308
1.0454374
1.0384188
1.0175108
0.98818973
0.96046747
0.93805975
0.9201543
0.90546106
0.89296512
0.88229305
0.87320621
0.86503254
0.85011866
0.82329813
1.0695871
0.99932729
0.94392865
0.89859288
0.86032112
0.82739905
0.79887146
0.77421214
0.75324233
0.73603365
0.7228873
0.71425861
0.71092323
0.72325495
0.74035698
0.75995095
0.77852317
0.79340638
0.80378205
0.81028928
0.8140824
0.81603222
0.81660365
0.81596492
0.81417504
0.81120117
0.8068301
0.80042199
0.79033242
0.77378932
1.1565505
1.1527324
1.1476496
1.1416058
1.1348339
1.1275298
1.1198887
1.1121218
1.104473
1.0972472
1.0908433
1.085755
1.0825662
1.0820888
1.0834951
1.084449
1.0823913
1.0767506
1.0686609
1.0595332
1.0501142
1.0404241
1.0302785
1.0194084
1.0075308
0.99439814
0.97993498
0.96433254
0.94741841
0.92575323
1.1585741
1.1584472
1.1582177
1.1578696
1.1573919
1.1567782
1.1560278
1.155147
1.1541507
1.1530685
1.1519509
1.1507837
1.1495999
1.1482367
1.1444317
1.134981
1.1168968
1.0926204
1.0670496
1.0442046
1.0251619
1.0070622
0.98962283
0.97262434
0.95655975
0.94059259
0.92400875
0.90698477
0.88952659
0.87151573
1.158618
1.1586138
1.1586041
1.1585857
1.1585549
1.1585077
1.1584395
1.1583459
1.1582222
1.1580634
1.1578617
1.1575796
1.1569767
1.154111
1.1423132
1.1157927
1.0803007
1.0390074
0.99928252
0.96469627
0.93683351
0.91645
0.90069079
0.8879245
0.87716351
0.86854969
0.86157044
0.85552757
0.84965686
0.84274955
1.0695637
0.99858933
0.94202264
0.89518608
0.85508421
0.8199607
0.78884802
0.76140743
0.7376052
0.7170012
0.69936787
0.68467593
0.67328955
0.6733988
0.67679471
0.68350481
0.69273183
0.70316294
0.71348855
0.72275069
0.73042307
0.7363082
0.7404057
0.74280573
0.74362497
0.74294283
0.74072118
0.73668726
0.730116
0.71988827
1.1565476
1.1526568
1.147375
1.1409689
1.1336355
1.1255332
1.116804
1.1067769
1.093216
1.0754613
1.0511751
1.0199722
0.98258275
0.94527618
0.91165632
0.88399827
0.86267093
0.8472102
0.83697363
0.8312165
0.82887053
0.82861593
0.82919989
0.82960093
0.82902571
0.82677251
0.82204411
0.81369581
0.79970512
0.77835205
1.158574
1.1584435
1.1582015
1.1578245
1.1572926
1.1565891
1.1557011
1.1545984
1.1531955
1.1513947
1.1489059
1.1407314
1.1200322
1.0864167
1.0449666
1.0013154
0.96113314
0.92682852
0.8992284
0.878286
0.86332856
0.85321241
0.84661179
0.84226654
0.83910285
0.83621885
0.83279456
0.8278983
0.81998522
0.80684081
1.158618
1.1586137
1.1586033
1.1585829
1.1585476
1.1584914
1.1584072
1.1582863
1.1581155
1.1578753
1.1575175
1.1567282
1.1542254
1.1401495
1.1057761
1.0616884
1.0191573
0.98084171
0.94776322
0.9204167
0.89879595
0.88236112
0.87018782
0.86123623
0.8545428
0.84929063
0.84476761
0.84024738
0.83468546
0.82647569
)
;

boundaryField
{
    maxY
    {
        type            calculated;
        value           nonuniform List<scalar> 
300
(
1.1586175
1.1586175
1.1586175
1.1586175
1.1586175
1.1586175
1.1586175
1.1586175
1.1586175
1.1586175
1.1586132
1.1586133
1.1586133
1.1586133
1.1586133
1.1586133
1.1586133
1.1586133
1.1586133
1.1586132
1.1586028
1.1586036
1.1586035
1.1586035
1.1586034
1.1586034
1.1586035
1.1586035
1.1586036
1.1586028
1.1585824
1.1585852
1.158585
1.1585848
1.1585847
1.1585847
1.1585848
1.158585
1.1585852
1.1585823
1.1585471
1.1585544
1.1585542
1.1585536
1.1585533
1.1585533
1.1585536
1.1585542
1.1585544
1.158547
1.1584909
1.1585072
1.1585071
1.1585057
1.158505
1.158505
1.1585057
1.158507
1.1585071
1.1584908
1.1584067
1.158439
1.1584393
1.1584365
1.1584349
1.1584349
1.1584365
1.1584393
1.158439
1.1584067
1.1582856
1.1583452
1.1583466
1.158341
1.1583379
1.1583381
1.1583411
1.1583467
1.1583454
1.1582857
1.1581147
1.158221
1.1582245
1.1582141
1.1582081
1.1582086
1.1582145
1.158225
1.1582217
1.158115
1.1578742
1.1580614
1.1580691
1.1580499
1.1580383
1.1580401
1.1580512
1.1580704
1.1580629
1.1578747
1.1575182
1.1578588
1.157875
1.1578364
1.1578041
1.1578164
1.1578423
1.1578785
1.1578612
1.157517
1.1567648
1.1575774
1.1575997
1.1574273
1.1571185
1.1573238
1.1575085
1.1576264
1.1575791
1.1567276
1.1544635
1.1569583
1.1565391
1.1542727
1.1488388
1.1525798
1.1556899
1.1569563
1.1569762
1.1542249
1.1424671
1.1537369
1.1463415
1.1181156
1.0451674
1.0869182
1.1351312
1.151438
1.1541104
1.140149
1.1098223
1.1401167
1.1086534
1.0385867
0.98335693
0.9887544
1.0659774
1.1243103
1.1423127
1.1057756
1.0658856
1.1131661
1.0638207
0.99787834
0.97146145
0.97144817
0.9993862
1.0757303
1.1157922
1.061688
1.0226068
1.0785443
1.0387563
0.99462815
0.96541203
0.9641584
0.99278964
1.045437
1.0803003
1.0191569
0.98303861
1.0368378
1.0360059
0.99491282
0.95934357
0.95834406
0.99413217
1.0384184
1.039007
0.98084133
0.94865117
0.99593766
1.0107463
0.99042973
0.95143163
0.95183832
0.99646451
1.0175104
0.99928213
0.94776287
0.92027708
0.96072867
0.97975644
0.97306397
0.9414702
0.94585952
0.98310592
0.98818935
0.96469591
0.92041637
0.89801492
0.93358378
0.95288682
0.95351075
0.9309128
0.93674726
0.96308737
0.96046711
0.93683316
0.89879563
0.8812458
0.91359033
0.93179084
0.93556322
0.91965467
0.92538222
0.94265401
0.9380594
0.91644967
0.88236081
0.86892474
0.89798409
0.91490789
0.91949826
0.90887531
0.9137972
0.925611
0.92015396
0.90069047
0.87018753
0.85991965
0.88521331
0.90088194
0.90473972
0.89941944
0.90293674
0.91096466
0.90546074
0.88792419
0.86123594
0.85321053
0.87455576
0.8889391
0.88975625
0.89206248
0.89311084
0.89664207
0.89296481
0.8771632
0.85454252
0.84794654
0.86630727
0.87889058
0.8728259
0.88383508
0.88442475
0.87923321
0.88229275
0.8685494
0.84929035
0.84339259
0.85961729
0.87034398
0.85510473
0.86729522
0.87832687
0.8640089
0.87320591
0.86157015
0.84476733
0.83880518
0.85376961
0.86213113
0.8362806
0.84281858
0.85525457
0.84849293
0.86503224
0.85552729
0.84024711
0.83310437
0.84793393
0.84415047
0.81654531
0.81050064
0.82498267
0.82578661
0.85011838
0.84965658
0.83468519
0.82464615
0.83956504
0.82301497
0.79623595
0.77259198
0.78853123
0.80502539
0.82329787
0.84274927
0.82647542
)
;
    }
    minX
    {
        type            calculated;
        value           nonuniform List<scalar> 
40
(
1.1586222
1.1586212
1.1586201
1.1586191
1.1586222
1.1586212
1.1586201
1.1586191
1.1586222
1.1586212
1.1586201
1.1586191
1.1586222
1.1586212
1.1586201
1.1586191
1.1586222
1.1586212
1.1586201
1.1586191
1.1586222
1.1586212
1.1586201
1.1586191
1.1586222
1.1586212
1.1586201
1.1586191
1.1586222
1.1586212
1.1586201
1.1586191
1.1586222
1.1586212
1.1586201
1.1586191
1.1586222
1.1586212
1.1586201
1.1586191
)
;
    }
    maxX
    {
        type            calculated;
        value           nonuniform List<scalar> 
40
(
0.71736721
0.77537641
0.80444589
0.82479363
0.77084395
0.91842396
0.86609539
0.83880924
0.79586749
0.87971577
0.84022443
0.82045262
0.70327092
0.82389127
0.81209349
0.79566923
0.6461216
0.70470001
0.75403804
0.77353653
0.64899488
0.72640641
0.77825233
0.78796554
0.70759976
0.83548219
0.82731439
0.80518315
0.8018523
0.88937393
0.8505485
0.82295888
0.77394103
0.92576567
0.87144337
0.84267849
0.7199473
0.77841917
0.80685272
0.82644127
)
;
    }
    minZ
    {
        type            calculated;
        value           nonuniform List<scalar> 
120
(
1.0696624
1.15655
1.158574
1.158618
0.99875536
1.1526641
1.1584437
1.1586137
0.94223421
1.1473889
1.1582021
1.1586033
0.89543146
1.140991
1.1578255
1.1585829
0.85536089
1.1336671
1.1572942
1.1585476
0.82026966
1.1255749
1.1565915
1.1584914
0.78918191
1.1168569
1.1557042
1.1584072
0.7617574
1.1069184
1.1546049
1.1582862
0.73797053
1.0935106
1.1532096
1.1581152
0.71738154
1.0760587
1.1514241
1.1578747
0.69976536
1.0523082
1.1489835
1.1575187
0.68509923
1.0216309
1.1415495
1.1567653
0.67376288
0.98480758
1.1224581
1.154464
0.67393658
0.94782114
1.0900796
1.1424676
0.67742939
0.91406649
1.0492396
1.1098228
0.68420926
0.88583284
1.0056667
1.065886
0.69342664
0.86368358
0.96478528
1.0226072
0.703758
0.8474019
0.92936361
0.98303899
0.71391887
0.83652807
0.90061649
0.94865152
0.72299477
0.83036696
0.87874082
0.92027742
0.73049012
0.8277634
0.86312148
0.89801524
0.73622239
0.82731763
0.85256996
0.8812461
0.74018313
0.82771792
0.84568472
0.86892504
0.74243399
0.82790127
0.84113423
0.85991994
0.74305225
0.82704642
0.83778861
0.85321082
0.74208342
0.82443727
0.83470896
0.84794682
0.73948267
0.81929355
0.8310601
0.84339287
0.7350082
0.81053512
0.82590786
0.83880546
0.72796645
0.79620537
0.81768241
0.83310464
0.71720766
0.77503187
0.80422265
0.82464641
)
;
    }
    maxZ
    {
        type            calculated;
        value           nonuniform List<scalar> 
120
(
1.0695637
1.1565476
1.158574
1.158618
0.99858933
1.1526568
1.1584435
1.1586137
0.94202264
1.147375
1.1582015
1.1586033
0.89518608
1.1409689
1.1578245
1.1585829
0.85508421
1.1336355
1.1572926
1.1585476
0.8199607
1.1255332
1.1565891
1.1584914
0.78884802
1.116804
1.1557011
1.1584072
0.76140743
1.1067769
1.1545984
1.1582863
0.7376052
1.093216
1.1531955
1.1581155
0.7170012
1.0754613
1.1513947
1.1578753
0.69936787
1.0511751
1.1489059
1.1575175
0.68467593
1.0199722
1.1407314
1.1567282
0.67328955
0.98258275
1.1200322
1.1542254
0.6733988
0.94527618
1.0864167
1.1401495
0.67679471
0.91165632
1.0449666
1.1057761
0.68350481
0.88399827
1.0013154
1.0616884
0.69273183
0.86267093
0.96113314
1.0191573
0.70316294
0.8472102
0.92682852
0.98084171
0.71348855
0.83697363
0.8992284
0.94776322
0.72275069
0.8312165
0.878286
0.9204167
0.73042307
0.82887053
0.86332856
0.89879595
0.7363082
0.82861593
0.85321241
0.88236112
0.7404057
0.82919989
0.84661179
0.87018782
0.74280573
0.82960093
0.84226654
0.86123623
0.74362497
0.82902571
0.83910285
0.8545428
0.74294283
0.82677251
0.83621885
0.84929063
0.74072118
0.82204411
0.83279456
0.84476761
0.73668726
0.81369581
0.8278983
0.84024738
0.730116
0.79970512
0.81998522
0.83468546
0.71988827
0.77835205
0.80684081
0.82647569
)
;
    }
    topAir_to_rightSolid
    {
        type            calculated;
        value           nonuniform List<scalar> 
130
(
0.46157233
0.45676034
0.45182367
0.44701683
0.44251269
0.43842179
0.43481316
0.43171888
0.42915119
0.42710939
0.42558606
0.42457363
0.42406652
0.46519396
0.45948454
0.45378497
0.44838613
0.44344663
0.43905305
0.43524105
0.43201464
0.42935985
0.42725842
0.42569886
0.42466506
0.42414843
0.47260842
0.46477934
0.4574154
0.45081504
0.44504619
0.44009973
0.43592566
0.43246695
0.42966751
0.42747751
0.42585964
0.42478854
0.42425494
0.48407098
0.47208891
0.46198106
0.45364471
0.44679768
0.44118237
0.43659866
0.4328862
0.42993008
0.42764679
0.42597386
0.42487043
0.42432024
0.49832203
0.47921391
0.46577716
0.4557636
0.44802077
0.44190627
0.43702955
0.43314126
0.4300811
0.42773516
0.42602863
0.42491232
0.42435631
0.49819181
0.47909379
0.46567569
0.45568341
0.4479622
0.44186488
0.43700038
0.43312275
0.43007019
0.42773045
0.42602764
0.42491334
0.42435952
0.48368928
0.47174819
0.46168995
0.4534053
0.44661285
0.44104818
0.43650072
0.43281833
0.42988674
0.42762073
0.42596006
0.42486914
0.42432635
0.47208102
0.46429471
0.45699168
0.45045058
0.44474942
0.4398691
0.43575448
0.43234527
0.42958503
0.42742606
0.42583297
0.42478236
0.424259
0.46461996
0.45894578
0.45330255
0.44796311
0.44309558
0.43877548
0.43503244
0.43186561
0.42926093
0.42720198
0.4256729
0.42466032
0.4241544
0.46100794
0.4562287
0.45134383
0.44658914
0.44214531
0.43812739
0.4345917
0.43156184
0.42904768
0.42704834
0.42555764
0.4245676
0.42407256
)
;
    }
    topAir_to_heater
    {
        type            calculated;
        value           nonuniform List<scalar> 
40
(
0.4734961
0.47215818
0.46957048
0.46593779
0.4796641
0.47805072
0.4749112
0.47048665
0.49308655
0.49089457
0.48652217
0.48021298
0.51654812
0.51354509
0.50713581
0.49710899
0.55521468
0.55201428
0.54381588
0.52799741
0.55511082
0.55189777
0.54369191
0.52786891
0.51622646
0.51318146
0.50675069
0.49671748
0.49255701
0.49034955
0.48597268
0.47967856
0.47905836
0.47745576
0.47433075
0.4699168
0.47287146
0.47156749
0.46900144
0.46536751
)
;
    }
    topAir_to_leftSolid
    {
        type            calculated;
        value           nonuniform List<scalar> 
130
(
0.38050772
0.38051997
0.38055131
0.38060415
0.3806809
0.38078429
0.38089624
0.38101458
0.38114021
0.38126663
0.38138573
0.38149213
0.38155459
0.38048758
0.38050072
0.38053349
0.38058834
0.38066698
0.38076992
0.38088201
0.38100565
0.38114001
0.38126959
0.38138421
0.38148096
0.38155698
0.38045224
0.38046653
0.3805022
0.38056152
0.38064653
0.38075429
0.38086888
0.38099336
0.38112481
0.38125315
0.3813664
0.38145645
0.38152051
0.3804036
0.380419
0.38045767
0.3805229
0.38061847
0.38072525
0.38084023
0.38096559
0.38110128
0.38123598
0.38136018
0.38145754
0.38151594
0.38034921
0.38036615
0.38040763
0.38047518
0.38056956
0.38067455
0.38079076
0.38092421
0.38107378
0.38123865
0.38141289
0.38154248
0.38161365
0.38029831
0.38031698
0.3803616
0.38043181
0.38052504
0.38062922
0.38074891
0.38089252
0.38105288
0.38122887
0.38139265
0.38152377
0.38160922
0.38025554
0.38027614
0.38032408
0.38040163
0.38049353
0.38059815
0.38071544
0.3808514
0.38100543
0.38114901
0.38128254
0.38138862
0.38145683
0.38022562
0.3802466
0.38029785
0.38038318
0.38047622
0.38057694
0.38068157
0.38078957
0.38089749
0.38100411
0.38110161
0.38118197
0.3812369
0.38020677
0.38022739
0.38027794
0.38036124
0.38044649
0.38053083
0.3806137
0.38069497
0.38077625
0.38085603
0.38093331
0.38099777
0.38103538
0.38019807
0.3802186
0.38026987
0.38034132
0.38041318
0.38048393
0.38055303
0.38061929
0.38068438
0.38074625
0.38080409
0.38085359
0.38088533
)
;
    }
}


// ************************************************************************* //
