/*--------------------------------*- C++ -*----------------------------------*\
| =========                 |                                                 |
| \\      /  F ield         | OpenFOAM: The Open Source CFD Toolbox           |
|  \\    /   O peration     | Version:  v2012                                 |
|   \\  /    A nd           | Website:  www.openfoam.com                      |
|    \\/     M anipulation  |                                                 |
\*---------------------------------------------------------------------------*/
FoamFile
{
    version     2.0;
    format      ascii;
    class       volScalarField;
    location    "540/topAir";
    object      T;
}
// * * * * * * * * * * * * * * * * * * * * * * * * * * * * * * * * * * * * * //

dimensions      [0 0 0 1 0 0 0];


internalField   nonuniform List<scalar> 
1200
(
324.94986
348.01981
368.89622
388.17782
406.36254
423.74677
440.43915
456.29567
471.00335
484.52123
496.71876
507.35216
515.88856
515.75558
513.09634
508.01203
501.25927
493.90063
486.87117
480.75938
475.82644
472.12162
469.59528
468.17159
467.78204
468.39275
470.04007
472.90151
477.47596
484.63855
300.53724
301.55043
302.93682
304.6355
306.60356
308.80785
311.21832
314.01262
317.8628
323.01801
330.30849
340.22692
352.94847
366.72142
380.26371
392.38362
402.44634
410.17879
415.5106
418.59358
419.91017
420.13643
419.93324
419.84024
420.27419
421.60426
424.25119
428.83553
436.55352
448.47995
300.01194
300.04568
300.10829
300.20589
300.34371
300.5262
300.75692
301.04328
301.40752
301.8749
302.51612
304.48617
309.66503
318.86298
331.27421
345.62744
360.27293
374.00433
385.94232
395.5501
402.70811
407.69208
411.01135
413.2349
414.88511
416.41582
418.24415
420.85327
425.08683
432.20123
300.00029
300.0014
300.00409
300.00936
300.0185
300.03305
300.05486
300.08623
300.13053
300.19287
300.28519
300.48076
301.07975
304.24121
313.19029
326.10028
339.90152
353.58287
366.39984
377.69673
387.06
394.42533
400.01816
404.20716
407.3856
409.91462
412.12798
414.3819
417.21746
421.49677
324.94554
347.76839
368.15942
386.71764
403.90456
419.95699
434.93353
448.7653
461.23623
471.99699
480.54436
486.26072
488.32684
479.6452
468.20159
455.98143
445.2227
437.16626
431.85801
428.64668
426.8058
425.85219
425.57568
425.94619
426.99691
428.79456
431.45347
435.26656
441.15745
451.09479
300.53654
301.53085
302.86472
304.46623
306.28081
308.26237
310.36309
312.52779
314.68816
316.75357
318.5984
320.05921
320.93816
320.99196
320.5475
320.36497
321.15399
323.02502
325.62203
328.53733
331.60941
334.85655
338.36857
342.2578
346.62355
351.53935
357.02102
363.02041
369.72068
378.5577
300.0119
300.04474
300.10411
300.19422
300.31799
300.47717
300.6721
300.90126
301.16092
301.44326
301.73452
302.03385
302.33654
302.70873
303.87571
306.72976
311.96762
319.07853
326.79858
333.81911
340.19222
346.4487
352.65659
358.85106
364.95192
371.36108
378.25802
385.47017
393.03574
401.17459
300.00028
300.00136
300.00387
300.00863
300.0166
300.02884
300.0465
300.0708
300.10296
300.14432
300.19684
300.26982
300.43049
301.26934
304.86842
312.24949
322.27287
335.23621
349.00336
361.79372
372.31325
380.46114
387.07326
392.65749
397.44252
401.22675
404.34931
407.1188
409.9207
414.00684
324.94573
347.81291
368.26608
386.90249
404.19128
420.38276
435.58549
449.82261
463.01153
474.94191
485.21414
493.14479
497.51379
489.87517
479.4434
468.38469
458.02045
448.63522
440.2548
432.89181
426.55437
421.36624
417.5721
415.39391
414.89191
415.9273
418.27635
421.85814
427.57895
437.21292
300.53664
301.53434
302.8745
304.4843
306.30984
308.30755
310.43631
312.65137
314.89448
317.08228
319.08229
320.68048
321.57553
321.56124
321.35179
321.63164
322.45312
323.67905
325.33198
327.4467
330.10751
333.50285
337.83892
343.21231
349.58038
356.86374
365.04327
373.96087
383.56417
394.73442
300.0119
300.04489
300.10459
300.19517
300.31945
300.47913
300.67467
300.90493
301.16628
301.45051
301.7403
302.00338
302.22398
302.90233
305.56482
309.8765
314.11137
317.75212
321.57407
325.79696
330.7975
337.15467
345.13211
354.48798
364.59654
374.53165
383.65101
391.90178
401.29404
413.00988
300.00028
300.00136
300.00389
300.00867
300.01666
300.02887
300.04641
300.07044
300.10206
300.14234
300.19264
300.26403
300.53939
303.21293
313.52051
326.73322
334.61707
335.50539
343.89004
354.76735
364.77113
373.02965
379.91325
385.82817
391.01176
395.48228
399.36585
403.17031
411.75798
422.3322
324.95022
347.83681
368.33185
387.03933
404.44709
420.84092
436.37935
451.14544
465.1648
478.36148
490.46818
500.83637
508.2183
504.30546
501.2362
500.57893
501.7147
503.31309
504.35335
504.07635
502.08122
498.47992
493.72712
488.33715
482.86568
478.23731
476.02924
478.14142
484.17998
494.50241
300.53678
301.53596
302.88057
304.49933
306.34089
308.36632
310.54217
312.8346
315.20054
317.56919
319.80291
321.63874
322.73584
323.39484
324.59836
326.25308
328.12181
330.05845
332.05947
334.24444
336.85965
340.18022
344.35851
349.3793
355.21495
361.9258
369.36234
377.76443
393.52818
422.88043
300.01191
300.04496
300.10492
300.19612
300.32165
300.48364
300.68323
300.92032
301.19245
301.49205
301.79913
302.07265
302.39219
304.60227
309.29639
312.91136
315.36213
317.47054
320.20743
324.2249
329.99812
337.86265
347.68555
358.92315
371.14303
383.52663
394.3299
403.62736
413.33595
428.29563
300.00028
300.00137
300.00391
300.00873
300.01681
300.02922
300.04715
300.07188
300.10477
300.14731
300.20265
300.30878
301.1295
310.8673
334.6717
348.32462
349.46285
349.36286
350.94422
357.20735
364.53245
371.52553
378.01663
384.18302
390.65266
398.23023
406.48316
415.63284
425.6784
436.53609
324.95464
347.8502
368.35943
387.08616
404.5198
420.94797
436.52974
451.34993
465.41381
478.59639
490.4965
500.22487
506.63634
502.11202
500.46101
501.88693
504.14795
507.51708
511.49157
515.67243
519.67837
523.14138
525.7497
527.30154
527.77471
527.44423
527.01562
527.65012
530.80839
538.24042
300.53688
301.53678
302.88335
304.50574
306.35303
308.38691
310.57445
312.88175
315.26244
317.63157
319.81106
321.46578
322.35874
323.68056
325.51326
327.64668
331.64966
337.42177
344.6977
353.36145
363.36656
374.79686
387.66777
401.65894
416.19416
430.71531
445.00239
459.34991
474.77504
493.74861
300.01191
300.045
300.10509
300.1966
300.32272
300.48572
300.68694
300.92637
301.20139
301.50273
301.80417
302.06164
302.66594
307.43703
311.18073
313.52602
315.01524
316.94463
319.6389
323.36854
329.29637
337.91378
348.87906
360.94021
373.93735
387.86534
402.82132
419.29461
438.21734
461.56294
300.00028
300.00137
300.00392
300.00876
300.01689
300.02941
300.04756
300.07269
300.10632
300.15031
300.21103
300.38892
302.55383
332.56452
353.4684
357.79659
360.0386
362.31608
365.32904
369.19449
373.3815
377.95233
382.4349
386.45556
389.64272
393.26981
400.76973
412.40867
428.85311
449.89562
324.9596
347.85972
368.37307
387.10382
404.54216
420.97656
436.56804
451.40328
465.49968
478.76216
490.86493
501.02783
507.91517
502.59579
499.48415
499.6056
502.00354
505.45609
509.45781
513.60584
517.52399
520.86376
523.33751
524.76113
525.12257
524.71149
524.25205
524.89489
528.10942
535.52262
300.53699
301.5371
302.88396
304.50672
306.35451
308.38916
310.57821
312.88884
315.27805
317.67021
319.90963
321.69222
322.676
323.61883
325.21312
327.17334
329.67857
333.60004
338.37445
343.35495
348.42852
354.32631
362.23659
372.9013
385.8771
400.65797
416.7757
434.23587
453.92844
478.19117
300.01191
300.04501
300.10511
300.19664
300.32279
300.48583
300.6871
300.92672
301.20244
301.50625
301.81555
302.08461
302.48983
306.2741
310.96501
314.11863
315.84264
317.3752
319.2877
322.75531
328.7008
337.70027
348.80981
359.65112
369.33654
378.23474
389.03766
403.17784
421.75078
446.37388
300.00028
300.00137
300.00392
300.00877
300.0169
300.02941
300.04755
300.07264
300.10618
300.14985
300.20785
300.33561
301.57181
319.79001
351.53886
357.80148
360.50673
362.69396
365.17295
367.48122
371.05592
375.61304
380.37502
384.95016
389.18534
393.00761
395.73611
406.41195
421.32484
440.80146
324.96459
347.86434
368.37121
387.08962
404.50968
420.91771
436.47299
451.2637
465.32287
478.59824
490.87829
501.62169
509.61187
505.69468
501.57229
499.49876
499.43893
500.16064
500.45289
499.52429
497.05152
493.2028
488.43873
483.21135
477.94643
473.44252
471.17425
473.1302
480.69034
491.25148
300.53709
301.53686
302.8823
304.50212
306.345
308.37217
310.55056
312.84752
315.22292
317.61367
319.89995
321.84912
323.10332
323.59028
324.41383
325.84787
327.57535
329.37082
331.19065
333.13701
335.44
338.40375
342.27095
347.11297
352.91647
359.76833
367.38248
375.71035
388.19298
415.82506
300.01191
300.04499
300.10498
300.19624
300.32185
300.48394
300.68369
300.92106
301.19394
301.49584
301.80973
302.0981
302.36645
303.66959
308.13798
312.64754
315.82002
318.17626
320.85386
324.62172
330.07575
337.61762
347.01819
357.39861
368.31827
379.74294
389.44076
397.39994
406.28124
419.89793
300.00028
300.00137
300.00391
300.00874
300.01682
300.02922
300.04715
300.07185
300.10466
300.14699
300.20112
300.28771
300.76023
306.20741
326.07217
347.79907
350.11001
349.6372
348.81884
353.55865
360.90766
368.73085
375.5202
381.55776
387.65261
395.32817
402.29408
409.65064
420.91465
431.76985
324.96772
347.85519
368.32634
386.97833
404.28264
420.4912
435.71402
449.97508
463.19641
475.18133
485.56486
493.73754
498.56859
491.36221
480.75953
468.92236
457.62092
447.49456
438.68128
431.18359
424.95541
419.99793
416.39378
414.23443
413.53078
414.18375
416.06162
419.17082
424.30246
433.56483
300.53711
301.53573
302.87716
304.48852
306.31592
308.31583
310.44736
312.66645
314.91656
317.11946
319.15376
320.82613
321.8486
321.88656
321.43257
321.40452
322.0302
323.15954
324.75743
326.82712
329.39998
332.59729
336.58622
341.47617
347.29101
354.06206
361.85548
370.53142
379.87131
390.76908
300.01191
300.04493
300.10469
300.19536
300.31975
300.47957
300.67526
300.90575
301.1676
301.45322
301.74715
302.02045
302.24139
302.64568
304.56492
308.7266
313.33077
317.27937
321.18727
325.42594
330.26309
336.17117
343.42407
351.84516
361.02028
370.46497
379.77967
388.4862
397.60019
408.51942
300.00028
300.00136
300.00389
300.00868
300.01667
300.02888
300.04642
300.0704
300.10193
300.14201
300.19174
300.25711
300.43103
301.87084
309.15448
323.11591
332.47875
334.72595
341.60398
351.73987
361.89225
370.53689
377.74724
383.87708
389.24898
393.95727
398.05692
401.81816
408.86738
422.18702
324.97274
347.82063
368.23402
386.81214
404.01963
420.0955
435.09705
448.95525
461.45389
472.2428
480.83095
486.63968
488.9228
480.58651
469.48509
457.38026
446.46912
438.09397
432.4388
428.96598
426.96726
425.94706
425.64899
425.98218
426.91865
428.48373
430.80506
434.25405
439.79783
449.2004
300.53713
301.53256
302.868
304.47144
306.28831
308.27243
310.37581
312.54343
314.70788
316.78033
318.64004
320.13332
321.07627
321.21795
320.80102
320.51882
321.12815
322.81039
325.25406
328.05605
330.99855
334.08134
337.37119
340.9686
344.98822
349.54435
354.70338
360.4423
366.87722
375.46313
300.01191
300.04479
300.10423
300.19445
300.31836
300.47769
300.67273
300.90199
301.16174
301.4444
301.73685
302.04289
302.35392
302.71288
303.71932
306.24831
311.20692
318.12146
325.74492
332.87153
339.05472
345.14848
351.23077
357.36921
363.37091
369.53937
376.17175
383.23244
390.7539
398.82927
300.00028
300.00136
300.00387
300.00864
300.01661
300.02885
300.0465
300.07074
300.10279
300.14395
300.19623
300.26939
300.42585
301.17184
304.28233
311.5146
321.74904
334.53632
347.83529
360.30587
371.02189
379.27409
385.91018
391.45868
396.26108
400.19099
403.43279
406.28237
409.08959
412.44255
324.97986
348.07767
368.97907
388.28422
406.49403
423.90643
440.62557
456.5054
471.23664
484.77825
497.00107
507.66583
516.25123
516.16747
513.57751
508.53561
501.76203
494.3186
487.16481
480.92173
475.87012
472.0666
469.45412
467.93729
467.42177
467.85093
469.25415
471.82367
476.07021
482.83393
300.53788
301.55233
302.94049
304.6414
306.6121
308.81928
311.23307
314.05276
317.94845
323.19743
330.66456
340.78019
353.74764
367.70875
381.26902
393.19794
402.91875
410.2716
415.2894
418.16576
419.3493
419.47815
419.18273
418.98009
419.27079
420.41342
422.83164
427.16977
434.64302
446.56689
300.01195
300.04574
300.10843
300.20616
300.34414
300.52681
300.75773
301.04497
301.41121
301.88262
302.53655
304.70455
310.33576
319.93806
332.62884
347.12942
361.6419
375.02732
386.53808
395.75493
402.61152
407.38509
410.56128
412.67936
414.23529
415.66393
417.37306
419.84144
423.89303
430.79876
300.00029
300.0014
300.00409
300.00937
300.01852
300.03307
300.05486
300.0862
300.13045
300.19272
300.28551
300.49041
301.14197
304.85978
314.33645
327.3896
341.0521
354.37497
366.74325
377.63958
386.7238
393.92691
399.43767
403.58938
406.7506
409.26602
411.4573
413.67079
416.42728
420.56385
)
;

boundaryField
{
    maxY
    {
        type            zeroGradient;
    }
    minX
    {
        type            fixedValue;
        value           uniform 300;
    }
    maxX
    {
        type            inletOutlet;
        inletValue      uniform 300;
        value           nonuniform List<scalar> 
40
(
484.53079
448.28068
432.0813
421.42152
450.91679
378.45939
401.32527
414.37999
436.73912
395.11193
413.68232
423.65126
494.24268
421.88362
428.01232
436.84713
537.95838
493.24012
460.96623
449.34639
535.57669
478.50114
446.62385
441.11806
491.21908
416.03068
420.13775
431.6854
433.47942
390.8212
408.66098
422.36106
449.11235
375.45804
398.86236
412.47731
482.79436
446.5284
430.7924
420.58134
)
;
    }
    minZ
    {
        type            zeroGradient;
    }
    maxZ
    {
        type            zeroGradient;
    }
    topAir_to_rightSolid
    {
        type            compressible::turbulentTemperatureCoupledBaffleMixed;
        refValue        nonuniform List<scalar> 
130
(
753.13238
761.07059
769.38979
777.6664
785.58467
792.91715
799.49949
805.23098
810.04951
813.92215
816.83509
818.78179
819.7588
747.28617
756.57517
766.08058
775.30689
783.94477
791.79111
798.72698
804.69278
809.66857
813.65066
816.63079
818.61723
819.61126
735.55658
747.95194
759.99788
771.12903
781.12813
789.91029
797.47579
803.85493
809.09286
813.23783
816.32674
818.3836
819.41
718.11795
736.34823
752.46269
766.29386
778.04071
787.94707
796.22288
803.05444
808.57867
812.89737
816.08982
818.20763
819.2654
697.57516
725.3954
746.325
762.72482
775.90823
786.64566
795.42505
802.56692
808.27874
812.71287
815.96881
818.11194
819.18173
697.7582
725.57798
746.48834
762.85975
776.01041
786.72012
795.47894
802.60202
808.30005
812.72261
815.97147
818.11072
819.1763
718.68576
736.8814
752.93866
766.70012
778.36436
788.18846
796.4031
803.18185
808.6616
812.9483
816.11765
818.21112
819.25457
736.37885
748.7333
760.70322
771.75358
781.64987
790.32488
797.78949
804.08165
809.24878
813.33643
816.3787
818.39649
819.40322
748.20925
757.46329
766.8959
776.03909
784.56593
792.29204
799.11002
804.97052
809.85526
813.75836
816.68086
818.62674
819.6003
754.05446
761.95754
770.20787
778.41128
786.23755
793.4501
799.90704
805.52415
810.24514
814.03876
816.88997
818.79385
819.74767
)
;
        refGradient     uniform 0;
        valueFraction   uniform 0.99967867;
        value           nonuniform List<scalar> 
130
(
753.04908
760.98248
769.29704
777.56941
785.48394
792.81325
799.39302
805.12254
809.93971
813.81163
816.72456
818.67209
819.65108
747.18652
756.47082
765.97215
775.1949
783.8297
791.67343
798.60718
804.57139
809.54615
813.52781
816.50818
818.49585
819.49279
735.46438
747.85306
759.89276
771.0183
781.01252
789.79063
797.35301
803.72993
808.9665
813.11088
816.19992
818.25792
819.28704
718.04891
736.27366
752.38285
766.20892
777.95082
787.85246
796.12386
802.95145
808.47238
812.78895
815.98101
818.10018
819.16096
697.51409
725.32666
746.25089
762.64672
775.82699
786.56181
795.33887
802.47857
808.18844
812.62099
815.87608
818.01953
819.09137
697.69641
725.50854
746.41351
762.78093
775.92843
786.63551
795.39198
802.51288
808.20896
812.62994
815.87798
818.01757
819.08517
718.61556
736.80544
752.85726
766.6135
778.27276
788.09217
796.30249
803.07736
808.5539
812.83849
816.00745
818.10267
819.14916
736.28603
748.63368
760.59734
771.64215
781.53367
790.20472
797.66624
803.95614
809.12182
813.20875
816.25105
818.26983
819.27921
748.10961
757.35886
766.78732
775.92693
784.4507
792.17423
798.99013
804.84904
809.7327
813.63529
816.55796
818.50499
819.48125
753.97101
761.86925
770.11492
778.31406
786.1366
793.34599
799.80037
805.41551
810.13512
813.92797
816.77908
818.68371
819.6394
)
;
        Tnbr            T;
        thicknessLayers List<scalar> 0();
        kappaLayers     List<scalar> 0();
        kappaMethod     fluidThermo;
        kappa           none;
        alphaAni        none;
        alpha           none;
        field           T;
    }
    topAir_to_heater
    {
        type            compressible::turbulentTemperatureCoupledBaffleMixed;
        refValue        nonuniform List<scalar> 
40
(
734.15573
736.23735
740.29712
746.07229
724.72475
727.17483
731.98692
738.8755
704.98932
708.14136
714.51039
723.90315
672.95698
676.89412
685.45107
699.27967
626.07996
629.71121
639.20649
658.36082
626.19696
629.8445
639.35301
658.52181
673.37594
677.37373
685.97245
699.83166
705.74692
708.92818
715.31827
724.70995
725.641
728.08073
732.88239
739.77126
735.12559
737.15962
741.19535
746.9866
)
;
        refGradient     uniform 0;
        valueFraction   uniform 0.99967867;
        value           nonuniform List<scalar> 
40
(
734.08555
736.16565
740.22248
745.99363
724.64599
727.09161
731.89823
738.78114
704.92019
708.06786
714.43129
723.81771
672.90278
676.83766
685.39166
699.21617
626.04012
629.66968
639.16237
658.31127
626.15725
629.80261
639.30811
658.47152
673.32206
677.31725
685.91254
699.76728
705.67804
708.85487
715.23911
724.62414
725.56226
727.99765
732.79387
739.67702
735.05523
737.08778
741.12059
746.9078
)
;
        Tnbr            T;
        thicknessLayers List<scalar> 0();
        kappaLayers     List<scalar> 0();
        kappaMethod     fluidThermo;
        kappa           none;
        alphaAni        none;
        alpha           none;
        field           T;
    }
    topAir_to_leftSolid
    {
        type            compressible::turbulentTemperatureCoupledBaffleMixed;
        refValue        nonuniform List<scalar> 
130
(
913.67077
913.6339
913.55189
913.41881
913.22875
912.97514
912.70136
912.41272
912.10717
911.8003
911.51157
911.25385
911.10189
913.71914
913.68021
913.59491
913.45723
913.26295
913.01081
912.73725
912.43653
912.11081
911.79726
911.52042
911.28735
911.10509
913.80401
913.7623
913.67002
913.52156
913.31191
913.04818
912.76851
912.46564
912.1466
911.83566
911.56151
911.34371
911.18925
913.92089
913.87648
913.77693
913.61423
913.37917
913.11766
912.83692
912.53172
912.20226
911.87562
911.5747
911.33863
911.19672
914.05157
914.00346
913.89716
913.72883
913.49655
913.23926
912.95548
912.63082
912.268
911.86916
911.44867
911.13591
910.96387
914.17394
914.12164
914.00777
913.83301
913.60343
913.34803
913.05583
912.70675
912.31803
911.89251
911.49694
911.18034
910.97404
914.27677
914.21984
914.09794
913.90551
913.67912
913.42263
913.13616
912.80534
912.43171
912.08366
911.76021
911.50309
911.3375
914.34871
914.29086
914.161
913.94989
913.72076
913.47367
913.21764
912.95401
912.69101
912.43169
912.19486
911.99986
911.86688
914.39406
914.33708
914.20892
914.00265
913.79227
913.58451
913.38073
913.18123
912.98221
912.78745
912.59946
912.44316
912.35233
914.41497
914.35812
914.22808
914.05006
913.8715
913.6959
913.52456
913.36038
913.19944
913.04663
912.90396
912.78185
912.70297
)
;
        refGradient     uniform 0;
        valueFraction   uniform 0.99967867;
        value           nonuniform List<scalar> 
130
(
913.4816
913.45216
913.37687
913.25004
913.06588
912.81794
912.54961
912.26616
911.96543
911.66301
911.37829
911.12407
910.9749
913.52995
913.49837
913.41965
913.28798
913.09928
912.85238
912.58372
912.28754
911.96593
911.65595
911.38194
911.15078
910.96924
913.6148
913.58045
913.49476
913.35235
913.14832
912.88987
912.61518
912.31698
912.00229
911.69528
911.42452
911.20933
911.05633
913.73164
913.69459
913.60167
913.44503
913.21563
912.95948
912.68383
912.38347
912.05861
911.73632
911.43938
911.20672
911.06723
913.86228
913.82154
913.72186
913.55961
913.333
913.08108
912.8024
912.48259
912.12441
911.72994
911.31341
911.00388
910.83395
913.98461
913.93968
913.83244
913.66375
913.43985
913.18981
912.90272
912.55852
912.17446
911.75333
911.36178
911.04855
910.84453
914.08741
914.03785
913.92258
913.73623
913.51551
913.26437
912.98299
912.65703
912.28804
911.94437
911.62497
911.37138
911.20842
914.15933
914.10884
913.98561
913.78056
913.55707
913.31526
913.06421
912.80524
912.54658
912.29119
912.05777
911.86547
911.73408
914.20466
914.15504
914.03348
913.83326
913.62847
913.42594
913.22704
913.03206
912.83713
912.64589
912.46072
912.30634
912.21627
914.22557
914.17616
914.05288
913.88112
913.70846
913.53851
913.37261
913.21358
913.05743
912.90902
912.77032
912.65167
912.57558
)
;
        Tnbr            T;
        thicknessLayers List<scalar> 0();
        kappaLayers     List<scalar> 0();
        kappaMethod     fluidThermo;
        kappa           none;
        alphaAni        none;
        alpha           none;
        field           T;
    }
}


// ************************************************************************* //
