/*--------------------------------*- C++ -*----------------------------------*\
  =========                 |
  \\      /  F ield         | OpenFOAM: The Open Source CFD Toolbox
   \\    /   O peration     | Website:  https://openfoam.org
    \\  /    A nd           | Version:  dev
     \\/     M anipulation  |
\*---------------------------------------------------------------------------*/
FoamFile
{
    format      ascii;
    class       volScalarField;
    location    "0/air";
    object      T;
}
// * * * * * * * * * * * * * * * * * * * * * * * * * * * * * * * * * * * * * //

dimensions      [0 0 0 1 0 0 0];

internalField   uniform 298;

boundaryField
{
    inlet
    {
        type            fixedValue;
        value           nonuniform List<scalar> 0();
    }
    outlet
    {
        type            inletOutlet;
        inletValue      nonuniform List<scalar> 0();
        value           nonuniform List<scalar> 0();
    }
    walls
    {
        type            zeroGradient;
    }
    air_to_water
    {
        type            coupledTemperature;
        value           nonuniform List<scalar> 0();
    }
    air_to_solid
    {
        type            coupledTemperature;
        value           uniform 298;
    }
    procBoundary2to0
    {
        type            processor;
        value           uniform 298;
    }
    procBoundary2to1
    {
        type            processor;
        value           uniform 298;
    }
    procBoundary2to3
    {
        type            processor;
        value           uniform 298;
    }
    procBoundary2to6
    {
        type            processor;
        value           uniform 298;
    }
    procBoundary2to7
    {
        type            processor;
        value           uniform 298;
    }
    procBoundary2to9
    {
        type            processor;
        value           uniform 298;
    }
    procBoundary2to10
    {
        type            processor;
        value           uniform 298;
    }
}


// ************************************************************************* //
