/*--------------------------------*- C++ -*----------------------------------*\
| =========                 |                                                 |
| \\      /  F ield         | OpenFOAM: The Open Source CFD Toolbox           |
|  \\    /   O peration     | Version:  v2012                                 |
|   \\  /    A nd           | Website:  www.openfoam.com                      |
|    \\/     M anipulation  |                                                 |
\*---------------------------------------------------------------------------*/
FoamFile
{
    version     2.0;
    format      ascii;
    class       volScalarField;
    location    "590/topAir";
    object      rho;
}
// * * * * * * * * * * * * * * * * * * * * * * * * * * * * * * * * * * * * * //

dimensions      [1 -3 0 0 0 0 0];


internalField   nonuniform List<scalar> 
1200
(
1.068885
0.99745948
0.940583
0.89351917
0.8532447
0.81798922
0.78677753
0.75927183
0.73542664
0.71479944
0.69716399
0.68249869
0.67119604
0.67166311
0.67546649
0.682549
0.6920362
0.70259154
0.71293148
0.72214611
0.72974435
0.73554961
0.73956215
0.74185678
0.74252807
0.74163759
0.73915025
0.73482681
0.72797455
0.71741008
1.1565307
1.1526089
1.1472862
1.1408317
1.1334443
1.1252839
1.1164945
1.1064083
1.0928274
1.0751067
1.0509352
1.0198312
0.98264612
0.94552466
0.91180714
0.88370409
0.86173447
0.84566199
0.83501147
0.82906731
0.82665265
0.82635728
0.82687435
0.82716035
0.82642092
0.82396702
0.81903607
0.81055513
0.79655935
0.77542091
1.1585736
1.1584421
1.1581982
1.1578181
1.157282
1.1565729
1.1556778
1.154567
1.1531559
1.1513477
1.1488676
1.1411321
1.1214842
1.0886221
1.0474546
1.0037524
0.96286917
0.92752805
0.8989152
0.87720061
0.86174195
0.851331
0.84455884
0.8400984
0.83683187
0.83383491
0.83028897
0.82528704
0.81731335
0.8042209
1.158618
1.1586136
1.1586031
1.1585826
1.1585469
1.1584902
1.1584053
1.158283
1.1581103
1.1578672
1.1575064
1.1567337
1.1543625
1.1419193
1.1087098
1.0645349
1.0211556
0.98153885
0.9471582
0.91883883
0.89665698
0.87997195
0.86772682
0.85878708
0.85213657
0.84693289
0.84245237
0.83797148
0.83245534
0.82432181
1.0689045
0.99819486
0.94249096
0.89693243
0.8584927
0.82544577
0.79682862
0.77211045
0.75111356
0.73391832
0.72085245
0.7124368
0.70957312
0.72294623
0.74111813
0.76135545
0.77998333
0.79448086
0.80431201
0.81037237
0.81387598
0.81568229
0.81618157
0.81545508
0.81348792
0.81020583
0.80544433
0.79871986
0.78846525
0.77097194
1.1565335
1.1526848
1.1475624
1.1414726
1.1346508
1.1272947
1.1196018
1.111787
1.1041008
1.0968616
1.0904924
1.0855308
1.082619
1.0825298
1.0840701
1.0846287
1.081849
1.0754735
1.0668204
1.0573095
1.0474884
1.0373172
1.0265473
1.0148842
1.0020913
0.98802296
0.97270752
0.95637989
0.93878018
0.91802658
1.1585738
1.1584458
1.1582145
1.1578636
1.1573821
1.1567635
1.1560072
1.1551195
1.1541161
1.1530283
1.1519108
1.1507654
1.1496142
1.1481446
1.1435223
1.1325454
1.1132299
1.0882517
1.0625087
1.0402078
1.0207327
1.0022455
0.98447756
0.96737933
0.95121258
0.93487722
0.91790766
0.90077886
0.88348485
0.86518425
1.158618
1.1586138
1.158604
1.1585854
1.1585544
1.1585067
1.1584379
1.1583433
1.1582181
1.1580573
1.1578532
1.1575682
1.156924
1.1534632
1.1391981
1.1118403
1.0771339
1.0354226
0.99456695
0.95942907
0.93234407
0.91238635
0.89681996
0.88409992
0.87349038
0.8652929
0.8586695
0.85293064
0.84726046
0.83716003
1.0689111
0.99807824
0.94223096
0.89651798
0.85789911
0.82462612
0.79564788
0.77029862
0.74822226
0.72933303
0.71385534
0.70242338
0.69642609
0.7077964
0.72358052
0.74089376
0.75780863
0.77378125
0.78862155
0.80214198
0.81415352
0.82425044
0.83179789
0.83622779
0.83735079
0.83544703
0.83100696
0.824267
0.81368565
0.79650472
1.1565333
1.1526718
1.1475259
1.1414056
1.134544
1.1271297
1.119336
1.1113422
1.1033689
1.0957124
1.0888288
1.0834361
1.0805185
1.0806379
1.0812645
1.0802
1.0773597
1.0732252
1.0677436
1.0608335
1.05227
1.0415385
1.0281521
1.0120457
0.99360106
0.97323925
0.95118721
0.92806346
0.90451055
0.87900136
1.1585737
1.1584452
1.1582126
1.15786
1.1573765
1.1567559
1.1559971
1.155105
1.1540949
1.153
1.1518893
1.1508899
1.1500435
1.1471978
1.1366647
1.1206188
1.1055489
1.0929561
1.0800107
1.0659938
1.0497686
1.0297982
1.0058545
0.97930064
0.95230154
0.92711499
0.90484902
0.88525197
0.86333906
0.83813886
1.158618
1.1586138
1.1586039
1.1585853
1.1585542
1.1585066
1.1584382
1.1583446
1.1582214
1.1580647
1.1578688
1.1575858
1.1564193
1.1450484
1.1055776
1.0610675
1.0370064
1.0347015
1.0095363
0.9786507
0.95183491
0.93073668
0.91384427
0.89982805
0.88788894
0.87785384
0.86932327
0.86106876
0.84178361
0.80710343
1.0689027
0.99801905
0.9420718
0.89620648
0.85735526
0.8237194
0.79418379
0.76801288
0.74471458
0.72405041
0.70611284
0.69152984
0.68165399
0.68727582
0.69161498
0.6925953
0.69115306
0.68914754
0.68798536
0.68871784
0.69189171
0.69736396
0.70454697
0.71277613
0.72130376
0.72879046
0.73283736
0.73036351
0.72013361
0.7049077
1.1565329
1.152666
1.1475034
1.1413495
1.1344284
1.1269125
1.1189494
1.1106819
1.1022816
1.0940109
1.0863559
1.0802122
1.0766708
1.0744311
1.0703207
1.0648073
1.0587144
1.0525103
1.0462256
1.0394911
1.0315454
1.021584
1.009265
0.9948094
0.97848297
0.96028053
0.94072313
0.91928199
0.88735813
0.82786139
1.1585737
1.1584449
1.1582114
1.1578563
1.1573679
1.1567384
1.1559637
1.155045
1.153993
1.1528391
1.1516642
1.1506291
1.1493586
1.1402393
1.1226512
1.1097281
1.1011787
1.0938721
1.0844995
1.0709473
1.0519546
1.0270647
0.9976955
0.96642106
0.9350476
0.90557657
0.88128885
0.86080473
0.83990629
0.8133132
1.158618
1.1586138
1.1586038
1.158585
1.1585536
1.1585052
1.1584353
1.1583389
1.1582107
1.158045
1.1578288
1.1573991
1.153919
1.1142178
1.0334299
0.99614543
0.99329833
0.99375386
0.98954056
0.97218863
0.95260301
0.93459171
0.91848008
0.9037922
0.88907184
0.87277207
0.85549915
0.83615219
0.81544053
0.79030074
1.068899
0.99799812
0.94202217
0.89612015
0.85722367
0.82353222
0.79393265
0.76768769
0.74434072
0.72372366
0.70610789
0.6924255
0.68382009
0.69021519
0.69260371
0.69075899
0.68778891
0.68334485
0.67815454
0.67278679
0.66775997
0.66354438
0.66051207
0.6588812
0.65864276
0.65942462
0.66032276
0.65984856
0.65613389
0.64730238
1.1565328
1.1526636
1.1474941
1.1413272
1.1343856
1.1268397
1.1188352
1.1105173
1.1020694
1.0938046
1.0863476
1.0808305
1.0779518
1.0734611
1.0673411
1.0603547
1.0476405
1.0299413
1.008676
0.98463387
0.95824792
0.92957287
0.89900693
0.86774695
0.83739414
0.8091617
0.78330848
0.75907732
0.73475615
0.70692402
1.1585737
1.1584448
1.1582108
1.1578545
1.1573639
1.1567304
1.1559494
1.1550218
1.1539589
1.1527989
1.1516472
1.1506724
1.1482233
1.1296632
1.115964
1.1076738
1.1023954
1.0957915
1.0868782
1.0744224
1.0548665
1.0273298
0.99454767
0.96139655
0.92894544
0.89653331
0.86417581
0.83117817
0.79628368
0.75720661
1.158618
1.1586137
1.1586038
1.1585849
1.1585532
1.1585044
1.1584337
1.1583357
1.1582047
1.1580333
1.1577954
1.1570723
1.148156
1.038074
0.98092491
0.96957971
0.96369673
0.9576216
0.94978741
0.94028592
0.92984332
0.91865965
0.90799124
0.89871315
0.89145523
0.88393316
0.86761877
0.84420289
0.8132836
0.77737264
1.0688972
0.99799499
0.94201792
0.89611493
0.85721753
0.82352459
0.79391983
0.76766215
0.74428242
0.72357973
0.7057495
0.69161891
0.68257974
0.68985787
0.69384498
0.69339153
0.69024868
0.68568708
0.68044289
0.67509025
0.67014209
0.66604777
0.66315382
0.66165872
0.66153566
0.66239647
0.66331776
0.6628133
0.65900717
0.65009037
1.1565327
1.1526635
1.1474938
1.1413267
1.1343846
1.1268379
1.1188309
1.1105051
1.1020351
1.0937089
1.0860924
1.0802436
1.0771688
1.0736221
1.0680745
1.0614904
1.0523975
1.0389141
1.022913
1.0062938
0.98905987
0.96893894
0.94347929
0.91377683
0.88185085
0.84964559
0.81840206
0.78805389
0.75708132
0.72245617
1.1585737
1.1584448
1.1582108
1.1578545
1.1573639
1.1567304
1.1559494
1.1550213
1.1539564
1.1527889
1.1516134
1.1506079
1.1488353
1.1325376
1.1160594
1.1055099
1.0999046
1.094432
1.0878691
1.0760642
1.056503
1.0283029
0.99645004
0.96586934
0.93951917
0.91516931
0.88715757
0.85509432
0.81816495
0.77519508
1.158618
1.1586137
1.1586038
1.1585849
1.1585532
1.1585044
1.1584338
1.1583359
1.1582052
1.1580348
1.1578061
1.1572525
1.1514101
1.0723269
0.98484999
0.96934835
0.96247054
0.95689838
0.95007323
0.94423122
0.93499048
0.92368362
0.91220078
0.90179623
0.89266028
0.88493199
0.87657205
0.85374599
0.8233632
0.78779814
1.0688966
0.99800814
0.94205642
0.89618655
0.85733109
0.82369172
0.79415133
0.76796877
0.74464256
0.72391103
0.70580789
0.69085341
0.68039918
0.68612724
0.69166445
0.69420232
0.69403025
0.69291529
0.69252552
0.69396102
0.6976926
0.70351041
0.71080481
0.71898671
0.72742531
0.7348538
0.73894557
0.73649088
0.72471489
0.70895751
1.1565328
1.1526655
1.1475023
1.1413474
1.1344249
1.1269069
1.1189396
1.1106629
1.1022398
1.0939116
1.086117
1.0796757
1.0757502
1.0740771
1.0708991
1.0658955
1.0600974
1.0542013
1.0483277
1.0421333
1.0348646
1.0256216
1.0138466
0.99962697
0.98325253
0.96471602
0.94473413
0.92332732
0.89533868
0.83773161
1.1585737
1.1584449
1.1582113
1.1578562
1.1573678
1.1567381
1.1559632
1.155044
1.15399
1.1528292
1.1516333
1.1505544
1.1494794
1.1432815
1.1255459
1.1100066
1.0995319
1.0917972
1.0828407
1.0701627
1.0522087
1.028375
1.0003357
0.97098134
0.94181371
0.91370944
0.89068299
0.87143475
0.85135437
0.82501824
1.158618
1.1586138
1.1586038
1.158585
1.1585536
1.1585052
1.1584354
1.1583391
1.1582112
1.1580462
1.157834
1.1574721
1.1551936
1.1291987
1.0536829
0.99653036
0.99121447
0.99273433
0.99484242
0.98044017
0.96059783
0.94095302
0.92341248
0.90876048
0.89392292
0.87712891
0.86156761
0.84366111
0.82203207
0.79597771
1.0689004
0.99805874
0.94220314
0.89648217
0.8578576
0.82458083
0.7956002
0.77024688
0.74816014
0.72923736
0.71366413
0.70199313
0.69552903
0.70644137
0.72248304
0.74076341
0.75882898
0.77572899
0.79114158
0.80486797
0.81675749
0.8265646
0.83390355
0.83842133
0.83998521
0.83875121
0.83501267
0.82885586
0.818892
0.8020331
1.156533
1.1526709
1.1475239
1.141402
1.1345382
1.127121
1.1193229
1.1113212
1.1033305
1.0956332
1.0886553
1.0830626
1.0798166
1.0798658
1.0811832
1.0808922
1.0784734
1.0745244
1.0691672
1.0623833
1.0540662
1.043855
1.0313277
1.0163176
0.99896378
0.97943502
0.95786948
0.93495563
0.91171497
0.88651167
1.1585737
1.1584452
1.1582125
1.1578598
1.1573762
1.1567555
1.1559965
1.155104
1.1540925
1.1529933
1.1518695
1.1508385
1.1500028
1.1481026
1.1396157
1.12363
1.1072026
1.0938045
1.0808318
1.0669491
1.0512885
1.0325435
1.010366
0.98574622
0.96018901
0.93524382
0.91205601
0.89136328
0.86989168
0.84573326
1.158618
1.1586138
1.1586039
1.1585853
1.1585542
1.1585066
1.1584383
1.1583448
1.158222
1.1580659
1.1578719
1.1576099
1.1568008
1.1496446
1.1179251
1.0695589
1.0400992
1.0357217
1.0152811
0.98613764
0.95863172
0.936397
0.91857629
0.90392054
0.89143666
0.88087104
0.87189081
0.86353774
0.84595724
0.81372189
1.068895
0.99817744
0.94246583
0.89690063
0.85845653
0.82540593
0.79678671
0.77207168
0.75107946
0.73388598
0.72080417
0.71231021
0.70922517
0.7221583
0.73991645
0.7600588
0.778993
0.79406683
0.8045087
0.81100289
0.8147323
0.81658318
0.81703737
0.81629542
0.81444957
0.81147528
0.80717357
0.80094609
0.79116213
0.77426594
1.1565332
1.152684
1.1475605
1.1414691
1.1346452
1.1272865
1.1195905
1.1117711
1.1040763
1.0968192
1.0904102
1.0853613
1.0822812
1.0819801
1.0835069
1.0844146
1.0821917
1.0763436
1.0680556
1.0587586
1.0491904
1.0393576
1.0290623
1.0180199
1.0059285
0.99252796
0.97774273
0.96177112
0.94444771
0.9240111
1.1585738
1.1584457
1.1582144
1.1578635
1.1573819
1.1567632
1.1560069
1.1551194
1.1541161
1.1530277
1.1519072
1.1507471
1.1495832
1.1481927
1.1441303
1.1341941
1.1157523
1.0912575
1.065581
1.0427349
1.0236712
1.0055093
0.98795043
0.97089832
0.95490253
0.93884184
0.92213824
0.90507412
0.8876421
0.86944496
1.158618
1.1586138
1.158604
1.1585854
1.1585544
1.1585067
1.158438
1.1583436
1.1582189
1.1580588
1.1578558
1.1575724
1.15696
1.1539537
1.141404
1.1144688
1.079615
1.0384916
0.9986352
0.96388141
0.93593511
0.91546728
0.89962892
0.88679541
0.87597184
0.86751336
0.86066034
0.85474481
0.84898962
0.84024754
1.0688772
0.99744553
0.94056318
0.89349561
0.85322088
0.8179698
0.78676905
0.75927779
0.73545099
0.71484599
0.6972351
0.68258844
0.67127733
0.67165618
0.6753506
0.682367
0.69188225
0.70256619
0.71310262
0.72252953
0.73031822
0.736271
0.74039346
0.74279087
0.74359899
0.74291047
0.7406967
0.73669679
0.73019603
0.72001641
1.1565305
1.1526082
1.1472845
1.1408287
1.1334397
1.1252777
1.1164862
1.1063687
1.0927326
1.07494
1.0506578
1.0194263
0.98199652
0.94466982
0.91099423
0.88322903
0.86177615
0.84622299
0.83595894
0.8302353
0.82795419
0.82776342
0.82839431
0.82883385
0.8283072
0.82612549
0.82150876
0.81334243
0.79963023
0.77852268
1.1585736
1.1584421
1.1581981
1.157818
1.1572818
1.1565727
1.1556777
1.1545662
1.1531535
1.1513435
1.14885
1.1407801
1.1202482
1.0867164
1.045255
1.0015459
0.96118584
0.92664089
0.89881499
0.87770509
0.86264352
0.85246903
0.84583614
0.84147554
0.83831321
0.83544871
0.83207064
0.82727129
0.81955451
0.80674753
1.158618
1.1586136
1.1586031
1.1585826
1.158547
1.1584903
1.1584054
1.1582834
1.1581112
1.1578691
1.157509
1.156721
1.1542467
1.1405871
1.1065461
1.0624855
1.0197822
0.98114307
0.94771711
0.92008719
0.89827246
0.88171729
0.86947176
0.86047789
0.8537645
0.84851478
0.84401862
0.83956218
0.83413759
0.82620041
)
;

boundaryField
{
    maxY
    {
        type            calculated;
        value           nonuniform List<scalar> 
300
(
1.1586174
1.1586174
1.1586174
1.1586174
1.1586174
1.1586174
1.1586174
1.1586174
1.1586174
1.1586174
1.1586131
1.1586133
1.1586132
1.1586132
1.1586132
1.1586132
1.1586132
1.1586132
1.1586133
1.1586131
1.1586026
1.1586035
1.1586034
1.1586033
1.1586033
1.1586033
1.1586033
1.1586034
1.1586035
1.1586026
1.158582
1.1585849
1.1585847
1.1585845
1.1585844
1.1585844
1.1585845
1.1585847
1.1585849
1.158582
1.1585464
1.1585538
1.1585536
1.158553
1.1585527
1.1585527
1.158553
1.1585536
1.1585538
1.1585464
1.1584897
1.1585062
1.158506
1.1585047
1.1585039
1.1585039
1.1585047
1.1585061
1.1585062
1.1584898
1.1584047
1.1584373
1.1584377
1.1584348
1.1584332
1.1584332
1.1584348
1.1584377
1.1584375
1.1584049
1.1582825
1.1583428
1.1583441
1.1583384
1.1583352
1.1583354
1.1583386
1.1583443
1.1583431
1.1582829
1.1581098
1.1582176
1.1582209
1.1582102
1.1582041
1.1582047
1.1582107
1.1582215
1.1582184
1.1581107
1.1578666
1.1580567
1.1580642
1.1580445
1.1580327
1.1580343
1.1580457
1.1580654
1.1580583
1.1578686
1.1575059
1.1578526
1.1578683
1.1578283
1.1577949
1.1578055
1.1578335
1.1578714
1.1578552
1.1575085
1.1567331
1.1575677
1.1575853
1.1573986
1.1570718
1.157252
1.1574715
1.1576094
1.1575719
1.1567205
1.154362
1.1569235
1.1564188
1.1539185
1.1481554
1.1514096
1.1551931
1.1568003
1.1569595
1.1542462
1.1419188
1.1534626
1.1450479
1.1142173
1.0380736
1.0723265
1.1291982
1.1496441
1.1539532
1.1405866
1.1087093
1.1391976
1.1055771
1.0334295
0.98092453
0.98484961
1.0536825
1.1179246
1.1414035
1.1065456
1.0645345
1.1118398
1.0610671
0.99614504
0.96957934
0.96934798
0.99652997
1.0695584
1.1144683
1.062485
1.0211552
1.0771334
1.037006
0.99329794
0.96369636
0.96247018
0.99121409
1.0400987
1.0796145
1.0197818
0.98153847
1.0354222
1.0347011
0.99375347
0.95762124
0.95689802
0.99273394
1.0357213
1.0384912
0.98114269
0.94715785
0.99456656
1.0095359
0.98954018
0.94978705
0.95007288
0.99484203
1.0152807
0.99863481
0.94771675
0.9188385
0.95942871
0.97865032
0.97218826
0.94028557
0.94423088
0.98043979
0.98613726
0.96388104
0.92008686
0.89665666
0.93234373
0.95183456
0.95260265
0.92984298
0.93499013
0.96059746
0.95863136
0.93593477
0.89827215
0.87997165
0.91238603
0.93073634
0.93459137
0.91865932
0.92368329
0.94095267
0.93639665
0.91546695
0.88171698
0.86772653
0.89681965
0.91384394
0.91847975
0.90799092
0.91220045
0.92341215
0.91857596
0.8996286
0.86947147
0.85878679
0.88409961
0.89982773
0.90379188
0.89871283
0.90179591
0.90876016
0.90392022
0.88679511
0.8604776
0.85213629
0.87349008
0.88788863
0.88907153
0.89145492
0.89265997
0.89392261
0.89143635
0.87597154
0.85376421
0.84693261
0.8652926
0.87785354
0.87277177
0.88393285
0.88493169
0.8771286
0.88087074
0.86751307
0.84851449
0.8424521
0.85866921
0.86932297
0.85549886
0.86761847
0.87657174
0.86156732
0.87189051
0.86066004
0.84401834
0.83797121
0.85293035
0.86106847
0.83615192
0.84420261
0.8537457
0.84366083
0.86353745
0.85474452
0.8395619
0.83245507
0.84726018
0.84178334
0.81544027
0.81328334
0.82336294
0.82203181
0.84595696
0.84898933
0.83413732
0.82432154
0.83715975
0.80710318
0.7903005
0.7773724
0.78779789
0.79597746
0.81372163
0.84024726
0.82620014
)
;
    }
    minX
    {
        type            calculated;
        value           nonuniform List<scalar> 
40
(
1.1586222
1.1586212
1.1586201
1.1586191
1.1586222
1.1586212
1.1586201
1.1586191
1.1586222
1.1586212
1.1586201
1.1586191
1.1586222
1.1586212
1.1586201
1.1586191
1.1586222
1.1586212
1.1586201
1.1586191
1.1586222
1.1586212
1.1586201
1.1586191
1.1586222
1.1586212
1.1586201
1.1586191
1.1586222
1.1586212
1.1586201
1.1586191
1.1586222
1.1586212
1.1586201
1.1586191
1.1586222
1.1586212
1.1586201
1.1586191
)
;
    }
    maxX
    {
        type            calculated;
        value           nonuniform List<scalar> 
40
(
0.71734422
0.7753208
0.8041397
0.82427211
0.77086458
0.91802537
0.86526901
0.83733023
0.79637264
0.87914897
0.83849396
0.80767271
0.70490817
0.82760816
0.81336772
0.7904701
0.64735069
0.707127
0.7573976
0.77749491
0.64994699
0.72183752
0.77451282
0.78711868
0.70879373
0.8374087
0.82474663
0.79577685
0.80192051
0.88655056
0.84583595
0.81397851
0.77419031
0.92394918
0.86940198
0.84028595
0.71994092
0.77838384
0.8066179
0.82609825
)
;
    }
    minZ
    {
        type            calculated;
        value           nonuniform List<scalar> 
120
(
1.068885
1.1565307
1.1585736
1.158618
0.99745948
1.1526089
1.1584421
1.1586136
0.940583
1.1472862
1.1581982
1.1586031
0.89351917
1.1408317
1.1578181
1.1585826
0.8532447
1.1334443
1.157282
1.1585469
0.81798922
1.1252839
1.1565729
1.1584902
0.78677753
1.1164945
1.1556778
1.1584053
0.75927183
1.1064083
1.154567
1.158283
0.73542664
1.0928274
1.1531559
1.1581103
0.71479944
1.0751067
1.1513477
1.1578672
0.69716399
1.0509352
1.1488676
1.1575064
0.68249869
1.0198312
1.1411321
1.1567337
0.67119604
0.98264612
1.1214842
1.1543625
0.67166311
0.94552466
1.0886221
1.1419193
0.67546649
0.91180714
1.0474546
1.1087098
0.682549
0.88370409
1.0037524
1.0645349
0.6920362
0.86173447
0.96286917
1.0211556
0.70259154
0.84566199
0.92752805
0.98153885
0.71293148
0.83501147
0.8989152
0.9471582
0.72214611
0.82906731
0.87720061
0.91883883
0.72974435
0.82665265
0.86174195
0.89665698
0.73554961
0.82635728
0.851331
0.87997195
0.73956215
0.82687435
0.84455884
0.86772682
0.74185678
0.82716035
0.8400984
0.85878708
0.74252807
0.82642092
0.83683187
0.85213657
0.74163759
0.82396702
0.83383491
0.84693289
0.73915025
0.81903607
0.83028897
0.84245237
0.73482681
0.81055513
0.82528704
0.83797148
0.72797455
0.79655935
0.81731335
0.83245534
0.71741008
0.77542091
0.8042209
0.82432181
)
;
    }
    maxZ
    {
        type            calculated;
        value           nonuniform List<scalar> 
120
(
1.0688772
1.1565305
1.1585736
1.158618
0.99744553
1.1526082
1.1584421
1.1586136
0.94056318
1.1472845
1.1581981
1.1586031
0.89349561
1.1408287
1.157818
1.1585826
0.85322088
1.1334397
1.1572818
1.158547
0.8179698
1.1252777
1.1565727
1.1584903
0.78676905
1.1164862
1.1556777
1.1584054
0.75927779
1.1063687
1.1545662
1.1582834
0.73545099
1.0927326
1.1531535
1.1581112
0.71484599
1.07494
1.1513435
1.1578691
0.6972351
1.0506578
1.14885
1.157509
0.68258844
1.0194263
1.1407801
1.156721
0.67127733
0.98199652
1.1202482
1.1542467
0.67165618
0.94466982
1.0867164
1.1405871
0.6753506
0.91099423
1.045255
1.1065461
0.682367
0.88322903
1.0015459
1.0624855
0.69188225
0.86177615
0.96118584
1.0197822
0.70256619
0.84622299
0.92664089
0.98114307
0.71310262
0.83595894
0.89881499
0.94771711
0.72252953
0.8302353
0.87770509
0.92008719
0.73031822
0.82795419
0.86264352
0.89827246
0.736271
0.82776342
0.85246903
0.88171729
0.74039346
0.82839431
0.84583614
0.86947176
0.74279087
0.82883385
0.84147554
0.86047789
0.74359899
0.8283072
0.83831321
0.8537645
0.74291047
0.82612549
0.83544871
0.84851478
0.7406967
0.82150876
0.83207064
0.84401862
0.73669679
0.81334243
0.82727129
0.83956218
0.73019603
0.79963023
0.81955451
0.83413759
0.72001641
0.77852268
0.80674753
0.82620041
)
;
    }
    topAir_to_rightSolid
    {
        type            calculated;
        value           nonuniform List<scalar> 
130
(
0.46158561
0.45668971
0.45169552
0.44686183
0.44236974
0.43832518
0.43478183
0.43175968
0.42926574
0.42729099
0.4258222
0.42484804
0.42436053
0.4652666
0.4594746
0.45371741
0.44828692
0.44335643
0.43900021
0.43524147
0.43207378
0.42948112
0.42743992
0.42592541
0.4249225
0.42442139
0.47273101
0.46483419
0.45742217
0.4507935
0.4450304
0.44010995
0.43597515
0.4325602
0.4298038
0.42765334
0.42606946
0.42502592
0.42450584
0.48426777
0.47224204
0.46209478
0.45372895
0.44687649
0.44127442
0.43671187
0.43302695
0.43009817
0.42783819
0.42618619
0.42510216
0.42456304
0.49865389
0.47947358
0.46598064
0.45592736
0.44816121
0.44203971
0.43717392
0.43330877
0.43027076
0.42794364
0.42625053
0.42514291
0.42459323
0.49854936
0.47937301
0.46589237
0.45585495
0.44810211
0.44199503
0.43714081
0.43328419
0.4302542
0.42793554
0.42624854
0.42514438
0.42459606
0.48404821
0.4720295
0.46190721
0.45357602
0.44675246
0.44117388
0.43663282
0.43296725
0.43005694
0.42781436
0.42617611
0.42510071
0.42456409
0.47245068
0.46458296
0.45721063
0.45061974
0.44488509
0.43998939
0.43587825
0.43248687
0.42975108
0.42761666
0.42604189
0.42500115
0.42447995
0.46498562
0.45922719
0.45351574
0.4481315
0.4432334
0.43890202
0.43516461
0.43201696
0.42943636
0.42739795
0.42588302
0.42487953
0.42437725
0.46134651
0.45648005
0.45152601
0.44673431
0.44227596
0.43825672
0.434733
0.43172664
0.42923713
0.42725722
0.42578078
0.42480011
0.42430965
)
;
    }
    topAir_to_heater
    {
        type            calculated;
        value           nonuniform List<scalar> 
40
(
0.47366687
0.47235478
0.4697474
0.46605433
0.47984958
0.47827024
0.47512868
0.47065691
0.49333529
0.4911476
0.48676679
0.48042014
0.51692446
0.5138548
0.50741455
0.49735831
0.55570728
0.55248387
0.54425934
0.52840617
0.55567717
0.55244669
0.54420512
0.52832627
0.51681937
0.51374781
0.50727233
0.49716668
0.49323875
0.4909904
0.4865411
0.48014471
0.47977339
0.47810057
0.47487933
0.47037064
0.47360066
0.47220376
0.46953192
0.46580977
)
;
    }
    topAir_to_leftSolid
    {
        type            calculated;
        value           nonuniform List<scalar> 
130
(
0.37806685
0.37808174
0.37811938
0.3781732
0.37824255
0.37832753
0.37842339
0.37853225
0.37864736
0.37875575
0.37885233
0.3789217
0.37895975
0.37806223
0.3780778
0.37811635
0.3781761
0.37824955
0.37834209
0.37844726
0.37855808
0.37867192
0.37878717
0.37888772
0.37896407
0.37900848
0.3780488
0.37806437
0.37810239
0.37816484
0.37824593
0.37834972
0.37846214
0.37857734
0.37869401
0.37880869
0.37891482
0.37900128
0.37905605
0.37802065
0.37803452
0.3780701
0.37812991
0.37821394
0.37832289
0.37844488
0.37857059
0.37869686
0.37882165
0.37894112
0.37904607
0.37912234
0.37800033
0.37801389
0.37804775
0.37810462
0.3781862
0.37829283
0.37842373
0.37856345
0.37870341
0.3788457
0.37898461
0.37910422
0.37919237
0.37799481
0.37800837
0.3780423
0.37809971
0.37818321
0.37829339
0.37842805
0.37857175
0.3787238
0.37888546
0.37904945
0.37918573
0.3792831
0.37800166
0.37801562
0.37805089
0.37811153
0.3782013
0.37832354
0.37845777
0.37860649
0.37877133
0.37895079
0.37913634
0.37929044
0.37937591
0.37801573
0.37803031
0.37806746
0.37813207
0.37822912
0.3783538
0.37849118
0.37864402
0.37881118
0.37899511
0.37919077
0.37934018
0.37941853
0.37803214
0.3780472
0.37808569
0.37815346
0.37824766
0.37836277
0.37849937
0.37866098
0.37883004
0.37901201
0.37920498
0.37935712
0.37943626
0.37804194
0.37805813
0.37809634
0.3781625
0.3782554
0.37837139
0.37851169
0.37866422
0.37882867
0.37900608
0.37919335
0.37934961
0.37942992
)
;
    }
}


// ************************************************************************* //
