/*--------------------------------*- C++ -*----------------------------------*\
| =========                 |                                                 |
| \\      /  F ield         | OpenFOAM: The Open Source CFD Toolbox           |
|  \\    /   O peration     | Version:  v2012                                 |
|   \\  /    A nd           | Website:  www.openfoam.com                      |
|    \\/     M anipulation  |                                                 |
\*---------------------------------------------------------------------------*/
FoamFile
{
    version     2.0;
    format      ascii;
    class       volScalarField;
    location    "590/topAir";
    object      T;
}
// * * * * * * * * * * * * * * * * * * * * * * * * * * * * * * * * * * * * * //

dimensions      [0 0 0 1 0 0 0];


internalField   nonuniform List<scalar> 
1200
(
325.18619
348.47195
369.54383
389.00859
407.37039
424.92811
441.78513
457.78941
472.63259
486.27149
498.5722
509.28533
517.86146
517.50133
514.5874
509.24774
502.2664
494.72062
487.54547
481.32436
476.31272
472.55345
469.98959
468.53586
468.11227
468.67432
470.25147
473.01824
477.47065
484.50182
300.54228
301.56487
302.96395
304.67804
306.66382
308.88771
311.31935
314.15741
318.06151
323.30403
330.74004
340.82734
353.72483
367.61211
381.20595
393.32884
403.35661
411.02271
416.26528
419.24977
420.4744
420.62469
420.36166
420.21631
420.59229
421.84487
424.38456
428.82494
436.35952
448.25495
300.01205
300.04611
300.1093
300.2078
300.34688
300.53102
300.76379
301.05315
301.42155
301.89493
302.54666
304.59755
309.93394
319.28988
331.83877
346.28661
360.98987
374.74448
386.67276
396.24462
403.35279
408.2854
411.55927
413.74441
415.35944
416.85233
418.63259
421.16985
425.27878
432.20218
300.00029
300.00141
300.00413
300.00946
300.01868
300.03337
300.05537
300.08704
300.1318
300.19482
300.28838
300.48899
301.10622
304.3873
313.50469
326.51418
340.38471
354.12328
366.97752
378.28808
387.64633
394.99645
400.57053
404.74037
407.89917
410.40537
412.58808
414.79431
417.54289
421.66275
325.18026
348.21523
368.79573
387.52823
404.88012
421.08959
436.21251
450.17731
462.76171
473.60392
482.18826
487.88409
489.85308
480.79173
469.00292
456.53651
445.63331
437.50148
432.15386
428.922
427.07555
426.1298
425.86912
426.24852
427.27926
429.01013
431.54627
435.17948
440.83932
450.84193
300.54154
301.54502
302.89104
304.50696
306.33774
308.33672
310.45532
312.63753
314.81395
316.8917
318.74257
320.19942
321.06064
321.08707
320.63084
320.4657
321.28911
323.19373
325.81519
328.74603
331.82829
335.08195
338.59742
342.4886
346.86089
351.79978
357.33892
363.43952
370.25306
378.62326
300.01201
300.04515
300.10507
300.19601
300.3209
300.4815
300.6781
300.90915
301.17077
301.45492
301.74737
302.0477
302.35015
302.73716
303.96085
306.90691
312.23201
319.39854
327.13708
334.15053
340.52597
346.80722
353.06644
359.30682
365.41358
371.79855
378.67207
385.87273
393.4261
401.74794
300.00029
300.00137
300.00391
300.00872
300.01676
300.02911
300.04693
300.07143
300.10386
300.14554
300.19845
300.27236
300.43955
301.34098
305.11438
312.622
322.695
335.69454
349.48449
362.28393
372.80844
380.96333
387.57584
393.15212
397.92741
401.69724
404.79576
407.5194
410.24667
415.19634
325.17827
348.25591
368.8975
387.70737
405.16026
421.50814
436.85985
451.23618
464.54993
476.58146
486.9146
494.83914
499.10046
491.08271
480.37027
469.14494
458.67326
449.20519
440.75203
433.32297
426.92997
421.70015
417.87379
415.6601
415.10263
416.04853
418.27147
421.69163
427.17539
436.38972
300.54159
301.54841
302.90065
304.52484
306.36658
308.38187
310.52907
312.76266
315.02279
317.22407
319.22958
320.8185
321.68477
321.64922
321.46282
321.77958
322.62792
323.87079
325.53349
327.65395
330.32043
333.72389
338.06894
343.4492
349.82478
357.1437
365.42361
374.52854
384.28103
395.43309
300.01201
300.0453
300.10555
300.19696
300.32236
300.48347
300.68073
300.91294
301.17632
301.46231
301.75298
302.01503
302.2373
302.987
305.7947
310.17329
314.4013
318.02376
321.8357
326.06756
331.10727
337.52826
345.56291
354.93289
364.99575
374.91143
384.13703
392.64077
402.60661
414.71171
300.00029
300.00138
300.00393
300.00876
300.01681
300.02914
300.04685
300.07109
300.10299
300.14361
300.19438
300.26779
300.57066
303.55548
314.39287
327.58116
335.18185
335.92848
344.30237
355.16833
365.1744
373.45229
380.35556
386.2802
391.47437
395.94948
399.8349
403.66787
412.91585
430.65831
325.18081
348.27657
368.95982
387.84213
405.41727
421.97212
437.66521
452.57913
466.73801
480.05855
492.2536
502.63425
509.91644
505.74538
502.57235
501.86098
502.90821
504.37174
505.22374
504.68641
502.37129
498.42914
493.34754
487.65173
481.88645
476.93612
474.30236
475.90889
482.66943
493.09503
300.54169
301.54992
302.9066
304.53981
306.3978
308.44129
310.63635
312.94861
315.33353
317.71745
319.95624
321.77597
322.83437
323.50731
324.74969
326.43119
328.30979
330.24504
332.22882
334.38122
336.95685
340.24248
344.39547
349.39987
355.22976
361.96326
369.48837
378.10623
391.70909
419.86043
300.01202
300.04537
300.10588
300.19791
300.32458
300.48803
300.68942
300.92857
301.20289
301.50438
301.81198
302.08348
302.4174
304.83603
309.61178
313.21728
315.64905
317.75745
320.50362
324.5594
330.41922
338.42661
348.38888
359.66312
371.73083
383.82841
394.40646
403.79194
413.83904
427.37043
300.00029
300.00138
300.00395
300.00882
300.01697
300.02949
300.04759
300.07256
300.10577
300.14872
300.20477
300.31621
301.22195
311.95492
336.34184
348.93071
349.93085
349.77044
351.25971
357.52911
364.87996
371.91187
378.43582
384.58593
390.95353
398.25493
406.29589
415.6968
426.25524
439.81461
325.18195
348.28387
368.97926
387.8795
405.4795
422.06803
437.80365
452.77085
466.97244
480.2753
492.25706
501.98409
508.30121
503.5916
501.8549
503.19512
505.36806
508.65466
512.54768
516.63697
520.52614
523.83311
526.23793
527.54047
527.73144
527.10571
526.38876
526.76705
529.74932
536.97701
300.54173
301.55056
302.90905
304.54575
306.40936
308.46123
310.66806
312.995
315.39426
317.77737
319.95868
321.59189
322.45074
323.79966
325.65627
327.80192
331.78013
337.48166
344.59659
353.01071
362.73107
373.92043
386.6336
400.5618
415.08085
429.56342
443.74122
457.90627
473.06345
491.68832
300.01202
300.0454
300.10603
300.19836
300.32562
300.4901
300.69312
300.93461
301.2118
301.51489
301.81642
302.07211
302.7164
307.68997
311.46706
313.79816
315.30067
317.20088
319.80217
323.50967
329.50711
338.33928
349.49156
361.54282
374.17269
387.70007
402.21679
418.18474
436.51032
459.03727
300.00029
300.00138
300.00395
300.00885
300.01705
300.02969
300.04801
300.07339
300.10734
300.15177
300.21343
300.40105
302.7339
334.83713
354.34489
358.49113
360.67958
362.96772
365.96162
369.65963
373.81109
378.36184
382.80739
386.75941
389.90828
393.22632
400.62041
411.73254
427.38575
447.12899
325.18249
348.28496
368.98092
387.88176
405.48241
422.07194
437.81072
452.78591
467.00902
480.37083
492.50703
502.56952
509.22487
503.85244
500.95709
501.28468
503.56713
506.91716
510.82397
514.87417
518.67586
521.86424
524.14161
525.32596
525.42367
524.74085
524.01202
524.41084
527.43961
534.67412
300.54174
301.5506
302.90914
304.5459
306.40961
308.46172
310.66925
312.99842
315.40406
317.80518
320.03385
321.76664
322.68513
323.75111
325.43265
327.45121
330.28044
334.56693
339.80045
345.41234
351.431
358.72879
368.40903
380.38421
394.1554
409.09559
424.71333
441.06916
459.11352
481.11746
300.01202
300.0454
300.10604
300.19837
300.32563
300.4901
300.69314
300.93475
301.21246
301.51751
301.82529
302.08903
302.55515
306.90904
311.44044
314.4124
316.0147
317.59489
319.51088
323.01606
328.99671
338.0191
348.82433
359.86857
369.9616
379.80515
391.79739
406.48852
424.83613
448.38526
300.00029
300.00138
300.00395
300.00885
300.01705
300.02969
300.04799
300.07334
300.10721
300.15137
300.21066
300.35426
301.87831
324.14157
352.93267
358.5767
361.13908
363.24205
365.85152
368.11507
371.75325
376.30391
381.04085
385.43715
389.38192
392.78247
396.52848
407.13022
422.15369
441.21179
325.18267
348.28038
368.96584
387.85076
405.4287
421.9863
437.6831
452.60513
466.78315
480.15098
492.46628
503.12639
510.85685
506.592
502.53641
500.69922
500.82334
501.62921
501.91152
500.87328
498.19438
494.07446
489.00417
483.43941
477.83119
473.00089
470.38172
471.94947
479.61824
490.2783
300.54173
301.55006
302.9069
304.54036
306.39873
308.44283
310.63908
312.95395
315.34548
317.74628
320.02661
321.93587
323.11065
323.61394
324.57429
326.09794
327.88149
329.71531
331.56264
333.53342
335.8761
338.90306
342.83913
347.71599
353.50661
360.29905
367.91966
376.44965
388.21761
414.9136
300.01202
300.04538
300.10589
300.19793
300.32462
300.4881
300.68954
300.92884
301.20369
301.50698
301.82008
302.10309
302.38562
304.02489
308.81551
313.13868
316.1218
318.36134
320.99459
324.79736
330.33943
337.9954
347.46938
357.97394
369.06026
380.41197
390.2466
398.86636
408.27418
421.30706
300.00029
300.00138
300.00395
300.00882
300.01697
300.02949
300.04758
300.07251
300.10564
300.14841
300.20341
300.29729
300.88959
307.81626
329.87698
348.79592
350.66652
350.12965
349.38773
354.52009
361.84315
369.39756
376.4144
382.48336
388.83192
396.27673
403.43413
411.99693
422.83727
436.67781
325.18151
348.26272
368.90838
387.72286
405.17986
421.53129
436.88603
451.26649
464.58851
476.64398
487.04506
495.14243
499.74417
492.02466
481.09997
469.2275
458.05651
448.07731
439.3481
431.85536
425.56885
420.51951
416.81862
414.57262
413.80076
414.40955
416.26495
419.35698
424.45949
433.3817
300.54166
301.54865
302.90118
304.5258
306.36815
308.38425
310.53268
312.76858
315.03375
317.247
319.28043
320.92915
321.89388
321.87919
321.487
321.57352
322.29476
323.47922
325.10003
327.17596
329.75755
332.98329
337.02797
342.00556
347.94682
354.88446
362.87435
371.76764
381.24441
392.08307
300.01202
300.04531
300.10557
300.197
300.32243
300.48358
300.68088
300.91319
301.17693
301.46406
301.75818
302.02851
302.24798
302.74824
305.00284
309.34205
313.93171
317.77709
321.59121
325.77563
330.62856
336.63085
344.01989
352.61206
361.99748
371.65283
381.10161
389.94877
399.5739
410.98774
300.00029
300.00138
300.00393
300.00876
300.01681
300.02913
300.04683
300.07103
300.10285
300.1433
300.19358
300.26152
300.47155
302.34189
310.92041
324.98045
334.18518
335.59759
342.35417
352.47182
362.58526
371.19485
378.39617
384.53132
389.91639
394.59325
398.65747
402.51372
410.87868
427.15552
325.18317
348.2213
368.80556
387.54197
404.89718
421.10991
436.23545
450.19992
462.78273
473.62479
482.22055
487.9708
490.09341
481.31631
469.76462
457.31536
446.19984
437.72959
432.04821
428.58853
426.62668
425.65967
425.42304
425.80972
426.77475
428.339
430.62175
433.96989
439.3366
448.92389
300.54161
301.54524
302.89154
304.50789
306.33924
308.33896
310.45847
312.64201
314.82095
316.90396
318.76659
320.24942
321.16083
321.25019
320.79751
320.52898
321.18736
322.93247
325.43838
328.29606
331.29
334.42414
337.7699
341.43368
345.53775
350.20299
355.49868
361.40224
368.03121
376.17103
300.01201
300.04516
300.10509
300.19605
300.32096
300.48158
300.67817
300.90918
301.17077
301.45506
301.74831
302.05249
302.35832
302.72448
303.79934
306.46079
311.52613
318.51878
326.19388
333.3407
339.54848
345.68152
351.82534
358.00452
364.00154
370.22849
376.9348
384.04147
391.58349
399.77917
300.00029
300.00137
300.00391
300.00872
300.01676
300.0291
300.0469
300.07134
300.10366
300.14514
300.19777
300.27126
300.4302
301.21289
304.52472
311.88466
321.9534
334.70249
348.06076
360.61048
371.37803
379.68123
386.36569
391.9571
396.80016
400.66906
403.8594
406.65444
409.41111
413.67069
325.18856
348.47682
369.55161
389.01885
407.38176
424.93821
441.78989
457.78582
472.61694
486.23983
498.52135
509.21837
517.79875
517.50667
514.67571
509.38357
502.37816
494.73847
487.42847
481.06894
475.93844
472.09046
469.46188
467.94666
467.4381
467.87131
469.26966
471.81756
476.01804
482.74801
300.54233
301.56505
302.96438
304.67884
306.66506
308.88941
311.32168
314.16865
318.08911
323.35417
330.82735
340.96268
353.95882
367.94477
381.54612
393.5404
403.3371
410.75023
415.79349
418.65996
419.81342
419.91017
419.59036
419.36785
419.63448
420.74269
423.10719
427.35537
434.68373
446.46902
300.01205
300.04611
300.10932
300.20784
300.34694
300.53107
300.76382
301.05337
301.42217
301.89604
302.55129
304.69152
310.27591
319.84982
332.53707
347.04954
361.62208
375.10326
386.71587
396.01686
402.93124
407.74035
410.93777
413.06729
414.62548
416.04711
417.73619
420.15965
424.1158
430.84857
300.00029
300.00141
300.00413
300.00946
300.01868
300.03336
300.05533
300.08694
300.13156
300.19432
300.28771
300.49227
301.13642
304.74282
314.11771
327.14399
340.84311
354.26613
366.7611
377.77482
386.94917
394.21456
399.76663
403.94507
407.1214
409.64024
411.82243
414.00841
416.7008
420.70398
)
;

boundaryField
{
    maxY
    {
        type            zeroGradient;
    }
    minX
    {
        type            fixedValue;
        value           uniform 300;
    }
    maxX
    {
        type            inletOutlet;
        inletValue      uniform 300;
        value           nonuniform List<scalar> 
40
(
484.54632
448.31283
432.24582
421.68815
450.90472
378.62371
401.70856
415.11193
436.46209
395.36666
414.53608
430.35477
493.09473
419.98889
427.34179
439.72039
536.93699
491.54722
458.92154
447.05867
534.79212
481.52984
448.78024
441.59266
490.39162
415.07358
421.44581
436.78805
433.44254
392.06584
410.93783
427.02085
448.96775
376.19619
399.79891
413.65176
482.79864
446.54866
430.91782
420.75598
)
;
    }
    minZ
    {
        type            zeroGradient;
    }
    maxZ
    {
        type            zeroGradient;
    }
    topAir_to_rightSolid
    {
        type            compressible::turbulentTemperatureCoupledBaffleMixed;
        refValue        nonuniform List<scalar> 
130
(
753.11044
761.18809
769.60793
777.93604
785.83844
793.09182
799.55699
805.15476
809.83321
813.57607
816.38196
818.25281
819.19073
747.16937
756.59146
766.19458
775.47842
784.10419
791.88634
798.7261
804.58252
809.43981
813.30503
816.19629
818.12118
819.08405
735.36561
747.86352
759.98649
771.16577
781.15575
789.89184
797.38517
803.68152
808.8362
812.90338
815.92465
817.92648
818.92572
717.82571
736.10913
752.27727
766.15145
777.90346
787.78276
796.01661
802.79362
808.26293
812.53407
815.68369
817.76192
818.79717
697.11044
725.00212
745.99873
762.45053
775.6648
786.40799
795.16224
802.25658
807.92246
812.31702
815.54416
817.66838
818.72486
697.2572
725.15481
746.14067
762.57227
775.76775
786.48817
795.22316
802.30282
807.95429
812.33311
815.5487
817.66624
818.7201
718.15225
736.44169
752.58401
766.41113
778.12081
787.96367
796.16204
802.90558
808.34164
812.58053
815.7042
817.76564
818.796
735.80238
748.26844
760.33864
771.46362
781.41131
790.10864
797.56281
803.81824
808.93598
812.97376
815.97822
817.97503
818.97664
747.62088
756.99917
766.53546
775.74755
784.32203
792.06367
798.86734
804.6885
809.5244
813.38521
816.27794
818.20442
819.16989
753.50082
761.53782
769.897
778.15827
786.00523
793.2159
799.64701
805.21659
809.88746
813.6407
816.46177
818.34561
819.28955
)
;
        refGradient     uniform 0;
        valueFraction   uniform 0.99967867;
        value           nonuniform List<scalar> 
130
(
753.02741
761.10016
769.5153
777.83912
785.73777
792.98799
799.45063
805.04645
809.72358
813.46576
816.27163
818.14331
819.0832
747.06987
756.4872
766.0862
775.36647
783.98916
791.76873
798.60641
804.46128
809.31757
813.18237
816.07387
817.99997
818.96575
735.27365
747.76483
759.88152
771.05515
781.04024
789.77229
797.26251
803.55666
808.70999
812.77658
815.79799
817.80094
818.80282
717.75712
736.03493
752.19769
766.06666
777.81362
787.68811
795.91748
802.69046
808.15643
812.42535
815.57449
817.65423
818.69251
697.04988
724.93385
745.92502
762.37279
775.58387
786.32437
795.07622
802.16834
807.8322
812.22511
815.45135
817.57584
818.63432
697.19604
725.08594
746.06637
762.4939
775.68617
786.40387
795.13645
802.21387
807.8633
812.24048
815.45517
817.57301
818.62886
718.08269
736.36634
752.50314
766.32496
778.02956
787.86763
796.06157
802.80115
808.23391
812.4706
815.59378
817.65702
818.69047
735.70994
748.16919
760.23309
771.35248
781.29535
789.98869
797.43975
803.69292
808.8092
812.84629
815.85077
817.84859
818.85276
747.52131
756.89476
766.42687
775.63537
784.20678
791.94586
798.74747
804.56707
809.40192
813.26222
816.1551
818.08269
819.05093
753.41768
761.44974
769.80419
778.06116
785.90437
793.11187
799.54043
805.10806
809.77756
813.53005
816.35103
818.23562
819.18142
)
;
        Tnbr            T;
        thicknessLayers List<scalar> 0();
        kappaLayers     List<scalar> 0();
        kappaMethod     fluidThermo;
        kappa           none;
        alphaAni        none;
        alpha           none;
        field           T;
    }
    topAir_to_heater
    {
        type            compressible::turbulentTemperatureCoupledBaffleMixed;
        refValue        nonuniform List<scalar> 
40
(
733.89042
735.93038
740.01786
745.88537
724.44419
726.84074
731.65162
738.60802
704.63341
707.77615
714.151
723.59073
672.46646
676.48561
685.07402
698.92866
625.52435
629.1754
638.68512
657.85101
625.55817
629.21804
638.74939
657.9511
672.60295
676.62652
685.2665
699.19878
704.77104
708.00257
714.4823
724.00609
724.55909
727.09848
732.03562
739.05744
733.99305
736.16577
740.35749
746.27702
)
;
        refGradient     uniform 0;
        valueFraction   uniform 0.99967867;
        value           nonuniform List<scalar> 
40
(
733.82089
735.85926
739.9437
745.80708
724.36589
726.75788
731.56321
738.51388
704.56479
707.70308
714.07226
723.5056
672.41288
676.42972
685.01514
698.86567
625.48517
629.13448
638.64159
657.80201
625.51906
629.17683
638.70522
657.9015
672.54961
676.57059
685.2072
699.13504
704.70268
707.92967
714.4035
723.92064
724.48093
727.0158
731.94735
738.96335
733.92349
736.0946
740.28327
746.19865
)
;
        Tnbr            T;
        thicknessLayers List<scalar> 0();
        kappaLayers     List<scalar> 0();
        kappaMethod     fluidThermo;
        kappa           none;
        alphaAni        none;
        alpha           none;
        field           T;
    }
    topAir_to_leftSolid
    {
        type            compressible::turbulentTemperatureCoupledBaffleMixed;
        refValue        nonuniform List<scalar> 
130
(
919.57021
919.52646
919.42808
919.29092
919.11643
918.90427
918.66602
918.39659
918.11257
917.84537
917.60736
917.43586
917.34094
919.58144
919.53612
919.43571
919.28435
919.10021
918.87013
918.60987
918.33638
918.05619
917.77332
917.52694
917.3402
917.23204
919.61411
919.56878
919.46962
919.31168
919.10892
918.85147
918.57352
918.28931
918.00205
917.72022
917.45978
917.24789
917.11394
919.6826
919.64138
919.54814
919.39657
919.1866
918.91649
918.61517
918.30526
917.99445
917.6877
917.39437
917.13696
916.95007
919.73205
919.69157
919.6025
919.45805
919.25401
918.98949
918.66646
918.32251
917.97848
917.62934
917.28908
916.99647
916.78122
919.74547
919.705
919.61576
919.47
919.26126
918.98812
918.65597
918.30237
917.92906
917.53302
917.13206
916.79914
916.56156
919.72881
919.68736
919.59486
919.44127
919.2173
918.91491
918.58386
918.21817
917.81391
917.37488
916.92186
916.54581
916.33678
919.69457
919.65164
919.55457
919.39136
919.14977
918.84155
918.50302
918.12757
917.71805
917.26871
916.79195
916.42818
916.2374
919.65463
919.61056
919.51027
919.33939
919.1048
918.81989
918.48335
918.08678
917.67294
917.22877
916.75915
916.38955
916.19769
919.6308
919.58387
919.48413
919.31693
919.08518
918.79774
918.45167
918.07647
917.67308
917.23906
916.78201
916.40083
916.20405
)
;
        refGradient     uniform 0;
        valueFraction   uniform 0.99967867;
        value           nonuniform List<scalar> 
130
(
919.37922
919.34297
919.25139
919.12053
918.95199
918.74554
918.51278
918.24859
917.96943
917.70669
917.47271
917.30472
917.21258
919.39045
919.35254
919.25878
919.11348
918.93497
918.71018
918.45486
918.18595
917.9099
917.63059
917.38705
917.2022
917.09471
919.4231
919.3852
919.29271
919.14086
918.94378
918.69166
918.41874
918.13924
917.85634
917.57847
917.32143
917.11216
916.97962
919.49157
919.45778
919.37122
919.22577
919.02151
918.75681
918.46063
918.15561
917.84945
917.54708
917.25776
917.00376
916.81927
919.54101
919.50797
919.42557
919.28724
919.08892
918.82982
918.51195
918.17292
917.83356
917.48881
917.1525
916.86312
916.64997
919.55442
919.52139
919.43882
919.29919
919.09617
918.82845
918.50146
918.15279
917.78416
917.39255
916.99562
916.66604
916.43067
919.53776
919.50375
919.41793
919.27045
919.05221
918.75524
918.42933
918.06856
917.66898
917.23439
916.78547
916.41297
916.20649
919.50354
919.46804
919.37763
919.22052
918.98462
918.68175
918.34826
917.97756
917.57245
917.12713
916.65386
916.29281
916.10357
919.46362
919.42696
919.33332
919.16851
918.93957
918.65997
918.32839
917.93643
917.52677
917.08623
916.61953
916.25189
916.06077
919.43979
919.40036
919.30742
919.14653
918.92075
918.63905
918.29851
917.92857
917.53007
917.10057
916.64761
916.26999
916.07603
)
;
        Tnbr            T;
        thicknessLayers List<scalar> 0();
        kappaLayers     List<scalar> 0();
        kappaMethod     fluidThermo;
        kappa           none;
        alphaAni        none;
        alpha           none;
        field           T;
    }
}


// ************************************************************************* //
