/*--------------------------------*- C++ -*----------------------------------*\
| =========                 |                                                 |
| \\      /  F ield         | OpenFOAM: The Open Source CFD Toolbox           |
|  \\    /   O peration     | Version:  v2012                                 |
|   \\  /    A nd           | Website:  www.openfoam.com                      |
|    \\/     M anipulation  |                                                 |
\*---------------------------------------------------------------------------*/
FoamFile
{
    version     2.0;
    format      ascii;
    class       volVectorField;
    location    "590/topAir";
    object      U;
}
// * * * * * * * * * * * * * * * * * * * * * * * * * * * * * * * * * * * * * //

dimensions      [0 1 -1 0 0 0 0];


internalField   nonuniform List<vector> 
1200
(
(0.10463788 -0.0024661933 0.00087646792)
(0.11844297 -0.0025419657 0.0013148062)
(0.13029727 -0.0023181598 0.0013927801)
(0.13954972 -0.0017556993 0.0012504879)
(0.14763066 -0.00091850725 0.00090144171)
(0.15518543 1.9945638e-05 0.00030474785)
(0.1624778 0.00095634464 -0.00057137439)
(0.16977202 0.0018229769 -0.0018836298)
(0.17726531 0.0027187128 -0.0039031447)
(0.18526638 0.0038325206 -0.0069492308)
(0.19394138 0.0054939516 -0.011428023)
(0.20297201 0.0080660512 -0.01774941)
(0.21086636 0.011930774 -0.026160847)
(0.21606176 0.016493631 -0.036468122)
(0.21857864 0.021618263 -0.047833161)
(0.21893487 0.026604273 -0.059030459)
(0.21727731 0.030869078 -0.068907041)
(0.21379073 0.034108678 -0.076774791)
(0.20902199 0.036194841 -0.082462428)
(0.2038538 0.037114038 -0.086148318)
(0.1992212 0.037020926 -0.088158324)
(0.19579211 0.036190746 -0.088830377)
(0.19384325 0.034898127 -0.088449487)
(0.19332905 0.033359948 -0.087233378)
(0.19399289 0.031752644 -0.085318238)
(0.19535829 0.030299929 -0.082698147)
(0.19650042 0.029388545 -0.079135151)
(0.1955795 0.029805037 -0.074066862)
(0.18918067 0.03346561 -0.066517896)
(0.15143505 0.046308796 -0.054521385)
(0.098690066 -0.0039018914 0.00084813639)
(0.098465682 -0.0047146755 0.0012793198)
(0.098901641 -0.0047604681 0.0014595432)
(0.099803665 -0.0042878948 0.001540228)
(0.10125105 -0.0034890189 0.0015481)
(0.10327447 -0.0026146656 0.0014679798)
(0.10585391 -0.0018323825 0.0012745334)
(0.10914444 -0.0012073752 0.0009097931)
(0.11365012 -0.00041550837 0.00024818033)
(0.11987579 0.00092447032 -0.00088401596)
(0.12877654 0.0036384052 -0.0027926378)
(0.1406669 0.0087211368 -0.0058465092)
(0.15529882 0.016969945 -0.010534735)
(0.17087902 0.027377657 -0.016947238)
(0.18529126 0.03941385 -0.024619337)
(0.19672376 0.051820962 -0.03262349)
(0.20399731 0.063491501 -0.04007549)
(0.20682662 0.073443309 -0.046485721)
(0.20592404 0.080866843 -0.05169554)
(0.20273423 0.085316006 -0.055694045)
(0.19884144 0.087005663 -0.058497113)
(0.1953625 0.086623805 -0.060121154)
(0.19280745 0.084902044 -0.060644891)
(0.19128569 0.082378806 -0.06020171)
(0.19071819 0.079379137 -0.058892428)
(0.19086579 0.076258908 -0.056636974)
(0.1911421 0.073700388 -0.053047664)
(0.19036655 0.073176482 -0.047278083)
(0.1872903 0.077959269 -0.03743348)
(0.16347039 0.093232679 -0.018726196)
(0.098817845 -0.0029199679 0.00087517903)
(0.097964165 -0.0042254239 0.0013274486)
(0.096324189 -0.0046329968 0.0015289485)
(0.094268853 -0.0047223193 0.0016500897)
(0.092263537 -0.0046844339 0.0017431392)
(0.09048844 -0.0046073485 0.001820147)
(0.08892946 -0.0045963475 0.0018989629)
(0.08751732 -0.0046995602 0.0020213467)
(0.086302447 -0.0047419078 0.0022553554)
(0.085597748 -0.0046253134 0.0026363972)
(0.085940849 -0.0041009171 0.0031130265)
(0.089407777 -0.0017346785 0.0032866745)
(0.099141979 0.0052804633 0.002525197)
(0.11491897 0.018168796 0.00061548855)
(0.13366018 0.035187537 -0.0022079568)
(0.15177416 0.053470459 -0.0051825946)
(0.16631053 0.070308065 -0.0077701079)
(0.1760441 0.084432705 -0.0097759412)
(0.18136734 0.095186732 -0.011446925)
(0.18367464 0.10230108 -0.013087159)
(0.18451204 0.10588979 -0.01481013)
(0.18482777 0.10643815 -0.016301488)
(0.18491353 0.10464435 -0.01720583)
(0.18473259 0.10116589 -0.017448072)
(0.18422295 0.09649212 -0.017067562)
(0.18337555 0.091036602 -0.015956994)
(0.18209593 0.08548512 -0.01383058)
(0.18018273 0.081367689 -0.010161679)
(0.17823887 0.08225633 -0.0040956703)
(0.16748736 0.094326021 0.0076808993)
(0.096861148 -0.0015572802 0.000840656)
(0.094641636 -0.0022999108 0.0012546594)
(0.090921878 -0.0025257055 0.0014172738)
(0.086367754 -0.0025567668 0.0014974357)
(0.081798185 -0.0024954094 0.0015511874)
(0.077456436 -0.0023732558 0.001594629)
(0.073303508 -0.0022309592 0.001651604)
(0.069239993 -0.0021075741 0.0017674562)
(0.06513673 -0.0020405259 0.002017234)
(0.060786507 -0.002201414 0.0025080452)
(0.055787923 -0.0030922655 0.0034634173)
(0.049733598 -0.0048089799 0.005303218)
(0.04210178 -0.0056536478 0.0086615276)
(0.037366543 0.00011409494 0.013518174)
(0.043802953 0.015203816 0.019230856)
(0.058760494 0.032742316 0.025356667)
(0.074888028 0.047918539 0.031209658)
(0.089166469 0.060358145 0.036513963)
(0.10134246 0.069989313 0.040813579)
(0.11209015 0.076709658 0.043762298)
(0.12189764 0.080453002 0.045529406)
(0.13075516 0.08136931 0.046316501)
(0.1383271 0.07992301 0.046332925)
(0.144217 0.076687189 0.045811943)
(0.14821018 0.072202622 0.044975563)
(0.15041909 0.066915899 0.044055748)
(0.15131056 0.061439388 0.043238761)
(0.15206241 0.056950202 0.042280909)
(0.15676285 0.056118938 0.040386945)
(0.1843735 0.064570486 0.03887589)
(0.10589977 -0.0024672719 0.0010032453)
(0.12055886 -0.002553318 0.0013992088)
(0.13366245 -0.0024199676 0.0013949682)
(0.14425008 -0.0020444623 0.0011592756)
(0.15347242 -0.0014969058 0.00071039071)
(0.16191038 -0.00095890504 4.6465166e-06)
(0.16958447 -0.00057699107 -0.0010187401)
(0.17641228 -0.00042224212 -0.0025260787)
(0.18236756 -0.00056186808 -0.0047725889)
(0.18743181 -0.0010745847 -0.0080485477)
(0.19154385 -0.0020919749 -0.012693521)
(0.1946141 -0.0037640666 -0.018960561)
(0.19606455 -0.0062432865 -0.02679228)
(0.1956414 -0.010213026 -0.035438125)
(0.19501507 -0.01483587 -0.043673992)
(0.19542958 -0.019132614 -0.050536363)
(0.19660646 -0.022098589 -0.055849641)
(0.19752921 -0.023414284 -0.059926096)
(0.19745143 -0.023566639 -0.063024026)
(0.19634637 -0.02333848 -0.065219214)
(0.19475699 -0.023202711 -0.066567588)
(0.19333374 -0.023208928 -0.067137179)
(0.19250482 -0.023274131 -0.066984177)
(0.19243475 -0.023346999 -0.066157025)
(0.19317825 -0.023404062 -0.064680209)
(0.19479476 -0.023314511 -0.062488848)
(0.19727 -0.022699421 -0.059268322)
(0.20041566 -0.020546195 -0.05434384)
(0.20383098 -0.013502953 -0.046749881)
(0.19983206 0.0087767959 -0.036735496)
(0.099978842 -0.0039133311 0.0010571269)
(0.10069336 -0.0047619638 0.0016038147)
(0.10250974 -0.0049464804 0.0018022127)
(0.10496357 -0.0047319294 0.0018464693)
(0.10787089 -0.0043137009 0.0017776609)
(0.1111715 -0.0039439005 0.001572226)
(0.11477449 -0.0038192707 0.0011848335)
(0.1186007 -0.0040553743 0.00053946452)
(0.12264247 -0.0047772787 -0.0004842009)
(0.12687549 -0.0061709879 -0.0020374332)
(0.1313237 -0.0084926566 -0.0042719768)
(0.13608776 -0.012032572 -0.0073366891)
(0.14133468 -0.017121046 -0.011243087)
(0.14701177 -0.024381003 -0.015374369)
(0.15301807 -0.032179205 -0.018713274)
(0.15899856 -0.038214895 -0.020654955)
(0.16433583 -0.040556492 -0.021498588)
(0.16807653 -0.039055682 -0.02235024)
(0.16968672 -0.035267028 -0.02387099)
(0.16950757 -0.03119232 -0.026011249)
(0.16848468 -0.027993556 -0.028328353)
(0.16741916 -0.025694439 -0.030362724)
(0.16655427 -0.02398905 -0.031696078)
(0.16588881 -0.022807395 -0.031990696)
(0.16559342 -0.022386226 -0.030955793)
(0.16620965 -0.022908921 -0.028289917)
(0.16876854 -0.02439164 -0.023453089)
(0.17553726 -0.026362335 -0.015527323)
(0.1924504 -0.027380199 -0.0030176558)
(0.25297906 -0.021365177 0.011938362)
(0.10011732 -0.0029480537 0.0010776221)
(0.10021815 -0.0042783408 0.0016513968)
(0.1000238 -0.00472917 0.0018974875)
(0.099671974 -0.004895864 0.0020187741)
(0.099376178 -0.0049739658 0.0020744385)
(0.099251904 -0.005050997 0.0020641257)
(0.099312987 -0.0052151039 0.001983785)
(0.099538758 -0.0055659371 0.0018428999)
(0.099916965 -0.0062411519 0.0016635027)
(0.10048879 -0.0075008336 0.0014265011)
(0.10136818 -0.0096912834 0.00099265792)
(0.10274429 -0.013316146 0.00014402267)
(0.10485781 -0.019116673 -0.0010337063)
(0.10772668 -0.027636407 -0.0016831879)
(0.11120586 -0.036767362 -0.0003690099)
(0.11498139 -0.043055845 0.0045196295)
(0.12016173 -0.043313267 0.013092581)
(0.12559639 -0.038503326 0.021548572)
(0.12984531 -0.031759843 0.027749557)
(0.13238091 -0.026375213 0.030944933)
(0.13331254 -0.022649227 0.032743147)
(0.1341259 -0.020137225 0.034562326)
(0.13574726 -0.018907333 0.036565396)
(0.13800727 -0.01871593 0.038879768)
(0.14003594 -0.0198312 0.040849223)
(0.14096887 -0.022062761 0.042324799)
(0.14142946 -0.025346619 0.043320807)
(0.14268669 -0.030449896 0.044017921)
(0.15028183 -0.03789247 0.046504341)
(0.18306303 -0.047483109 0.042696103)
(0.098104439 -0.0015841963 0.0010526321)
(0.096781339 -0.0023562064 0.0016075994)
(0.094435677 -0.002615017 0.0018394829)
(0.091505618 -0.0026919327 0.0019431942)
(0.088565312 -0.0026925993 0.001977474)
(0.085805349 -0.0026511368 0.0019454848)
(0.083224471 -0.0026108842 0.0018484886)
(0.080789846 -0.0026287319 0.0016991338)
(0.078450118 -0.0027868163 0.0015249918)
(0.076167402 -0.0032366164 0.001366851)
(0.073865281 -0.0042523988 0.0012626677)
(0.071327397 -0.0063451273 0.0012626677)
(0.068198996 -0.010302173 0.0012191022)
(0.064100986 -0.016458201 0.00094496173)
(0.058998258 -0.021629286 0.0031211067)
(0.054926356 -0.020538567 0.014789866)
(0.056878491 -0.011123721 0.040605712)
(0.05953647 0.0029044416 0.064969782)
(0.062903923 0.016772917 0.083249728)
(0.068373249 0.027592992 0.095873561)
(0.076377045 0.034310763 0.10332616)
(0.085200993 0.036710509 0.1066056)
(0.093113638 0.03598517 0.1073808)
(0.09949151 0.033245738 0.10631685)
(0.1040586 0.029218722 0.1034712)
(0.10719627 0.023628741 0.098045894)
(0.1086902 0.016989947 0.09034272)
(0.10879977 0.0090699671 0.080631374)
(0.11570847 -0.00013856086 0.070295045)
(0.14251836 -0.0093406912 0.035892305)
(0.10577407 -0.0024881267 0.00035022578)
(0.12023303 -0.0025723828 0.00057449241)
(0.13324406 -0.0024125577 0.0006631787)
(0.14384793 -0.0019888009 0.00065796675)
(0.15313128 -0.0013820375 0.00058305924)
(0.16158772 -0.0007825582 0.00043912253)
(0.16923798 -0.00030203224 0.00019382211)
(0.17606998 2.7191171e-05 -0.00017309538)
(0.18209761 0.0001763364 -0.00068073861)
(0.187303 9.5445638e-05 -0.0013478863)
(0.19164133 -0.00030508471 -0.0021796304)
(0.19504667 -0.0011828313 -0.0031158504)
(0.1969408 -0.0027839163 -0.0039229135)
(0.19708719 -0.005880361 -0.0041500062)
(0.19698844 -0.0094094866 -0.0034595721)
(0.19707279 -0.012715265 -0.0022939523)
(0.19644148 -0.015847227 -0.001689033)
(0.19453737 -0.019118232 -0.0023728231)
(0.19159176 -0.022515282 -0.0043382424)
(0.18809669 -0.025976705 -0.0071229301)
(0.18454518 -0.029449336 -0.010189012)
(0.18138529 -0.03273809 -0.01305267)
(0.17883904 -0.035550015 -0.015347967)
(0.17683101 -0.037668433 -0.016883498)
(0.17518831 -0.039098213 -0.017547326)
(0.17392361 -0.040158063 -0.017125357)
(0.17362332 -0.041278378 -0.015389539)
(0.17597841 -0.042178713 -0.013246731)
(0.1828744 -0.038887648 -0.014500258)
(0.19444745 -0.02276127 -0.020810119)
(0.099856088 -0.0039266656 0.00034526038)
(0.10033738 -0.0047631882 0.00058737678)
(0.10202367 -0.0049054731 0.00069418257)
(0.10446052 -0.004621987 0.00070057183)
(0.10738084 -0.0041183317 0.00061887348)
(0.1106624 -0.0036505529 0.00043115181)
(0.11418613 -0.0033647884 0.00010213858)
(0.11786146 -0.003321855 -0.00041359711)
(0.12163976 -0.0036104444 -0.001164278)
(0.12551536 -0.0043682572 -0.0022316028)
(0.12954935 -0.0058568148 -0.0036736275)
(0.13392134 -0.0085239419 -0.0054674717)
(0.13897863 -0.012999185 -0.0073605839)
(0.14467923 -0.019678446 -0.0087536082)
(0.1503589 -0.025565017 -0.0096070522)
(0.15465443 -0.029071144 -0.011280422)
(0.15634976 -0.03104045 -0.015062208)
(0.15555287 -0.032945071 -0.020713192)
(0.15330613 -0.034730928 -0.027271666)
(0.15025005 -0.036409264 -0.033679894)
(0.14666791 -0.038242795 -0.03905856)
(0.14280087 -0.040198765 -0.04285799)
(0.1387181 -0.041954968 -0.044842537)
(0.13421969 -0.043283816 -0.045032561)
(0.12915476 -0.044424748 -0.043274911)
(0.12362996 -0.046437738 -0.03888128)
(0.11928666 -0.050620502 -0.031249108)
(0.12162588 -0.056954603 -0.023734207)
(0.13778801 -0.057501578 -0.030321378)
(0.18886235 -0.040519094 -0.053299604)
(0.099999011 -0.0029434239 0.00034986821)
(0.09987774 -0.0042675047 0.00059848621)
(0.099560374 -0.0046982406 0.00072010827)
(0.099201397 -0.0048328279 0.00074595749)
(0.098942994 -0.0048665221 0.00068542575)
(0.098850836 -0.004879694 0.00051882812)
(0.098912982 -0.0049436842 0.00020881225)
(0.099085855 -0.0051394791 -0.00029882038)
(0.099346742 -0.0055964248 -0.001075718)
(0.099677585 -0.0065191351 -0.0022097784)
(0.1000622 -0.0083226617 -0.0038275828)
(0.10059173 -0.011769993 -0.0060433352)
(0.10160131 -0.018062249 -0.0087223926)
(0.10295545 -0.026856102 -0.011128605)
(0.10372024 -0.032688211 -0.012802513)
(0.10243999 -0.033370639 -0.015307361)
(0.098157358 -0.031251042 -0.01974869)
(0.092918307 -0.030324693 -0.023621948)
(0.088365478 -0.030320236 -0.028174412)
(0.083858808 -0.031324441 -0.033492946)
(0.078374806 -0.033475622 -0.037740946)
(0.072159497 -0.03625006 -0.039538186)
(0.06593188 -0.038895856 -0.038635589)
(0.059897352 -0.041133151 -0.035295352)
(0.054835289 -0.043356665 -0.028536298)
(0.051473844 -0.046969167 -0.016861559)
(0.051037829 -0.053540674 -0.0023883535)
(0.058182805 -0.064153769 0.0045737864)
(0.068204718 -0.07019589 -0.022857074)
(0.098011972 -0.060239622 -0.073743236)
(0.097988636 -0.0015793685 0.00034084809)
(0.096447217 -0.0023463275 0.00057828234)
(0.09398054 -0.0025969966 0.00069018872)
(0.09104225 -0.0026636928 0.00070721766)
(0.088136419 -0.0026514794 0.00063843317)
(0.085402099 -0.0025923696 0.00046327681)
(0.082809261 -0.0025266156 0.00014051823)
(0.08029481 -0.0025060591 -0.00039315168)
(0.077801276 -0.0026062979 -0.0012295309)
(0.075189838 -0.0029613757 -0.0024999055)
(0.072156904 -0.0038838088 -0.0044891199)
(0.068148121 -0.0061158637 -0.0077372867)
(0.062211531 -0.011433434 -0.013371942)
(0.052072097 -0.019941257 -0.022726559)
(0.036475551 -0.02205702 -0.032967939)
(0.021203167 -0.016050174 -0.037300929)
(0.0099480268 -0.0089555167 -0.0281598)
(0.021187974 -0.0063156175 0.011985987)
(0.023360697 0.0023146155 0.045887496)
(0.028407971 0.010903996 0.066507635)
(0.03546387 0.016676721 0.077892618)
(0.042693802 0.019069012 0.083338935)
(0.048700473 0.018680327 0.085034876)
(0.052502628 0.016022943 0.083889882)
(0.053004176 0.011139649 0.080126022)
(0.049656187 0.0033695943 0.073530979)
(0.042976844 -0.0077875906 0.063136132)
(0.037862365 -0.024070016 0.044162352)
(0.017005516 -0.032775188 -0.020701188)
(0.013597358 -0.0092855751 -0.11218159)
(0.10574486 -0.0024894337 0.00018390606)
(0.12012539 -0.0025684392 0.00033162007)
(0.13305025 -0.0023934899 0.00041884141)
(0.14358776 -0.0019385304 0.00044652)
(0.15283318 -0.0012743423 0.00042022714)
(0.16129525 -0.00057795673 0.00034047074)
(0.16902674 5.195143e-05 0.00020739175)
(0.17602721 0.00059078713 2.4763227e-05)
(0.1823656 0.0010464067 -0.00021354422)
(0.18814783 0.00140626 -0.00049573795)
(0.19351565 0.0016172773 -0.00076299938)
(0.19872228 0.0015556109 -0.00083560201)
(0.20363262 0.001083704 -0.00025246783)
(0.20831316 0.00017520142 0.0016980456)
(0.2137048 0.00057699711 0.0050354859)
(0.21910737 0.0018499403 0.009102726)
(0.22325026 0.0029714683 0.013430731)
(0.22584114 0.0034072553 0.017978022)
(0.22729653 0.0029909277 0.022856819)
(0.22793319 0.0017106391 0.028115789)
(0.22795506 -0.00027328595 0.033731571)
(0.22748187 -0.0027136263 0.03960747)
(0.22644579 -0.005399895 0.04550565)
(0.22473338 -0.0082116064 0.050981998)
(0.22251786 -0.010933013 0.055447638)
(0.22031023 -0.012862122 0.058303452)
(0.21844464 -0.012656781 0.058917679)
(0.21603456 -0.0088770277 0.056416038)
(0.20869293 0.00066569944 0.047807091)
(0.15389228 0.027961419 0.027150383)
(0.099825542 -0.0039281602 0.00018282041)
(0.10020574 -0.0047578389 0.0003393479)
(0.10175984 -0.004878267 0.00043134488)
(0.1040692 -0.0045494758 0.00045313827)
(0.10686651 -0.0039638525 0.00040588219)
(0.11001797 -0.0033595134 0.00028219148)
(0.1133936 -0.0028637264 6.586838e-05)
(0.11690061 -0.0025221671 -0.00026575779)
(0.12051326 -0.0023754302 -0.00074823198)
(0.12428605 -0.0025507584 -0.0014055557)
(0.12842452 -0.0033483194 -0.0022116623)
(0.13342128 -0.0053489316 -0.0029822987)
(0.1400768 -0.0091273038 -0.0031594399)
(0.14855501 -0.012649277 -0.0018608352)
(0.15766541 -0.01140789 7.4612642e-05)
(0.16492838 -0.0077800298 0.0011190076)
(0.16954037 -0.0048701278 0.00071918162)
(0.17197919 -0.0039593676 -0.00090289529)
(0.17284083 -0.0050341826 -0.0034834599)
(0.17245964 -0.0074518192 -0.0066880386)
(0.17116274 -0.01053195 -0.0099253704)
(0.16907955 -0.013683777 -0.012395392)
(0.16605822 -0.01657131 -0.013470891)
(0.16177742 -0.019325414 -0.01300109)
(0.15652467 -0.0222639 -0.011323859)
(0.15168858 -0.02485343 -0.0097926283)
(0.15061502 -0.02422899 -0.0115165)
(0.15578054 -0.015385458 -0.018701517)
(0.17015171 0.0061902769 -0.032049038)
(0.17994822 0.043495516 -0.049209633)
(0.09996959 -0.0029408451 0.00018368944)
(0.099749917 -0.0042618401 0.00034061333)
(0.099296938 -0.0046834316 0.00043576675)
(0.098796671 -0.0047995894 0.00046024623)
(0.098389407 -0.0048016421 0.00041056629)
(0.098123032 -0.0047626906 0.0002734424)
(0.097964378 -0.0047451065 2.3604715e-05)
(0.097852398 -0.0048184138 -0.0003770719)
(0.097730321 -0.0051041422 -0.00098731672)
(0.097553315 -0.0058600449 -0.0018954075)
(0.097365028 -0.0076597037 -0.0031802798)
(0.097582027 -0.011704744 -0.0047995175)
(0.098981671 -0.019800573 -0.0061619743)
(0.10109844 -0.026701564 -0.0056076728)
(0.10486951 -0.023939171 -0.0031678252)
(0.10562043 -0.018082576 -0.0014787075)
(0.1013121 -0.013083985 -0.0027387221)
(0.094303116 -0.010610841 -0.0065779593)
(0.085992717 -0.011827499 -0.012134279)
(0.07762926 -0.015507081 -0.018049415)
(0.06934228 -0.020117872 -0.022471882)
(0.060939794 -0.02448673 -0.023557974)
(0.052761137 -0.027917601 -0.020726259)
(0.044720906 -0.030656231 -0.015073964)
(0.038038857 -0.033883155 -0.0087736384)
(0.034330785 -0.038108913 -0.0076242956)
(0.040735187 -0.037546298 -0.019990119)
(0.059773801 -0.026697395 -0.038804554)
(0.083478408 -0.0076396719 -0.059532857)
(0.094616716 0.024709237 -0.083493029)
(0.097959771 -0.0015810624 0.00017867643)
(0.096322463 -0.0023501647 0.00032859638)
(0.093722815 -0.0026006021 0.00041641058)
(0.09064353 -0.0026634304 0.00043283983)
(0.087585619 -0.0026424509 0.00037311923)
(0.084664683 -0.0025673491 0.00022154547)
(0.081815567 -0.002476845 -5.3113225e-05)
(0.078933896 -0.0024243104 -0.00050655241)
(0.075861319 -0.0024965906 -0.0012373351)
(0.072288364 -0.0028818954 -0.0024416531)
(0.067601164 -0.0040645225 -0.0044591074)
(0.060497358 -0.0074192271 -0.0079760791)
(0.049207194 -0.016405606 -0.014531662)
(0.027147701 -0.022918726 -0.025241023)
(-0.0012547876 -0.009290385 -0.030912138)
(-0.022971741 0.0029282187 -0.025314863)
(-0.037312528 0.0044525136 -0.017641106)
(-0.04137979 0.0026634061 -0.0053079635)
(-0.031341148 0.00032348061 0.015605136)
(-0.023167993 0.00093338122 0.031556789)
(-0.014051952 0.001463856 0.040924449)
(-0.0065471751 0.00080659484 0.045637978)
(-0.0015318006 -0.0010647506 0.047419867)
(0.00031717652 -0.0044442434 0.047345183)
(-0.0019350344 -0.01104469 0.04479968)
(-0.014243149 -0.021553182 0.028297663)
(-0.028853821 -0.024105511 -0.010590636)
(-0.031147847 -0.0059941283 -0.05262761)
(-0.020959813 0.016308604 -0.078031685)
(0.0057169528 0.044536668 -0.10456862)
(0.10572814 -0.0024933361 4.2837721e-05)
(0.12006644 -0.0025751233 7.6325817e-05)
(0.13293979 -0.0024016908 9.1947566e-05)
(0.14342887 -0.0019463067 8.8900091e-05)
(0.15263082 -0.0012790605 6.8813154e-05)
(0.16104902 -0.00057774878 3.1865157e-05)
(0.16872982 5.7098343e-05 -2.4274117e-05)
(0.17567488 0.00060225603 -0.00010390788)
(0.18194325 0.0010481859 -0.00020781228)
(0.18764325 0.0013622229 -0.00034323158)
(0.19297791 0.0014531467 -0.00050688885)
(0.19840808 0.0011525846 -0.00066142092)
(0.20417916 0.00051793293 -0.00068528785)
(0.21052669 0.00035604351 -0.00039333112)
(0.21738108 0.0013630124 0.00018896098)
(0.22386797 0.0026347059 0.00085277944)
(0.2291318 0.00400829 0.0015124607)
(0.23372978 0.0057640336 0.0023371824)
(0.23829517 0.0079800782 0.00353207)
(0.24324534 0.010595 0.0053226285)
(0.24871229 0.01354951 0.0080196776)
(0.25432711 0.016879921 0.011947772)
(0.25919783 0.020514047 0.017277283)
(0.26226733 0.024200477 0.023827498)
(0.262682 0.027690838 0.03101484)
(0.25966939 0.031062894 0.037782731)
(0.25181921 0.034983736 0.042595813)
(0.23626807 0.040625004 0.04363155)
(0.2094883 0.050035541 0.038383837)
(0.11945828 0.071277968 0.024485285)
(0.099806955 -0.0039324945 4.0884533e-05)
(0.10013229 -0.0047650098 7.489225e-05)
(0.10161215 -0.0048856726 8.9647504e-05)
(0.10384499 -0.0045535604 8.2130133e-05)
(0.10656392 -0.0039605393 5.2369751e-05)
(0.10962616 -0.0033459359 -2.1089401e-06)
(0.11289873 -0.0028396134 -8.6997124e-05)
(0.11627653 -0.0024922152 -0.0002075041)
(0.11972473 -0.0023752029 -0.00037768192)
(0.12333293 -0.0026725876 -0.00060992996)
(0.12743561 -0.0038108183 -0.00090199594)
(0.13286945 -0.0065413158 -0.0012056541)
(0.14068762 -0.01077731 -0.001369473)
(0.15098647 -0.010264802 -0.0010023945)
(0.16051653 -0.0061137411 -0.00052103177)
(0.16779446 -0.002018655 -0.00051408481)
(0.17431131 0.0011069125 -0.00091599809)
(0.18070816 0.0036159333 -0.0014402214)
(0.18719433 0.005989665 -0.0019537762)
(0.19443534 0.0086690392 -0.0024690249)
(0.20301109 0.012428203 -0.0027348578)
(0.2129452 0.018230431 -0.0022039918)
(0.22346684 0.026489699 -0.00045438817)
(0.23342581 0.0365971 0.0025856221)
(0.24169711 0.047434034 0.0066750413)
(0.24694343 0.058728535 0.010952768)
(0.24667051 0.071137932 0.013770903)
(0.23682697 0.084768117 0.01346227)
(0.2153088 0.10151228 0.0078646928)
(0.13907216 0.12737771 -0.0065006128)
(0.099950811 -0.0029415153 4.0380054e-05)
(0.099675728 -0.0042638241 7.3576791e-05)
(0.099144052 -0.0046852873 8.7898949e-05)
(0.098555957 -0.0047993574 7.9263293e-05)
(0.098050348 -0.004797928 4.5943331e-05)
(0.097663643 -0.0047548861 -1.6785683e-05)
(0.09734941 -0.004733868 -0.00011699757)
(0.097016432 -0.0048191475 -0.00026706529)
(0.096563905 -0.0051637524 -0.00049252896)
(0.095918132 -0.0061174279 -0.00082909832)
(0.095197135 -0.0084978755 -0.0013217948)
(0.095393084 -0.014081349 -0.0020247348)
(0.096787686 -0.02502446 -0.0030840602)
(0.10134242 -0.023140862 -0.0033644155)
(0.10599499 -0.016395628 -0.0022547007)
(0.10545613 -0.010170626 -0.0023137905)
(0.10250505 -0.0044867329 -0.0034028898)
(0.097680421 0.00035637145 -0.0052514616)
(0.093332289 0.0031556265 -0.0079854431)
(0.089274782 0.0034798857 -0.011510493)
(0.084200268 0.002258242 -0.014557723)
(0.081743877 0.0018046002 -0.01558958)
(0.087065401 0.0048003266 -0.013590112)
(0.10214388 0.012626221 -0.0097195062)
(0.12404339 0.025091255 -0.0055943082)
(0.14532232 0.040445719 -0.0023691236)
(0.16153729 0.05671239 -0.0018184901)
(0.16738459 0.074347381 -0.0051590982)
(0.16358538 0.096945398 -0.013063393)
(0.11801377 0.13003713 -0.025328255)
(0.097941055 -0.0015810897 3.8986229e-05)
(0.096248593 -0.0023503078 7.0067792e-05)
(0.093569534 -0.0026002109 8.189827e-05)
(0.090398615 -0.0026618375 7.0081844e-05)
(0.087233889 -0.0026394855 3.2139257e-05)
(0.084176644 -0.0025633994 -3.797588e-05)
(0.081136013 -0.0024730212 -0.00014978817)
(0.077948551 -0.0024304017 -0.00032255829)
(0.074345726 -0.0025446613 -0.00059751496)
(0.069812461 -0.00307711 -0.0010496238)
(0.06326584 -0.0047587794 -0.001830957)
(0.052244328 -0.0098970853 -0.0033427161)
(0.034571693 -0.023858133 -0.0070352718)
(-0.013252373 -0.01003736 -0.016669276)
(-0.040540903 0.0046747777 -0.014883962)
(-0.060112349 0.0067127934 -0.010504362)
(-0.074076277 0.0061337997 -0.0062337912)
(-0.0814215 0.0028917852 -0.00064358136)
(-0.082508736 -0.001917214 0.0059587396)
(-0.077407977 -0.0066840823 0.012580722)
(-0.068854172 -0.010895778 0.016948614)
(-0.060377898 -0.014675692 0.019779634)
(-0.05180835 -0.017361058 0.021561652)
(-0.041709581 -0.017314049 0.022354863)
(-0.026806022 -0.011845744 0.021384842)
(-0.0068380321 0.0033822978 0.015006416)
(0.026168015 0.033250551 0.0027543342)
(0.034236232 0.050135682 -0.0093550519)
(0.047607953 0.074095094 -0.025670273)
(0.06563415 0.10765718 -0.040345911)
(0.10572811 -0.0024933951 -6.1064201e-05)
(0.1200662 -0.0025751941 -0.0001064093)
(0.13293921 -0.0024017241 -0.00012884638)
(0.14342834 -0.001946214 -0.00012911152)
(0.15263138 -0.0012786648 -0.00010991568)
(0.16105263 -0.00057682102 -7.2166726e-05)
(0.16873915 5.9230753e-05 -1.3872436e-05)
(0.17569472 0.00060717538 6.9061773e-05)
(0.18197853 0.0010596643 0.00017487262)
(0.18769392 0.0013924683 0.00030473973)
(0.19302355 0.0015285575 0.00043547709)
(0.19834437 0.0013106155 0.00047082246)
(0.20371948 0.00067933694 0.00013735541)
(0.20934453 0.00010097314 -0.00096544578)
(0.2156708 0.00089670903 -0.0026120336)
(0.22177735 0.0021910696 -0.004272215)
(0.22674767 0.0034286662 -0.0058320442)
(0.23066408 0.0047949048 -0.0076281738)
(0.23429986 0.0063911649 -0.010067728)
(0.23835639 0.0079498703 -0.013419651)
(0.24332752 0.009455945 -0.017837682)
(0.2491077 0.011280438 -0.023363531)
(0.25479967 0.013649687 -0.029877092)
(0.25915904 0.016354101 -0.03703342)
(0.26113593 0.01924693 -0.044180779)
(0.25977126 0.022464693 -0.05026732)
(0.25365207 0.026529223 -0.053813841)
(0.24005697 0.032782169 -0.052982031)
(0.21545573 0.043544237 -0.045428867)
(0.12918695 0.066971086 -0.028827467)
(0.099806751 -0.0039325495 -5.988492e-05)
(0.10013158 -0.0047650142 -0.00010547757)
(0.10161109 -0.004885469 -0.00012421731)
(0.10384442 -0.004552843 -0.00011389784)
(0.10656548 -0.0039587057 -7.5119495e-05)
(0.10963248 -0.0033419013 -5.878808e-06)
(0.11291253 -0.002830415 9.9228657e-05)
(0.11630149 -0.0024711292 0.00024507034)
(0.11976324 -0.0023265771 0.000442589)
(0.12337228 -0.0025566881 0.00069272743)
(0.1274125 -0.0035400837 0.00095639376)
(0.13259019 -0.0059892366 0.0010834349)
(0.13993999 -0.010286135 0.00067929841)
(0.14944478 -0.011714262 -0.00083747471)
(0.15895597 -0.0081610658 -0.002316858)
(0.16610982 -0.0038663223 -0.0027176629)
(0.17160877 -0.00085862787 -0.0023531759)
(0.17670428 0.00082163894 -0.0018496804)
(0.18179836 0.001400813 -0.0015019313)
(0.18666234 0.0015226183 -0.0012681234)
(0.19197738 0.0020306388 -0.0011355711)
(0.19890099 0.00417958 -0.0015237081)
(0.2091116 0.0095442757 -0.0031888882)
(0.22017914 0.018147143 -0.006124957)
(0.230254 0.02880915 -0.0099660383)
(0.23790739 0.040590201 -0.013785648)
(0.24071742 0.053627739 -0.01592232)
(0.23511108 0.068749344 -0.014266081)
(0.21883472 0.088325308 -0.0062549302)
(0.15391625 0.11830801 0.010676006)
(0.099950624 -0.0029415034 -5.9420228e-05)
(0.099675134 -0.0042637019 -0.00010403085)
(0.099143419 -0.0046848641 -0.00012183847)
(0.098556683 -0.0047982123 -0.00010888435)
(0.098055124 -0.0047951756 -6.3055973e-05)
(0.097677683 -0.0047489788 2.1245495e-05)
(0.097381095 -0.0047208497 0.00015430837)
(0.097080021 -0.004788406 0.00035241497)
(0.096683873 -0.0050901936 0.00064625701)
(0.096124109 -0.0059366878 0.0010749497)
(0.095468201 -0.0080471744 0.0016710434)
(0.095381895 -0.012996162 0.0023940603)
(0.096755783 -0.023053487 0.0029096852)
(0.098728562 -0.0258726 0.0015741451)
(0.10372838 -0.019391307 -0.0010036781)
(0.10266525 -0.012724249 -0.00069415519)
(0.099250914 -0.007014839 0.0013699152)
(0.092735232 -0.0025444697 0.004285351)
(0.08536243 -0.00090983655 0.0077463429)
(0.075917154 -0.0027537446 0.012131401)
(0.064907203 -0.0070456221 0.016633301)
(0.054004415 -0.011196206 0.019099979)
(0.047362538 -0.012743785 0.018400725)
(0.056788341 -0.0089407834 0.015416685)
(0.079780403 0.00047237776 0.013368776)
(0.11270747 0.016578166 0.013258636)
(0.13656703 0.034180877 0.0138815)
(0.15042617 0.054189957 0.018156466)
(0.15554983 0.080042792 0.027461808)
(0.12801401 0.11609883 0.04123622)
(0.097940905 -0.0015810856 -5.7712472e-05)
(0.096248149 -0.0023502493 -9.9982911e-05)
(0.093569352 -0.0026000086 -0.00011505589)
(0.090400613 -0.0026612985 -9.8336348e-05)
(0.08724168 -0.0026381951 -4.6346722e-05)
(0.084197967 -0.0025606594 4.8880187e-05)
(0.081186512 -0.0024668071 0.00020204162)
(0.078058697 -0.0024144745 0.00044292838)
(0.074582567 -0.0025026811 0.00083350463)
(0.070321952 -0.0029599083 0.0014917693)
(0.064363962 -0.0044052373 0.0026576177)
(0.054643948 -0.0087272104 0.004890046)
(0.039302184 -0.020538161 0.0097088562)
(0.00053953449 -0.019280491 0.018430529)
(-0.039028492 0.0022982247 0.016910682)
(-0.058809472 0.0058265723 0.015163683)
(-0.07506433 0.0062818579 0.014522668)
(-0.083299702 0.0038175777 0.012173921)
(-0.085083841 -0.0007821013 0.0078448845)
(-0.076935611 -0.0061063539 0.0013203849)
(-0.06679743 -0.010730697 -0.0043994691)
(-0.057208647 -0.014983015 -0.0080951978)
(-0.049410995 -0.019743421 -0.0097681619)
(-0.042411038 -0.023627157 -0.0096657331)
(-0.034692775 -0.02343123 -0.0074460684)
(-0.029839763 -0.014721592 0.00061959289)
(0.0043449099 0.016406399 0.019255592)
(0.015703191 0.03699874 0.03408493)
(0.03451753 0.063285951 0.050489763)
(0.063152193 0.096294053 0.063514685)
(0.10574474 -0.0024896209 -0.00020060841)
(0.12012434 -0.0025685928 -0.00035943409)
(0.13304721 -0.0023934429 -0.00045353361)
(0.14358208 -0.0019381226 -0.00048562754)
(0.15282437 -0.0012735183 -0.00046298962)
(0.1612829 -0.00057685931 -0.00038791343)
(0.16901122 5.3191279e-05 -0.00026200822)
(0.17600619 0.00059319267 -9.2600619e-05)
(0.18233459 0.0010544205 0.00012326859)
(0.18809753 0.0014272607 0.00037092834)
(0.19341658 0.0016684375 0.00058926545)
(0.19849292 0.001669851 0.00060625255)
(0.20306557 0.0012703413 3.1715309e-07)