/*--------------------------------*- C++ -*----------------------------------*\
| =========                 |                                                 |
| \\      /  F ield         | OpenFOAM: The Open Source CFD Toolbox           |
|  \\    /   O peration     | Version:  v2012                                 |
|   \\  /    A nd           | Website:  www.openfoam.com                      |
|    \\/     M anipulation  |                                                 |
\*---------------------------------------------------------------------------*/
FoamFile
{
    version     2.0;
    format      ascii;
    class       surfaceScalarField;
    location    "290/bottomWater";
    object      phi;
}
// * * * * * * * * * * * * * * * * * * * * * * * * * * * * * * * * * * * * * //

dimensions      [1 0 -1 0 0 0 0];
oriented        oriented;


internalField   nonuniform List<scalar> 
3858
(
-8.3558689e-05
0.00010648322
-1.7359599e-05
-0.00018993961
0.00012741521
-1.5378418e-05
-0.00022776602
0.0001217287
-7.7914613e-05
-0.0002574475
0.00014182923
-0.00010497067
-0.00010378156
-8.2130011e-05
-6.778369e-05
7.5983716e-05
-0.00017342183
-5.2183936e-06
9.5229826e-05
-7.0955089e-05
5.1783069e-05
-5.0513601e-05
0.00012097219
2.5096331e-05
-0.00015068329
8.4542638e-05
1.5733353e-05
-5.1264641e-05
-8.5275521e-05
-1.3406665e-05
7.9060534e-05
-0.00021973498
8.7608881e-05
-0.00012922114
0.00014180002
6.7161311e-05
-0.00024623311
2.3014156e-05
9.4585801e-05
-0.00011390904
-0.0002606671
0.0001263608
-0.00010605162
-0.00012924226
0.00012029104
-8.6524205e-05
-0.00017714745
0.00015645678
0.00011012943
-0.00034607065
0.00014569418
0.00022577311
-0.00013312018
1.6442599e-05
0.00032100794
-0.00012002416
2.3673353e-05
0.00035160154
-9.6708468e-05
6.5869986e-05
0.00017098183
8.6707318e-05
9.4618907e-05
-4.7452145e-05
9.2602028e-05
0.00012557194
-0.0001185919
-7.7061961e-05
0.00014745046
-0.00010895182
-0.00016498867
0.00015541369
-3.6860967e-05
-0.00023243001
0.00016097475
9.1669734e-05
-0.00022922247
0.00010150768
0.00016211857
-0.00018533073
0.00011822932
0.0002665048
-0.00022172468
0.00012004084
0.00016617232
5.4391572e-05
5.1996566e-05
0.00015954125
1.1003108e-05
-7.6793251e-06
7.6004334e-05
3.8158214e-05
-0.00023268264
0.00040545389
-5.3035371e-05
-0.00017473612
0.00016492618
-0.000101144
1.7149195e-05
-2.883881e-05
-2.1217279e-05
0.0002091197
-0.00032682805
5.2727529e-05
0.00035278956
-0.00050047017
0.00018337848
0.00033148724
-0.00021909741
0.00016944464
-0.00015014941
0.00059274192
9.8669275e-06
-0.00032666631
0.00025000884
1.1050693e-05
-8.6608991e-05
-0.00034307325
1.7740413e-05
5.7348317e-05
-0.00050757191
0.00014387962
-0.00027000896
0.00030983649
0.00015932081
-0.0003415182
-4.199333e-05
0.00013651672
-9.0074937e-05
-0.00058788952
7.5779155e-05
-5.1131899e-05
-0.00030079057
0.00013260527
-3.4165168e-05
-0.00041756164
0.00022344746
9.2219889e-05
-0.00064527533
0.00017281963
0.0002656989
-0.0002988307
-7.7684809e-06
0.00044893592
-0.00029915594
-4.1052314e-06
0.00060911683
-0.00032162959
6.4740232e-05
0.00018828402
0.00042900672
7.8533435e-05
-0.00030383825
0.00047156717
0.00011315713
-0.00030140988
-0.00025475606
0.00017526574
-0.00025831687
-0.00041354618
0.0002054645
-0.00016227932
-0.00050017756
0.00017171
-3.0096033e-06
-0.0004747995
8.6307307e-05
0.00010641727
-0.0004233294
0.00012857178
0.00026079063
-0.00053761087
0.00016151281
0.00026670118
-8.797819e-05
0.00013645921
0.00032018686
0.00010605556
-7.4201636e-05
-2.2726881e-05
0.00017293285
-5.8516741e-05
0.00024827641
0.00014149259
0.00019313264
-0.00022935211
0.00014262891
0.0004330977
-0.00040064046
0.00013183659
0.00035371183
-0.00025236927
4.9270844e-06
3.4005204e-05
-0.00010201019
-7.8753355e-05
-5.5438821e-05
-3.4116243e-05
-9.5537144e-05
2.5143271e-05
0.00052458097
-1.2421138e-05
6.8182823e-05
0.00015280728
5.4162001e-05
-1.2123223e-05
-0.00029026217
2.7494961e-05
-3.8052331e-05
-0.00048629192
4.6491071e-06
0.00019284515
-4.3321039e-05
0.00012226004
0.00033561178
-0.00015056896
-3.4191005e-05
5.6308685e-05
-0.00022387562
-8.4710806e-05
2.0849232e-06
-0.00023794691
-8.6198988e-06
2.3843232e-05
-0.0004327209
-6.5990385e-06
1.5487245e-05
-0.00053296249
-0.00010395684
0.00022258574
-0.00043608993
-6.9839241e-05
0.00014403168
-0.00016351869
-5.7083164e-05
5.7864323e-05
-0.00013155008
-0.00010391213
0.00010146153
0.00033048778
5.4921753e-05
0.00016175824
0.00034854027
6.2730221e-05
8.6335536e-05
-6.9082298e-05
-0.00011025105
-8.8452528e-05
-0.00022300531
-1.5752808e-05
-8.4023487e-05
-0.00048667684
-1.7929774e-05
-6.4481115e-05
-0.00046796074
-2.6381142e-05
-0.00010905517
-0.0003033457
-7.5409652e-05
-0.00029457771
-0.0002002421
-0.00015184623
-0.00018670867
-0.00011661696
-7.9230294e-05
0.0001589644
-2.5486213e-05
-0.00041187764
0.00029567707
9.3473688e-05
-0.00022247115
-8.2483302e-05
0.00014135322
-4.9972077e-05
-0.00042480193
2.2950741e-05
-6.2919325e-06
-0.00041084614
-3.3474467e-05
-5.5201505e-07
-0.00019962807
-5.8481122e-05
-9.2527179e-05
0.00011895013
-0.00012898516
-0.00016578483
0.00019183882
-0.00015269741
0.00015324391
0.00017480754
3.074469e-05
0.00015482566
9.8030467e-05
5.3195061e-05
9.3978728e-05
-0.00022290572
-6.5095188e-06
0.00010399315
-0.00052740119
3.1094852e-05
0.00025967453
-0.00020530524
6.3028238e-06
0.00021153818
-8.7481166e-05
-1.495145e-05
0.00013209127
-0.00017945497
3.5026259e-05
5.0693562e-05
-0.00019727735
4.0728138e-05
2.8614767e-05
-0.00039664007
-1.4002035e-05
1.3630098e-05
-0.00048768399
-3.0293825e-05
0.00013761536
-0.00043434301
-0.00012573217
0.0001165458
-3.2658073e-05
-0.00010979103
-7.6408149e-05
0.00016941965
-0.00010801575
8.3283174e-05
0.00012959931
4.1197184e-05
0.00026679788
0.00012688218
3.8143405e-05
9.1076119e-05
0.00015075091
-4.4111434e-05
-3.6709987e-05
-0.00011576775
2.054854e-05
-9.0282993e-05
-0.00046959798
3.6494149e-05
-0.00012536982
-0.00045788197
2.5008052e-05
-0.00015357025
-0.00027226768
-2.8776105e-06
-0.0002063101
-0.00012383887
-2.366339e-05
-0.00022609811
-2.9563918e-05
-6.7265049e-05
-3.3356291e-05
-3.3777422e-05
0.00022538795
7.028911e-05
0.00021084103
-6.7936381e-05
-0.00012612285
-8.7838047e-05
-0.0003880857
-0.0001488833
-0.00043133315
-0.00015638062
-0.00020585587
-0.00010652715
8.8519026e-05
-0.00010253608
0.00031531503
-5.1988472e-05
0.00047958228
-6.6236783e-05
0.00039778822
-0.00014111166
6.5097157e-05
-0.00019471014
3.1219621e-05
-0.00017142771
0.0001839661
-0.00024022764
0.00027224515
-0.00026773403
0.00033294664
-0.00025797884
0.00017905186
-0.00024274528
-0.00012701458
-0.00018161754
-0.00041999634
-0.00014136122
-0.00034141203
-0.00011124236
-0.00012429683
-4.7695514e-05
1.6602045e-05
-1.1299551e-05
0.00017324854
-2.9764292e-05
0.00038573607
-6.1736613e-05
0.00036747322
-9.7504899e-05
4.4876905e-05
-0.00014700168
-0.00025425259
-0.00015875249
-0.0003349764
-0.00019154389
-0.0002700127
-0.00018880258
-0.00012738327
-0.00017219335
-0.00016073957
1.646133e-05
4.2447807e-05
-6.99558e-05
-0.00012745684
0.0001493034
-1.4556314e-05
-0.00028305349
0.00013752223
-5.0376943e-05
-0.0001223399
-0.00024580248
-1.626694e-05
1.3285119e-05
-0.00014068665
-6.3371972e-05
5.395715e-05
2.7252482e-05
-7.4563779e-05
2.3555686e-05
9.9217273e-05
-1.7802356e-05
-6.2939753e-05
0.0001462533
-3.6003388e-05
-9.9751381e-05
0.00010692247
-5.3877685e-05
7.8787763e-05
-0.00019675646
2.1027484e-06
6.8654311e-05
4.1989478e-05
5.484465e-05
-0.00010673567
0.00015604661
8.5223016e-05
-0.00020588191
8.6125439e-05
0.00010676238
-0.00011868596
-0.00014504519
0.00018266824
-4.7099421e-05
-0.00012769588
0.00017388967
-0.00014578885
0.00010705858
0.00014839184
-0.0001307362
2.0334821e-05
0.00010947631
0.00010668068
-0.00022639648
2.4443817e-06
0.00035411902
-0.00027947886
5.326429e-05
0.00038826397
-2.4974677e-05
5.7395162e-05
0.00025567403
0.00015044071
7.8697037e-05
8.1259344e-05
0.00016284768
0.00013767321
-4.7227139e-05
0.00011481719
0.00016170848
-9.1720641e-05
7.2724142e-05
0.00012771262
-4.3438087e-05
-7.2792081e-05
0.00018611913
0.00016835288
-0.00025820492
0.00014857214
0.00027530122
-9.1583388e-05
0.00010659714
0.00023400303
0.00010682034
5.9772994e-05
0.00010615254
0.00018199875
2.5577291e-06
0.00015584838
-3.5017135e-05
2.5295422e-05
-7.0890233e-05
0.00012620083
-8.4297719e-05
0.00012298247
8.2878697e-05
-5.2528506e-07
-5.8584892e-05
1.1190691e-05
0.00028139463
-0.00060124498
5.2305296e-05
0.00051347226
-0.00035665426
3.6617512e-05
0.00036744121
0.00033526314
2.1398876e-05
-1.427116e-05
0.00063090262
1.947166e-05
-0.00032589592
0.00060492969
-0.00013718471
-0.00018523582
7.3091625e-05
-9.5778565e-05
0.0002183564
-0.00057730867
-5.299593e-06
0.0001548429
0.00012483393
0.00012454867
-0.00028445124
0.0006209419
0.00013371965
-0.00038719254
0.00013800564
0.00018737781
-0.00018569759
-0.00045999454
0.00018923355
-5.3183629e-05
-0.00037552675
0.00024792218
-0.00019494721
0.00020596737
0.00026630225
-0.00018774489
2.1904463e-05
0.00016404767
0.0001229855
-0.00051176317
-3.3132182e-05
0.00042021206
-0.0006358975
5.5086867e-05
0.00054246347
-0.00014804699
6.5561141e-05
0.00027245907
0.00044981925
4.9159317e-05
-0.00018061556
0.00062136373
0.00010771573
-0.00032877594
0.00021454675
0.00022369656
-0.00033842753
9.6693057e-05
0.00019114718
-0.00019007202
-0.00021867841
0.00016924081
8.9974846e-05
-0.00058713962
0.00013519513
0.0003140888
-0.00032195556
0.00013483
0.00036617561
5.5211599e-05
0.00016103473
0.00021461568
0.00037934432
9.0673564e-05
0.00049055573
-1.4036115e-05
1.1519231e-06
-8.2398462e-05
0.00018328915
6.3210353e-05
-1.7834258e-05
0.00022025088
0.00029659293
-0.00039325801
0.00024391945
9.8967621e-05
-0.00031500982
4.3226742e-05
-6.2430717e-05
-0.0001002988
-9.0030034e-05
7.1237771e-05
0.00027110195
-0.00014826066
3.1252443e-05
0.00062270286
-4.7352056e-05
0.0001700819
0.00050927001
-5.5590911e-05
0.00029145508
8.9419839e-07
4.9862406e-06
-0.00016203105
-0.00012825515
3.1927578e-05
-0.00013388799
-5.2161053e-05
0.00015350103
9.9137439e-06
0.00050278729
9.6612909e-05
8.6565502e-05
5.2821558e-05
-2.5658684e-05
-0.00011657057
-0.00011197422
-0.00022959506
-0.00027409872
-6.9608247e-05
-0.00015701026
-0.00014260835
5.4094056e-06
6.2468557e-05
0.00015728498
-0.00039919999
1.725429e-05
0.00015317261
-0.00045358687
-0.00012390315
-0.00017718129
-0.00011433921
-0.00024828753
-0.00011234346
-9.8202042e-05
-0.00021859487
3.4770086e-05
0.00035286836
4.7591117e-06
3.60382e-05
0.00057551044
0.00010731542
2.0816516e-05
9.945853e-05
2.0058858e-05
3.9197312e-05
-2.9518345e-05
9.2077797e-05
0.00013930148
-0.00033865819
1.9458402e-06
-4.8082214e-05
-0.00026102717
-0.00016510991
-0.00023276381
-6.7839222e-05
-0.00014484441
-0.00016842252
-1.439524e-05
-0.0001465807
-7.8889162e-05
0.00028766158
-7.7080921e-05
0.00044026529
-5.4084948e-05
-0.00030015698
0.00034854646
-3.7314258e-05
-0.00021365815
3.1893871e-05
5.1262618e-06
-8.2649722e-05
-0.00049159082
-9.7248765e-06
-0.00013540221
-0.0002710754
-2.4656404e-05
-0.00026956718
0.00012734293
-0.00015195789
-0.00013255051
0.00017450009
-0.00016939997
8.5833204e-05
0.00034898055
-9.7358824e-05
0.00034784471
0.00025274656
2.5256633e-05
0.00019180184
0.00023652088
-2.6388747e-05
-2.9279292e-05
5.3520083e-05
3.2796372e-05
-2.8472736e-05
-0.00017338709
0.00015151433
0.00025230015
0.00012820962
0.0001001076
0.00023760629
0.0001231768
-7.0612839e-05
0.00015214741
9.2405005e-05
-8.3894096e-05
-6.6283351e-05
0.00024197717
-5.2426519e-05
-0.00012876462
3.0287206e-05
2.3601445e-05
-9.2446542e-05
-0.00039053619
-7.5275694e-05
-4.8350259e-05
-0.00046149845
-0.00016191685
-0.00011027201
4.3918545e-05
-0.00020612701
-0.00020661979
7.0370592e-05
-0.00018024057
1.1405476e-05
0.0001532567
2.2783619e-05
0.00023063366
0.0002941866
0.00010023908
5.4751521e-05
0.00027453782
-4.330857e-05
-0.0001097196
0.00010461909
5.0882223e-05
-0.00015442055
-0.00031506254
5.7599443e-05
-0.00017603785
-0.00020114418
-1.3257649e-05
-0.0003049522
0.00012567754
-6.7480029e-05
-0.00038497508
0.00015500285
-0.00011303862
-0.00020600198
0.00012473732
-8.3313905e-05
0.00020182089
-1.3350063e-06
0.00027625034
0.00014258523
0.00033864138
-9.8433554e-05
-0.00010086651
-0.00013992098
-0.00041313548
-0.00010768973
-0.00034938801
-9.2785161e-05
-0.00017208313
-0.00010933194
0.00010249462
-2.8133278e-05
0.00028308903
2.0163677e-05
0.00039237841
6.0994713e-05
0.00033995798
-3.5171155e-05
6.4142733e-05
-9.2281976e-05
6.567362e-05
-4.4748985e-05
0.00014227244
-0.00019364967
0.00020300778
-0.00023606437
0.00040010405
-0.00021309793
0.00040488738
-0.0002172414
5.7621798e-05
-0.00022488813
-0.00035465043
-0.00019058742
-0.00028922871
-0.00013274551
-0.00019232967
-7.4223925e-05
-7.0264914e-05
1.989241e-05
0.00012979825
6.4359156e-05
0.00029638736
4.6212107e-05
0.00029154979
1.1951758e-05
-5.0110515e-05
-0.00012040392
-0.00033757195
-7.2435249e-05
-0.00031794599
-8.5492329e-05
-0.00023750639
-0.00011423934
-0.00015678184
-0.0001281806
-0.00011570052
-0.00013360785
0.00012519764
-5.7469512e-05
-0.00025642872
0.00014032194
-2.5838188e-05
-6.0559e-05
-0.00027106867
2.6626501e-05
9.4443566e-05
-0.0001706113
-1.9510467e-06
9.0273376e-05
4.202278e-05
-0.00010140136
5.0403906e-05
9.3618936e-05
-0.0001279662
-1.8209057e-05
0.00011621708
-6.5996136e-05
-0.00010656053
0.00014588607
-9.2481077e-05
-1.9487005e-05
-6.7141281e-05
-7.3190388e-05
0.0001273909
-0.00013438218
-1.0869468e-05
0.00012515483
8.1515908e-05
-2.5197288e-05
5.4860799e-05
0.00015043462
4.4690992e-06
9.7318094e-07
0.00013758032
2.1570496e-05
-5.800725e-05
0.00015737312
8.5476366e-05
-5.9630317e-05
9.522613e-05
8.0485993e-05
-0.00011231054
0.0001581386
4.3619592e-05
-4.8070532e-05
8.8263346e-05
-4.1608718e-05
0.00019433325
-0.00026523285
2.5006057e-05
0.0002384331
2.7135736e-05
-1.5445769e-05
0.00020168293
0.00016731129
-7.0354496e-05
0.00012296453
0.00018858658
-2.8755337e-05
5.1298319e-05
0.00016435214
4.6310447e-05
1.6193267e-05
0.00015444907
4.3416546e-05
-1.6991342e-06
0.00016436882
-1.7263177e-05
4.7845549e-05
0.0001136128
2.5197979e-05
0.00014760095
7.3765527e-05
-2.1970328e-05
0.00016087515
0.00014676814
-4.9794043e-05
0.000151697
0.00015132479
-7.958009e-05
8.8248838e-05
0.00014013523
-7.1823723e-05
0.00014058788
-8.4976862e-05
-0.00016976052
0.00026870148
0.00015245751
-9.7618814e-05
-6.3099214e-06
0.00015736885
0.00013472616
-0.00063649538
0.00014427242
0.00041331697
-0.00038291047
-1.3986346e-05
0.00052828044
7.1439241e-05
-0.00010776241
0.00023074736
0.00061988438
-0.00020733349
-0.00017135945
0.00072369865
-0.0001859031
-0.00017890954
0.00019618295
-0.00017993149
4.5335314e-05
-0.00030040074
-8.6763968e-05
0.00033325462
-0.00044233817
1.4737099e-05
0.00039659468
0.00015403234
-1.1307834e-05
1.7543953e-05
0.0006659569
-2.7518978e-06
-0.00029874272
0.00058495002
5.6294789e-05
-0.00022119683
7.6183955e-05
0.00019287682
-0.00012334906
2.7120139e-06
0.00024258852
-0.00029464756
0.00050003955
9.5699793e-05
-0.00018355951
0.00010354124
3.7681732e-05
0.00024070268
-0.00068894178
-3.3685432e-05
0.0003887113
-8.7911537e-05
2.2125529e-05
0.00038133208
0.0002259061
1.4345575e-05
0.00025346598
0.00034800142
1.7610578e-05
-4.5994939e-05
0.0005486204
2.2908407e-05
-0.00028226161
0.00056957086
4.4841447e-05
-0.00031265251
0.00034523309
4.067381e-05
-4.5086273e-05
3.2403331e-05
-1.7115957e-05
0.00025205107
-3.4892653e-05
-5.3284032e-05
0.00028881681
0.00034853984
-0.00010370746
0.00024380606
0.0004711756
-0.00011380533
8.1526114e-05
0.00052176454
-0.00012867582
0.00042501483
-0.00021693695
0.00025612338
5.5774231e-05
0.00014009302
0.00035268583
-3.8476268e-05
0.00015585477
4.3337272e-05
-0.00021383126
0.0001306039
-9.8706232e-05
-0.00022704918
2.9408947e-05
1.7761301e-05
-6.0289642e-05
-7.4768686e-05
0.00011220899
0.00055691822
-0.00017974219
0.00021410666
0.00069629323
-0.00012184431
0.00029555347
0.00011981107
-6.0665837e-05
0.00020426383
-0.00023556229
3.143743e-05
-0.00011021936
-0.00024286143
0.00014693402
-5.8054726e-05
5.3189824e-05
0.00020217891
-6.8952091e-06
0.00062688063
8.4529651e-05
-2.7936408e-05
0.00054303826
3.7294268e-05
-4.3756487e-05
-2.577226e-05
-0.00011181877
-9.5536785e-05
-8.8878074e-05
-1.3639872e-05
3.9881685e-05
0.00034721149
7.9878153e-05
0.00014287168
-0.00012884172
0.00014664727
-1.4436047e-05
-0.00047149595
-0.00018404124
-9.0301504e-05
-7.2047833e-05
-0.00018828575
-4.3715555e-05
0.00011035089
-0.00014962558
3.3956616e-05
0.00024097406
3.4114333e-05
-4.4867676e-05
0.00048687082
0.00024788931
-0.00015944734
0.00045833426
0.00024587512
-0.00010766111
0.00018942936
0.00019609531
-5.0341724e-05
-9.316383e-05
7.0193603e-05
-1.8919906e-06
-0.00014158748
-0.00010686482
6.8113487e-05
0.0001995052
-6.5815256e-05
7.0480181e-05
0.00040048671
-7.8258514e-05
9.0928987e-05
0.00047435884
-5.012403e-05
0.00034211658
0.00011974228
0.00019628225
-0.00013321293
-4.4609351e-05
-5.7248877e-05
0.00031636492
-9.61838e-05
-9.7070207e-05
-0.00015197364
-3.1761175e-05
-5.1461761e-05
-0.00023000508
-6.7308952e-05
-0.00019624345
0.00011824926
-0.00018571511
-7.6468024e-06
0.00035040838
-0.00015148678
0.00028308987
0.0003865332
-7.8335459e-05
0.00027582352
0.00019019805
-3.7864006e-05
0.00015674605
-0.00020643789
6.3564323e-05
-4.5652146e-05
-0.00012508951
0.00011742264
-0.00019853397
0.00024875593
0.00010883004
4.0004418e-05
0.00035422483
0.00013422501
0.00026307994
0.00027860518
-2.9255287e-05
0.00012453348
0.00019556078
-0.00016668068
-0.00016634603
0.0002778376
-0.00012826269
-1.4279077e-05
0.00012623214
9.2513846e-05
-1.891158e-05
-0.00012540502
-7.4079877e-05
-0.00011772358
-0.00049320489
-4.1395874e-05
-0.0002015534
-2.9447202e-05
-0.00016489779
-0.00019979202
6.0564868e-05
-0.00013221589
-0.00010394857
0.00013037865
3.7535608e-05
1.9713597e-05
0.00024308808
0.00022035968
0.00016803505
0.00010867235
0.0001580319
0.00017422326
9.9513769e-05
0.0001346096
-0.00023945483
0.00036969657
8.4171251e-06
-0.00033909673
3.4808885e-05
-9.0012129e-05
-0.00015659521
-2.4642613e-05
-2.5833757e-05
-5.3930397e-05
0.00024340056
-5.8617296e-05
8.5528677e-06
0.00029760942
3.0952233e-05
0.00020243884
0.00014689559
-4.8300292e-05
5.7672585e-05
0.00020647741
-3.6846336e-05
8.3375244e-07
-8.6250968e-05
-0.00029620883
-4.0652228e-05
-0.00029880582
2.8061088e-05
-7.2925089e-05
1.519571e-05
0.00022942334
5.6051491e-05
0.00030767882
0.00013210624
-3.4520472e-05
0.00019675612
-0.00029109256
9.6311423e-05
-0.00021539779
8.0779174e-05
-8.0146482e-06
0.0001020927
0.00012595914
-4.9018283e-05
0.00020621669
-0.00012076115
0.00036966656
-9.87102e-05
0.00040811061
-0.0001294533
0.00022812844
-0.00017031096
-0.00022527118
-0.00023039268
-0.00025110781
-0.00013635605
-0.00017765797
-8.7108874e-05
-9.0048285e-05
6.2661408e-05
8.0872909e-05
0.00013652605
5.5048458e-05
0.00018070892
-1.6465795e-05
0.00018297977
0.00013529444
9.753241e-05
-3.3021286e-05
0.00013068935
-0.00024155772
9.8401478e-05
-0.00016228898
4.9892462e-05
-3.3154231e-05
4.0294052e-05
5.3584093e-05
-0.00012551485
0.00015392684
-8.216418e-05
-0.00023138431
0.00015831738
-7.393053e-05
-0.00024637891
0.00010359962
-5.7657242e-05
-0.00019915362
5.7689095e-05
-0.00010195947
2.7199554e-05
-0.00019189782
-0.0001355407
4.0066494e-05
-2.3556611e-06
-0.00013876751
-0.00011500915
0.00012345603
-3.3772325e-05
-0.00017913101
5.4120405e-06
-3.2989707e-05
-4.4065202e-05
-0.00021410521
5.6013301e-06
0.00019799818
-0.00026158816
6.458763e-06
0.0002400003
3.2961009e-06
-7.0750112e-05
0.00015856957
0.0001628686
-7.6628213e-05
0.00010490744
0.00014513335
-7.1127551e-05
2.954712e-05
0.00016065999
-6.2984421e-05
0.0001714931
-0.00013473011
0.00011601454
2.3398959e-05
-0.00020275309
7.9147035e-05
-3.8098945e-05
4.9477594e-06
-1.5104909e-07
0.00017452081
-0.00011228557
-7.9870004e-05
0.000163458
-0.00015506627
-0.00016752536
0.00018389244
-0.00012333919
-0.00020601731
0.0001642917
-7.6355555e-05
-0.00015855297
4.5401999e-05
-4.5614954e-05
7.5505059e-05
-0.00018766858
-6.3372952e-05
0.0001605361
0.00011431036
-0.00017022955
0.00021588008
0.00010416714
-0.00017779498
0.0002466945
0.00010800107
-0.00018367373
0.00021004889
0.00015320879
-0.0001913067
9.8429581e-05
0.00016626295
-0.00012150278
0.00010162857
-8.2423998e-05
-0.000199988
0.00044608211
6.0290251e-05
-0.00029234384
0.00034619148
6.1850594e-05
-0.0001987002
9.299995e-05
6.122845e-05
1.9379556e-05
-0.0001344003
-3.9976711e-05
0.00036465596
-0.00051083055
-0.00013410608
0.00014840352
0.0002559899
-0.00024942662
-0.00024754142
0.00049420113
-0.00016070326
-0.00022068399
-0.00011281225
-8.8564636e-05
-2.3704598e-05
-0.00054188777
4.4039199e-05
0.00032847616
-0.00060766069
8.6288686e-06
0.00049289087
-7.7872093e-05
-9.4554343e-05
0.00034366926
0.00042285603
-0.00011351772
7.2249939e-05
0.00059888742
-0.00012603996
-0.00016017588
0.00058596263
-0.00033270897
0.00058661471
-0.00019030377
6.9309127e-05
0.00024083569
-0.00059621081
0.00037160596
-0.00012279136
-7.976328e-05
6.7857005e-05
0.00067963134
-0.00017923604
-0.00023570668
0.00057535451
-9.3987236e-05
-0.00036834301
0.00028406216
5.0077197e-05
-0.00033779562
7.9983613e-05
7.6669107e-05
-0.00028232201
-2.2524203e-05
5.7294047e-05
4.2714815e-05
-0.0005147569
4.2725306e-05
0.00026282635
-1.9024133e-05
-0.000103893
0.00027964466
0.00019445227
-0.00016038747
0.0003411025
0.000137363
-0.00019452724
0.00020402808
0.0004377674
-0.00026128954
-1.5300642e-06
0.00041808223
-0.00017493696
-2.6816516e-05
-9.0021933e-05
9.5036799e-05
0.00039781447
9.3323854e-05
0.0002028471
0.00025303995
0.00014119599
0.00030601021
2.1958906e-05
9.8481829e-05
0.0002007003
-7.8999494e-05
7.931806e-05
2.6562066e-05
-0.000352544
-5.8917013e-05
8.0289422e-05
9.7300557e-05
-7.4780206e-05
0.00018871619
0.00036854731
-0.00010461726
0.0001908158
-0.00010002583
-7.5551865e-05
1.3095897e-05
-0.00041802953
8.5299091e-05
-0.00030920343
-0.00015506441
1.6637064e-05
-0.00018091204
-8.2000222e-05
7.801565e-05
1.5951286e-05
0.00031079563
-2.7327628e-07
6.9410354e-05
0.00058362114
-8.985179e-07
-6.4469507e-07
0.00054419891
0.00010076835
0.00047156179
0.000275976
-2.6020375e-05
-4.5189081e-05
-0.00012839844
2.6647158e-06
-0.00019127056
-0.00016341581
-3.186684e-05
0.00052045496
5.4222127e-06
-8.7355846e-05
0.00051260296
-3.1384991e-05
2.0462812e-05
0.00014846482
6.189304e-05
9.5415548e-05
6.8894379e-06
0.00024603076
0.00010329398
-9.2411953e-05
0.00030788445
-0.00018795825
-0.00015047291
0.00012306354
-0.00012656891
-8.1938562e-05
7.1718687e-05
6.4389933e-05
-0.00015309783
4.9726417e-05
0.00014171074
-5.6502918e-06
-1.2279292e-07
0.00011621165
0.00033325208
5.1755895e-05
0.00010842797
0.00030237041
7.3371451e-05
-6.3080757e-05
0.00026443448
0.0002318494
0.00012230548
-9.4975862e-07
0.00034883018
8.805792e-05
-4.8182554e-05
0.00026698403
0.00018933006
-0.00011728618
0.00012221824
0.00017093166
-0.00017247432
5.3413759e-05
-0.00034729624
-0.00012215839
5.2540298e-05
5.1526725e-05
-0.00010483948
0.0001617233
0.00026033807
-7.930923e-05
1.7668875e-05
2.1252223e-05
-1.5087635e-05
-3.5491439e-05
-0.00043615294
0.00013484805
-0.00015000207
1.9453544e-05
5.7415315e-05
-0.00033329385
0.00019145749
1.8664107e-05
-0.00014848167
0.00016741062
9.2797845e-05
1.401301e-05
0.00034726584
4.4605327e-05
0.00011865282
0.00027287841
0.00028265832
0.00017929359
9.7090555e-05
0.00025206125
-0.00017094144
6.5553689e-05
-0.00024006216
-0.00014313012
-2.0415581e-05
-6.6261703e-05
9.0492505e-05
9.1264253e-05
4.9978953e-05
0.00024222557
2.1920876e-05
0.00019311477
4.7372853e-06
3.8127365e-05
0.00022410866
2.6903916e-05
0.00016935133
0.0003055641
-0.00016182752
0.00014599204
0.00031570213
-0.00013583511
0.00010983377
3.848417e-05
0.00020790271
-4.2061913e-06
1.4831531e-05
-0.00024045973
2.1002393e-05
1.4973734e-05
-6.0067554e-05
2.8441286e-05
0.00012251233
0.00013271014
3.4386016e-05
0.00025121161
0.00015367886
5.0944478e-05
0.0002986616
3.6364834e-05
0.00018289388
-2.9158198e-06
0.00021310747
2.0997989e-05
0.00030814007
8.0464987e-06
0.00040333892
3.5080584e-05
3.9617968e-05
4.4485794e-05
-5.8963053e-05
0.00016530345
0.00016553578
9.1890734e-05
7.8860952e-05
0.00024003329
-0.0003678469
0.00020731103
-0.00041585121
0.00016376928
-0.00028635448
0.00014273993
-0.00017493388
0.00015808272
2.1269727e-05
0.00010204395
0.00017338699
0.00025397038
0.00037657833
0.00027182107
-5.4904174e-05
-4.6797524e-05
-0.00010149933
7.3163685e-07
5.8091182e-05
-4.4737853e-06
0.0001211573
4.3325919e-06
0.00022891691
5.5670378e-05
0.00015492555
9.2872762e-05
7.0714202e-05
0.00013135601
0.00019560354
0.00018054577
-8.0469027e-05
0.00016630218
-0.00024706989
0.00020493477
-0.00019940628
0.00013493898
-0.00010902461
0.00010359123
0.00024322107
-0.00015009678
0.00016367319
-9.2704959e-05
-0.00029729382
0.00016911551
-9.1083444e-05
-0.00027997312
-1.6718783e-05
-5.4081766e-05
-9.3666724e-05
-0.00026218667
-2.5740679e-05
4.7465778e-05
-0.0002353299
-4.2252009e-05
2.3450495e-06
-3.4575092e-05
-6.0837054e-05
-0.00013740713
9.0709096e-05
1.4557812e-05
-0.0001613019
-0.00010018976
9.0429763e-05
-6.3918366e-05
-0.00018420699
9.1644185e-05
0.00012870482
-0.00028734393
9.8121898e-05
0.00023024398
-0.00023719911
6.1562482e-05
0.00012533
8.529375e-05
-5.8554115e-05
0.00015316308
-0.00010070611
2.3929877e-06
0.00013860882
-0.00013480126
-6.6118122e-05
0.00012933426
-0.00017050764
-0.00020388576
0.00017920499
-0.00019416019
-0.0003006074
0.00013926073
-0.00016428085
-0.00028908341
-2.0048731e-05
-6.730626e-05
-0.0001051634
-0.00026115952
3.0829249e-05
2.5914051e-05
-0.00020943837
1.2965859e-05
1.4625584e-05
-5.5228591e-05
-0.00010121948
0.00015661678
-0.00030317613
-1.7883865e-05
0.00026923251
-0.00024986572
-4.4914736e-05
0.00011406272
4.2062157e-05
-7.5757921e-05
-0.00012518055
0.0001402721
-1.9376288e-05
-0.00030224459
9.3285413e-05
-0.00024715704
0.00047414579
-3.0253158e-06
-0.00027592501
0.00023480549
2.4928585e-05
-0.00013785302
-0.00020889602
0.00011533369
8.1196621e-05
-0.00059783072
7.6617698e-05
0.00029470844
-0.0005349809
-4.7966902e-05
0.00015364669
-2.8317115e-05
-0.00011462285
-0.00016163529
0.00032854529
-8.3257473e-05
-0.00016984408
-0.00028457349
0.0001040279
-1.1194773e-05
-0.00044345587
0.00014463876
0.00019203065
-0.00058730854
0.00010536807
0.00034669799
-0.00057524461
8.8823807e-05
0.00032297101
8.9333096e-05
-9.3830083e-05
0.00053696299
-0.00018686886
0.00016745276
-6.1184027e-06
-0.0001024888
0.00026155166
-2.1957332e-05
-0.00012204334
-0.00013273664
0.00057526036
-9.5754288e-05
-0.00040457491
0.00043204376
2.9132445e-05
-0.00032677565
-0.0001894898
0.00016831093
-0.00016043666
-0.0006402155
0.00027001104
-4.2930058e-05
-0.00044729669
0.00016307703
1.166696e-05
-0.00022719831
1.3479691e-05
0.00011144612
-0.0005990387
3.569594e-05
0.00025461157
-0.0005552719
-3.2286513e-05
8.3671556e-05
7.6496766e-05
-0.00012478414
-5.0209613e-05
6.4481944e-05
3.4734357e-05
-0.00067685463
0.00023437848
0.00013886379
0.0004219316
6.6742584e-06
0.00032208163
0.00014078245
5.2001184e-05
0.00031588697
-6.8828109e-05
-3.5391418e-05
2.5104886e-05
-0.00015146439
-7.6266195e-05
-9.1817346e-05
-0.00039444494
-8.2530745e-05
9.1556287e-05
-0.00034879127
6.2320316e-05
0.0001932239
0.0001104608
1.1799617e-05
0.0001616981
-0.00033297186
4.3722926e-06
0.00014197138
-0.00041248459
7.4054537e-05
-9.1200943e-05
-0.00010393551
-0.00023356364
-0.00030107361
-0.00010752177
-0.00017983452
-7.6938628e-05
-3.19297e-05
-0.00010314546
0.00043442904
2.4696812e-05
-4.313821e-05
-8.1043271e-05
-4.5352712e-05
-4.1882618e-05
-9.7533203e-05
7.9742516e-05
-3.3021191e-05
0.00052323569
1.177828e-05
0.00013456373
0.00032314769
3.204207e-06
0.00022739183
-9.2388734e-05
5.6101613e-05
-2.4700425e-05
-0.00015324376
7.3004963e-05
-6.1119583e-05
-0.00028032412
-7.489883e-06
0.00012277687
-0.00041133403
7.1957941e-05
4.9149503e-05
-0.00052913007
5.3445139e-05
1.4298855e-06
-0.00048330622
-2.436887e-05
0.00014462584
-0.00010217038
8.7227067e-05
0.00029491507
-4.1990419e-05
2.9554574e-05
-0.0001481662
3.0661102e-05
0.00027888255
0.0001682781
-2.6178813e-05
0.00036068591
5.4533949e-05
-4.3737417e-05
0.00021747634
9.8200894e-05
-0.00014110562
0.00015459308
-6.4571372e-05
-0.00019648407
0.00018912836
-0.00042426552
-0.0001268731
0.00014130187
-0.00031171971
-9.4084556e-05
0.00010816247
0.000120584
-5.6293032e-05
-1.2540416e-05
-0.00031402505
8.6668442e-05
-2.6999287e-05
-0.00039265457
0.00012947689
-0.00010304127
0.00010634626
-7.6824475e-05
-0.00025663154
0.0001750895
-0.00011035688
-0.00025207113
0.00015322921
-9.6921467e-05
0.00018113902
4.5824216e-05
-0.00015219468
6.5155927e-05
-1.4420075e-05
-0.00033533101
0.0002014852
-2.4617794e-05
-8.7886881e-05
0.00017732514
0.00012038733
0.00017210812
0.00010350635
-2.2262695e-06
0.00011163864
9.2705467e-05
4.4726624e-05
0.00011252592
-7.3797119e-05
6.5658125e-05
0.00017085147
-0.00030508295
7.6267048e-05
8.5372297e-05
-0.00039310634
6.3045283e-05
3.8281335e-05
-0.00049723312
3.6196391e-05
7.8808226e-05
-0.00047815076
-1.7241077e-05
0.00010330388
-6.0263398e-05
-3.2016644e-05
-4.0234263e-06
0.00023441834
-0.000118137
2.227089e-05
-0.00013809569
0.00019390611
-2.8543833e-05
0.00029707049
-2.7632445e-05
0.0004337768
-3.0458921e-05
0.00044844635
-4.416034e-05
0.00016585813
-9.7191505e-05
-1.0856057e-06
2.0527472e-05
0.0001793162
3.2072926e-05
-6.3583366e-05
0.0001689078
-0.00043555422
0.00018662731
-0.00038011331
0.00021467463
-0.00027338573
0.00021110186
-0.0001752243
0.00021315049
0.00010795867
-0.00016497704
0.00018333547
-0.00010587194
0.00014311176
7.7305414e-06
5.9248894e-05
0.00013870661
-2.3137102e-05
0.00032296286
-3.5880395e-05
0.00040616158
-6.4123076e-05
0.00031606463
-8.3629989e-05
0.00015121325
-4.7709196e-05
-0.00015536674
-2.4350965e-05
-0.00044981424
2.1231485e-05
-0.00037857707
3.4383911e-06
-7.3839483e-05
3.3271959e-05
0.00019165248
-0.00013127733
0.00015751076
-0.00011725077
-0.00026110202
0.00018002095
-0.00013868921
-0.00034250696
0.00013387055
-0.00010327636
-0.00024848284
-8.4458082e-05
-3.4705778e-05
-5.9608459e-05
-0.00025449709
2.2181761e-05
0.00013863999
-0.00028956712
2.858192e-05
5.5950398e-05
6.7088439e-05
2.9519669e-05
-6.7294879e-05
9.0502224e-05
0.00012382993
8.5442119e-05
-0.00020484379
0.00014172634
0.0001114861
-1.4624645e-05
8.7412713e-05
1.8407197e-05