/*--------------------------------*- C++ -*----------------------------------*\
| =========                 |                                                 |
| \\      /  F ield         | OpenFOAM: The Open Source CFD Toolbox           |
|  \\    /   O peration     | Version:  v2012                                 |
|   \\  /    A nd           | Website:  www.openfoam.com                      |
|    \\/     M anipulation  |                                                 |
\*---------------------------------------------------------------------------*/
FoamFile
{
    version     2.0;
    format      ascii;
    class       volVectorField;
    location    "290/bottomWater";
    object      U;
}
// * * * * * * * * * * * * * * * * * * * * * * * * * * * * * * * * * * * * * //

dimensions      [0 1 -1 0 0 0 0];


internalField   nonuniform List<vector> 
1460
(
(-3.9699443e-05 -0.016584005 0.00064782242)
(-0.0020274058 -0.015284181 0.0002626542)
(-0.002607491 -0.014267383 -0.00034590349)
(-0.0034323023 -0.012015904 -0.0016806086)
(-0.0026402197 -0.011111418 -0.00067617044)
(9.9382627e-05 -0.011139729 0.0010814447)
(0.0017734043 -0.013523927 0.0016149137)
(0.00047609835 -0.016414044 0.0010938622)
(-0.0016530116 -0.016527382 0.00067597937)
(-0.0023699056 -0.010910699 -0.00075619626)
(0.0013034439 -0.011709345 0.0013455471)
(0.00041471296 -0.01549623 0.0011982697)
(-0.0036676656 -0.015293139 0.0016164713)
(-0.0020885014 -0.012183706 0.0017769611)
(-0.0010051702 -0.013643033 0.0017097502)
(-0.0017653403 -0.012382044 0.0021416378)
(-0.00012461043 -0.013082842 0.0017634579)
(0.002560072 -0.013765937 0.00027911393)
(0.0033888062 -0.014392122 0.00010128423)
(0.0044892933 -0.014492346 0.00077471855)
(0.0040760602 -0.015912437 0.001351894)
(0.00037127084 -0.017121587 0.0020691539)
(-0.0014859328 -0.012815677 0.0020481485)
(-0.001606131 -0.012136829 0.0023668062)
(-0.0011116065 -0.012007464 0.0024735956)
(0.00029054934 -0.012522532 0.0016710223)
(0.001772192 -0.011989881 0.0021070564)
(0.0026348604 -0.011144421 0.0020268098)
(0.0035245629 -0.012552462 0.0014037078)
(0.00096897519 -0.014025969 0.0010439379)
(0.0021548223 0.017512865 -0.00028556932)
(-0.00243007 0.016620283 -0.0014508992)
(-0.0028762205 0.01552323 -0.0011062277)
(-0.0018992754 0.01369702 -0.0021004526)
(0.0023974619 0.0066916902 0.00076629943)
(0.0032721447 0.003124305 0.0021871055)
(0.005197605 0.009536604 0.0016697039)
(0.0023723421 0.017547762 0.001570356)
(-0.005692951 0.016992964 0.00095409835)
(-0.0026827792 0.006323402 0.00018704728)
(0.0009427273 0.0018824117 0.00054136321)
(4.2497761e-05 0.017062953 0.0023156318)
(-0.0064292545 0.014300969 0.0020837122)
(-0.0013102486 0.00089400541 0.0013393491)
(-0.0011985792 0.0073031979 0.0020150753)
(-0.00030124233 0.0041905845 0.0013383753)
(-0.00032103418 -0.0012802933 0.00053637566)
(0.0022705425 0.0072715969 -9.1004263e-05)
(0.0048942934 0.0084331311 0.00042584136)
(0.0061966793 0.0094572996 0.0012055736)
(0.0080902609 0.016404588 0.0014565794)
(-0.0031695507 0.01771017 0.0011661903)
(-0.0038191694 0.0085660853 0.00056680698)
(-0.0040216925 0.004431643 0.0015425458)
(-0.002278912 0.0018179219 0.0020369995)
(-0.0016453197 0.0024711496 0.0016979013)
(0.0015429447 0.003596057 0.0022764763)
(0.0013666901 0.0013771559 0.00081848925)
(0.0044791559 0.01259138 0.0012071637)
(0.0027125509 0.016057911 0.0015012131)
(-0.00045066809 -0.013569793 0.0024254069)
(-0.0015291784 -0.0006893692 0.00031332135)
(0.0002656325 -0.0082120509 0.00089959955)
(0.0044756182 -0.013462374 0.0013660848)
(0.0056862072 -0.013390971 0.00096573399)
(0.0032853795 -0.014481628 -0.001472753)
(-0.0022609094 -0.013481947 -0.0043722345)
(0.00077376445 0.0046200302 0.00072297204)
(2.6560122e-05 -0.0065721274 0.0013853364)
(0.0012391115 -0.013443873 0.00034090959)
(-0.0013754417 -0.013285475 -0.0022411829)
(0.00030441414 -0.0045579271 0.0019539593)
(0.0047977533 -0.014369254 0.00051250805)
(0.0027927032 -0.014613061 9.1650786e-05)
(-0.00099887314 -0.013361765 0.00087949305)
(0.00097138164 -0.013334337 -0.0013649057)
(-0.00025435992 -0.014047938 -0.0018908756)
(0.00074000938 -0.013316697 -0.001028771)
(0.0045326775 -0.014532705 0.0007248223)
(-0.0013753233 -0.016110419 -0.00040271802)
(0.003150721 0.00024137874 0.0013539336)
(-0.00039501991 0.00041234467 0.00047768698)
(0.0038954717 -0.013447587 -0.0025543161)
(-0.001503621 -0.013478006 -0.0019158585)
(-0.00055235569 -0.013236489 -0.00026719461)
(-0.0015060508 -0.013266818 0.00037812303)
(-6.3314934e-05 -0.013006966 0.00045866239)
(-0.0029530143 -0.013849963 -0.0019424507)
(-0.0041551037 -0.013603427 -0.0020600263)
(-0.00013258816 -0.0032989264 -0.00076053204)
(-0.005711975 0.012116015 0.0020698824)
(-0.00410286 0.0059584341 0.0016102491)
(-0.0011143944 -0.00066184081 0.00036452802)
(-1.0936102e-05 -0.0010436464 -0.0012726353)
(-0.00026775577 0.0038559967 -0.00074741227)
(0.00034830732 0.010213401 -0.0026704366)
(-0.0031930942 0.011660005 -0.0038312698)
(-9.4369503e-05 0.0083524823 0.00078773688)
(0.0031588983 0.0094713662 0.0020316031)
(0.0011848178 0.0027681356 -0.00061009032)
(0.0011449421 -0.0038204318 -0.0019429309)
(0.0017675066 0.0024499591 -0.0018794691)
(0.0039898948 0.0082695006 2.7940496e-05)
(0.0018319039 0.0062592597 0.00047588253)
(0.0011770837 0.0043667938 -0.00062292898)
(0.00014914263 -0.0018774259 -0.0012185827)
(0.00077279207 -0.0042167827 -0.00071489481)
(-0.00056790421 -0.0020990487 -0.0020284692)
(0.0040953803 0.0081282489 -0.0011267869)
(-0.0015046871 0.01078377 -0.0011806246)
(-7.5574086e-05 0.0073698671 0.0010730456)
(0.0023543448 0.00768413 9.605417e-05)
(0.0035941209 0.010328871 0.0002611891)
(-0.0010259401 0.005050719 -0.00028043719)
(0.00020948429 -0.003712393 -0.00019102116)
(-0.0022234756 -0.0029507676 -0.00075416314)
(-0.0012811377 0.0020463668 0.00044138378)
(-0.0023394326 0.0063434849 0.00057864171)
(-0.0031179034 0.008826149 -0.0010429712)
(-0.0021399339 0.0065368052 -0.0008155565)
(0.00023740491 -0.0014358344 0.00058537235)
(0.0046871198 -0.0076702845 -0.0014589005)
(0.0011481532 -0.010582715 -0.0016428487)
(-0.0044793593 -0.0099020272 -0.0030431326)
(-0.005757775 -0.0086904671 -0.0031455502)
(-0.0042876106 -0.005719005 -0.0023903977)
(-0.00093057725 -0.0045153512 -0.0027738024)
(0.0029157929 -0.0021508807 -0.0013859051)
(0.0052422479 -0.0056307818 -0.0015628257)
(0.006304599 -0.0084082806 -0.0027959599)
(0.0034545883 -0.010564699 -0.0036730731)
(-0.0015661861 -0.0076605353 -0.0038426418)
(0.0021921716 -0.010151917 -0.0046283356)
(0.0026277201 -0.010743993 -0.0049952217)
(0.0040629673 -0.0092688728 -0.0053357666)
(0.0038474432 -0.0089101593 -0.0047512734)
(0.0010921501 -0.0093739974 -0.0030828914)
(-0.0046836519 -0.0096958522 -0.0021907385)
(-0.0053412102 -0.0086714308 -0.0016623977)
(-0.0028440636 -0.0046046888 -0.00072606373)
(-0.00052992169 -0.0025966557 -0.00017525177)
(0.0009865324 -0.003016238 -0.0011050615)
(0.0036811557 -0.0047364799 -0.00099596163)
(0.0053823406 -0.0077176804 -0.0018047673)
(0.0040197803 -0.0090797111 -0.0023289892)
(-0.0027539098 -0.00967904 -0.0031955796)
(-0.0039777562 -0.0092153164 -0.0039277999)
(-0.0040736853 -0.0093327821 -0.0037270744)
(-0.0025104136 -0.0093086362 -0.0034279063)
(-0.00081100793 -0.0071200209 -0.003320983)
(0.00018897062 -0.017211423 -0.001386048)
(0.00030232778 -0.014605814 -0.00088644703)
(-0.0038947827 -0.010820913 -0.0029215221)
(-0.002623925 -0.010140765 -0.0020997993)
(-0.00030898441 -0.01312594 -0.0016122898)
(0.00058470578 -0.01593248 -0.0012175397)
(0.00064831043 -0.017325674 0.00042310668)
(3.6658868e-05 -0.016957078 -2.8736986e-05)
(-0.0018355881 -0.014852224 -0.00011995528)
(-0.000329211 -0.010743679 0.00036942114)
(0.0020464671 -0.016301678 0.0018087158)
(-0.00017699099 -0.016953654 0.0015006706)
(-0.0026351397 -0.015252313 0.0020806581)
(-0.0023761495 -0.012274155 0.0030853901)
(-0.00038531577 -0.013930248 0.0030610462)
(-0.00098755598 -0.016713096 0.0035319205)
(-0.002456842 -0.016870809 0.0034664992)
(-0.00059993134 -0.0122167 0.00044570274)
(0.0033387891 -0.012194576 0.00092901839)
(0.0051234433 -0.013792275 0.0017260299)
(0.0045593178 -0.014465257 0.0020942454)
(0.0021278983 -0.016297314 0.0026029801)
(-0.00020812588 -0.017190086 0.003315615)
(-0.00090985885 -0.015635472 0.0034469186)
(-0.0015286951 -0.013226494 0.0034658416)
(0.00059878753 -0.011545831 0.0023117314)
(0.0033143818 -0.011915852 0.0022760625)
(0.0034799303 -0.012753046 0.0021817797)
(0.002538731 -0.013172063 0.00059128438)
(0.0002319999 -0.014617239 -0.00062686222)
(0.00023064258 0.016904185 0.0017921977)
(0.00044906277 0.016438491 -0.00036574265)
(-0.0027917264 0.012429333 -0.0030163455)
(0.0028216689 -0.00056832519 0.0013967059)
(0.0047532937 0.0063299018 0.0014356568)
(0.0067605623 0.014948926 0.0038339726)
(0.0033400608 0.018005977 0.0041291833)
(-0.0038020247 0.018562676 -0.0012636718)
(-0.0044478362 0.015724055 -0.0006314122)
(0.00037529645 0.001749158 0.00051668258)
(0.0045071955 0.015827313 0.0042898399)
(-0.00084815484 0.018779493 0.0034038742)
(-0.006293006 0.015722997 0.0028595379)
(-0.0027764639 0.0052858121 0.0013520925)
(-0.001533835 0.0076218132 0.0029247933)
(-0.00014597055 0.017617014 0.0064504954)
(-0.0044645497 0.015788282 0.0053084812)
(0.00026905174 0.0021423801 -0.00016123911)
(0.0030643513 0.00024009064 -0.00051538967)
(0.0065665282 0.011393694 0.00093903119)
(0.0071335326 0.016215375 0.00129247)
(-5.7778664e-05 0.018280082 0.0029078393)
(-0.00414282 0.018230306 0.0056246044)
(-0.0045315693 0.015908338 0.0055694111)
(-0.0037819322 0.0092509996 0.003867723)
(-0.00045482514 0.00039582154 0.0015617751)
(0.0024379263 0.0071314389 0.0023178298)
(0.0049558477 0.013716685 0.0046991378)
(0.0041934612 0.015667088 0.0036348561)
(0.0015278325 0.016523982 0.0023494113)
(0.00047973551 -0.017447236 0.003757727)
(-0.00048615156 -0.010710093 0.0046645894)
(0.0024091476 -0.012779385 0.0046944439)
(0.0042189695 -0.013418512 0.0030023795)
(-0.0018192338 -0.013840816 -0.00086004664)
(0.00049505571 -0.0014451903 -0.0013231498)
(0.0015765609 0.0056225639 0.0011736325)
(-0.00097954846 0.004115582 -0.0010718721)
(0.0055737611 -0.011930773 0.00053354747)
(0.0007341696 -0.015096978 0.00048370393)
(-0.0039206893 -0.0099762559 0.0024836469)
(-3.4895547e-06 0.004337824 0.0022856151)
(0.00037652742 -0.0093695353 -0.0019817282)
(0.0013350404 -0.015488654 -0.0036086742)
(-0.0038046638 -0.015585298 -0.0013448476)
(-0.0035843268 -0.008857906 0.0010504326)
(0.0005900224 -0.013992214 -0.0016572017)
(0.002870507 -0.013762024 -0.0018102826)
(0.00053146922 -0.015391486 -0.0032559099)
(-0.0046093597 -0.013713448 -0.0038166599)
(0.0020147569 0.0011241189 0.00047815202)
(-0.00095436125 0.0049573221 0.0019944873)
(0.0016510743 -0.0090964318 -0.0012694295)
(-0.0011899284 -0.011193566 0.00136628)
(0.0023334712 -0.013209907 -0.00051206368)
(0.0008371421 -0.014146637 -0.0016008747)
(-0.0021488081 -0.013831892 -0.0036977716)
(-0.0033635477 -0.010749482 -0.0041136823)
(-0.00096740331 -0.00081425607 -0.0010619072)
(-0.00073193383 0.0022342047 -3.5846857e-05)
(-0.0033465072 0.013603717 0.0011345105)
(-0.0044997292 0.0094834489 0.0032449285)
(-0.00043160776 -0.0016747639 0.00030397868)
(-0.0013783399 0.0019200477 -0.00015769908)
(-0.0026226062 0.0095593226 -0.00165321)
(-0.0034161338 0.0073828693 -0.0023510052)
(-2.2471063e-05 0.0097451336 -0.0013719813)
(0.0025362172 0.0083171849 0.0005180985)
(0.0050050577 0.011278596 -0.00033224724)
(0.0005794212 0.0099503616 0.00030781315)
(-0.001566209 0.0074111293 0.0029143479)
(0.0011688108 0.0080170247 0.0020495234)
(0.0041508461 0.0099151833 -0.0008045839)
(0.0025040827 0.010837006 0.00061378462)
(0.0010941336 0.012433374 0.0019093568)
(-0.0030057534 0.008444075 0.00046701944)
(0.00016715696 -0.00054851418 -0.0006512612)
(-0.0022554326 -0.0021158546 -0.0028440044)
(0.00079693449 0.010816352 -0.0031862799)
(-0.0037287173 0.0095722721 -0.0030386443)
(-0.00097997367 0.0071211347 0.00042152895)
(0.0013501432 0.009217112 0.0012237442)
(0.0037825128 0.010707561 -0.0021575446)
(-0.0022240187 0.0096100961 0.00086717117)
(-0.00068333487 0.00073895775 0.0013388971)
(-0.0027071599 0.0045572893 0.0015188)
(-0.0022491016 0.010810059 -0.00064177625)
(-0.0053197211 0.0097659253 -0.0017155191)
(-0.003710068 0.0073308309 -0.001658411)
(-0.0016045534 0.0082529037 -0.00057027958)
(0.0010739093 -0.0011096221 0.0023817154)
(0.0052155253 -0.0079650403 -0.00092877602)
(0.0031331166 -0.011262639 -0.0018905665)
(-0.0054248707 -0.0088393018 -0.0024892817)
(-0.0049135013 -0.0046917355 -0.0023906306)
(-0.003758154 -0.0009987511 -0.0016972026)
(-0.00030343745 0.0023234424 -0.00099226721)
(0.0026783441 0.0005005575 -0.00038840462)
(0.0045526853 -0.0026394723 -0.00066208501)
(0.0054074455 -0.007759636 -0.0021086716)
(0.0024930485 -0.01145387 -0.0036656885)
(-0.00057746004 -0.0033174423 -0.0024200625)
(0.0019827426 -0.0051268564 -0.0042049888)
(0.0017595861 -0.0072215998 -0.0047783883)
(0.0036942489 -0.0037666645 -0.0039302873)
(0.005587969 -0.0070602201 -0.0044214965)
(0.0050437085 -0.0096887251 -0.0040472017)
(-0.0037944727 -0.010490368 -0.0030690006)
(-0.0045133662 -0.0089981412 -0.002398271)
(-0.0030291596 -0.0067808518 -0.0011780494)
(-0.0019368063 -0.001576127 -0.00024820934)
(0.00033164053 0.0009735 8.9910585e-05)
(0.0030327205 -0.00091578129 -0.0011868104)
(0.0041671206 -0.005542808 -0.0016159921)
(0.002746474 -0.0087517797 -0.0035275147)
(-0.0038977041 -0.0096127581 -0.0030021935)
(-0.0042407462 -0.0060920025 -0.002946126)
(-0.0037032088 -0.0040287699 -0.0031066144)
(-0.0024418401 -0.0027155784 -0.0031684746)
(-0.0012995885 -0.0010664194 -0.0025335702)
(-0.00016066972 -0.016438186 -0.0010420338)
(-0.0035275896 -0.013631268 0.00030419823)
(-0.0024207388 -0.010659039 0.001372753)
(0.0010238745 -0.012935147 0.0016341435)
(0.0011229537 -0.015493475 -0.00094531739)
(0.0010606857 -0.018381218 -0.0017952457)
(0.00033867015 -0.018787356 -0.0010741073)
(-0.0008862142 -0.014166721 -0.0014816956)
(-0.0016575554 -0.011185692 -0.0019335338)
(0.0012198713 -0.011296137 -0.00034030854)
(0.0019521122 -0.016134338 0.00033403395)
(0.0010459144 -0.016957139 0.001549672)
(0.00048553449 -0.016798163 0.0018834138)
(-0.00049231529 -0.014524185 0.0034287256)
(-0.00078423989 -0.017226171 0.0030739044)
(-0.00077933945 -0.016879533 0.0021377471)
(-0.0022162378 -0.015681167 0.00038149542)
(0.001209054 -0.0099652588 -0.00040456298)
(0.0032725439 -0.013136709 0.00076771754)
(0.0028892286 -0.013801092 0.00022273676)
(0.0021346479 -0.01400015 0.00076629243)
(0.0010743877 -0.01577664 0.0025903528)
(0.00018703773 -0.017081258 0.0029464118)
(0.00018701768 -0.016310849 0.0011546881)
(-0.00023622055 -0.017770157 0.0035935283)
(0.001409892 -0.016785932 0.002997032)
(0.0021489811 -0.015252592 0.0018230328)
(0.0020406937 -0.015334512 0.00029545266)
(0.0017316542 -0.01602325 -0.0004549998)
(0.00040299464 -0.015171595 -0.00054450656)
(-0.0013030022 0.017741881 0.0031097787)
(-0.0032417963 0.015282699 0.0035165998)
(0.0010959358 -0.00097604437 0.0035918907)
(0.002615602 0.0049813023 0.0007693572)
(0.0068642221 0.015072152 -0.00036136231)
(0.0065660668 0.018973364 -0.0028055704)
(-0.00057929281 0.019786145 -0.0032766471)
(-0.0037302835 0.015818175 -0.0038504335)
(-0.00055366245 0.0073345886 -0.0028388057)
(0.001917385 0.0047098789 -0.00077797847)
(0.0057310689 0.016522549 0.00069607989)
(0.0041811355 0.018643624 0.0017302631)
(-0.0037166207 0.018199877 0.0039011616)
(-0.0035384759 0.016414764 0.0053284147)
(-0.0015651184 0.017875445 0.0059781111)
(-0.001967629 0.018770523 0.0034211104)
(-0.0050400389 0.016214745 0.00080968775)
(0.00096603156 -0.0015486063 -0.001189939)
(0.0044601614 0.012306329 0.0022820197)
(0.0052256539 0.015933309 0.001624311)
(0.0045401322 0.016567333 0.00070074143)
(0.0018842769 0.017795263 0.0011503073)
(-0.0031121795 0.01889286 0.0024956515)
(-0.0040698823 0.018357746 0.0013863569)
(-0.0033285139 0.018807537 0.0026163342)
(0.0022359287 0.017097673 0.003053681)
(0.003665384 0.016966414 0.0022842856)
(0.0037699318 0.01711122 0.0015049966)
(0.0022345953 0.017545363 -0.00023414556)
(-6.1392089e-05 0.016714925 -0.0029601906)
(0.0011745277 -0.0066686203 0.0029654225)
(0.005159076 -0.014361616 0.00333866)
(0.0028579625 -0.014017319 0.0036176526)
(-0.0014450557 -0.013133181 -0.0010791138)
(-0.0014879569 -0.011372132 -0.0021593055)
(0.0021185439 0.0042529349 -0.0038739302)
(0.00092738289 0.0069566329 -0.0028733572)
(0.003781135 -0.0073523963 -0.0012180493)
(0.0040941212 -0.013235762 -0.00036291406)
(0.00060875532 -0.014374131 0.00099587067)
(-0.0030568177 -0.0095680522 0.0030927247)
(0.0016555498 0.006136259 0.0017796015)
(-0.0017395464 0.0039678325 0.0012259073)
(0.00075889011 -0.012496166 -0.0044972217)
(-0.0015097199 -0.016587983 -0.0038615339)
(-0.0012783809 0.00030856236 0.0015247104)
(0.0025127916 -0.011210568 0.0023605127)
(0.00059594483 -0.014759872 -0.0030807504)
(-0.00087924941 -0.013264563 -0.0052935753)
(-0.0013123576 -0.0064280843 -0.0040082382)
(0.00035988918 -0.0026617709 -0.0002107565)
(0.00057650872 0.0030046451 0.0023149376)
(-0.001814674 0.0025882494 0.0021211858)
(-0.0024268267 -0.0045795542 0.0024795113)
(-1.5979459e-06 -0.01666217 0.00065799008)
(-0.0013891432 -0.01701264 -0.0039197927)
(0.001306622 -0.0031145555 -0.0010961482)
(0.00063777352 0.0010462551 -0.00073901623)
(0.0012861088 0.0024083197 -0.0013789195)
(0.00073292568 -0.000106807 -0.0018207626)
(0.0026699623 0.0072965725 -0.0023519609)
(0.0016338113 0.012322211 -0.0030790047)
(-0.0027415804 0.0058929425 -0.00056779052)
(0.00054334867 0.0044511095 -0.00063665957)
(-0.0022445671 0.008491217 -0.0043444727)
(-0.0019058535 0.0093185058 -0.0036582274)
(0.001752919 0.010462302 -0.0023949428)
(0.0046414869 0.0094887345 0.00024071529)
(0.0026194462 0.0042095097 -0.00043326802)
(0.0017450269 0.0052219027 0.0011063505)
(-0.0032857624 0.010123862 0.0026585235)
(-0.00081159736 0.0094539415 0.001999734)
(0.0016161559 0.0091421603 -0.0013757305)
(0.0043426379 0.010994012 -0.0039768977)
(-0.0011812417 0.012546185 -0.0040556007)
(-0.0023049207 0.0077829097 0.00073879167)
(0.0017144985 0.0057868219 -0.0022769866)
(-0.0019367536 -0.0017044299 -0.0028664286)
(-0.0015102967 0.010043214 -0.0049079113)
(-0.0031141907 0.0084116768 -0.003472815)
(-0.0021384597 0.0078468552 0.00047382725)
(-0.00018396183 0.0087776603 0.0028763392)
(0.0006254648 0.0084231443 0.00089285895)
(0.0036519106 0.0084405132 0.0013517052)
(0.00014636972 0.012462727 0.00091470235)
(-0.0055472728 0.011152559 -0.0021227792)
(-0.0028324291 0.0072642199 -0.0014452529)
(-0.0012127757 0.0083166096 -0.0019746449)
(-3.8039963e-05 0.0088893589 -0.0011287505)
(0.0002215619 0.0079182248 0.00057039659)
(-0.0023540888 -0.010237129 0.0023669959)
(0.0014103351 -0.0010204752 -0.0025064733)
(0.0032015029 -0.0094605532 -0.0031309207)
(-0.003158853 -0.010099671 -0.0016511715)
(-0.0042985948 -0.0038677411 -0.00095479912)
(-0.003029311 0.0027689598 -0.0022212262)
(0.0013923619 0.0027547408 7.9997303e-05)
(0.0041140987 -0.0025503003 0.0010986873)
(0.0032276437 -0.0091829524 0.0028601614)
(-0.0039804928 -0.0080774319 0.00068752032)
(-0.0035341658 -0.001105223 0.00049934205)
(-0.001508081 0.0026769919 0.00093095191)
(0.0012357101 0.00066239258 -0.0027530871)
(0.0021198318 -0.0037378417 -0.0037005364)
(0.0034326867 -0.002508915 -0.0037727069)
(0.0050388501 -0.003183868 -0.0039004138)
(0.0057835237 -0.0085497122 -0.0043251497)
(-0.00060834158 -0.011868471 -0.0043669049)
(-0.0044094697 -0.010483847 -0.0026631672)
(-0.0022900901 -0.0059829637 -0.0016486727)
(-0.0021450959 -0.003012498 0.0010707412)
(6.9217236e-05 -0.00030313981 0.0023529222)
(0.0018093924 -0.0043598234 0.002901086)
(-0.00063690126 -0.0046194787 0.0020971443)
(0.00040358036 0.00062102123 -0.00046812602)
(0.0024951848 -0.0095720412 0.00058857672)
(-0.003203999 -0.0075911899 -0.00018929209)
(-0.0026910611 0.00025575265 -0.00096984077)
(-0.0011397793 0.0014521758 -0.0012698441)
(0.00020877964 -0.00070866653 -0.0016773638)
(-0.0006502824 -0.014917493 -0.0012291699)
(-0.0026014766 -0.014976594 -0.0011705544)
(-0.0030180397 -0.015037641 -0.00056751341)
(-0.0035281607 -0.014013361 -0.0017841012)
(-0.0010047568 -0.010828511 -0.0029639212)
(0.0015885807 -0.018970021 -0.0028998404)
(-0.00067783163 -0.017498437 -0.0015521166)
(-0.0021936693 -0.013506842 -0.0018815461)
(-0.0023109221 -0.010778189 -0.00072817067)
(0.0013572147 -0.011802544 1.1381557e-05)
(0.0032664392 -0.014562534 -0.0013829279)
(0.0026488621 -0.014579408 -0.0014188447)
(0.0015845632 -0.016361549 -0.0011268349)
(0.00080206269 -0.015867332 -4.8895849e-06)
(7.6041828e-05 -0.016213198 0.00016929535)
(-0.0019022469 -0.015733909 -0.00048142844)
(-0.0010817155 -0.011117301 -0.0017168306)
(0.0015580755 -0.020017337 0.0015076945)
(0.00046170529 -0.017364192 -0.0011752848)
(-0.00045284545 -0.016197806 -0.002561358)
(-0.0017013357 -0.014692645 -0.0017727074)
(-0.0024932171 -0.014045343 -0.0010103589)
(-0.0029162226 -0.013107857 -0.001527413)
(-0.00061149426 -0.011182241 -0.0017475799)
(0.0021977685 -0.016093701 -0.0027473237)
(0.0021100467 -0.016151142 -0.0039119406)
(0.0030534797 -0.015001435 -0.0038608876)
(0.0033032463 -0.015297121 -0.0035365452)
(0.0019792442 -0.01556775 -0.0024976671)
(0.00035488972 -0.013980491 -0.0030162488)
(-0.0016080595 0.016770243 0.0022829653)
(-0.0036837163 0.016941828 0.0020179129)
(-0.0032742632 0.015920991 0.0012976917)
(-0.0017236376 0.014103486 -0.0014811662)
(0.002354818 0.0020649308 -0.0032398583)
(0.0059511392 0.017164229 -0.0051349557)
(-0.0020788539 0.018681686 -0.0037035909)
(-0.003799782 0.012011383 -0.0027304574)
(-0.0014577124 0.0011645996 -0.00016426186)
(0.0010569459 0.00048393545 0.0014408824)
(0.0062733821 0.012964177 -0.0012062947)
(0.0061121564 0.016553714 -0.0018690383)
(0.0029684106 0.01792742 -0.0016141468)
(-0.0011137337 0.01777745 0.0022364477)
(-0.003212951 0.018343688 0.0029099315)
(-0.004940213 0.01677711 0.00047976722)
(0.00077334333 0.0019030241 0.00087044398)
(0.0046907312 0.017134589 -0.00024808859)
(0.0039834902 0.019567887 -0.0015983537)
(-0.0019730682 0.018167824 -0.0010149299)
(-0.0042543584 0.017156347 1.4719025e-06)
(-0.0046956291 0.016134771 -0.00017445145)
(-0.0041875375 0.012828502 -0.00071523104)
(-0.0022507597 0.0025750357 0.00037416705)
(0.0031264455 0.017199442 -0.0031408066)
(0.0033585155 0.017042383 -0.0051187478)
(0.0039067819 0.015974835 -0.0059072537)
(0.0043108322 0.017171325 -0.0057370181)
(0.00062956212 0.017700692 -0.0047590773)
(-0.00063378971 0.014820368 -0.005402163)
(0.00039004839 0.00055069264 0.002630618)
(0.0017581284 -0.0031312005 0.0029471581)
(0.0032595083 -0.011378814 0.0019543501)
(0.004498586 -0.016090159 0.0021296515)
(5.6590767e-05 -0.013572803 -0.00088408047)
(0.0008641128 -0.0064715258 -0.0032747191)
(0.00089546478 0.00022659329 -0.0020764368)
(0.0034040715 -0.013474132 -0.0011736808)
(0.0018805665 -0.013456549 0.0016044731)
(-0.0017301541 -0.014783807 0.0039964498)
(-0.0052678056 -0.013691099 0.0043967561)
(0.00029390085 -8.1661784e-05 0.001035669)
(0.00029696116 0.0046992382 0.00032125976)
(0.0011665348 0.0043465685 0.00057241164)
(-0.0012201131 0.0037023796 0.0031925893)
(0.0041563842 -0.013141148 0.0013466471)
(0.0017597266 -0.015749573 0.0026061424)
(-0.0024304322 -0.018748833 -0.0032260595)
(0.0023155909 0.0054255909 -0.0022416059)
(-0.0027500794 0.0035684511 -0.0011054831)
(0.00012620674 -0.0055272465 0.0013049917)
(0.00033015406 -0.012108592 0.006563044)
(0.0024640184 -0.012367824 0.0071250369)
(-0.00041851523 -0.014225085 0.0041492231)
(-0.0036285438 -0.016676965 0.0016237346)
(0.00016377929 -0.0087438018 -0.00043403452)
(0.0013799979 -0.0097252611 -0.0015986459)
(0.0022508423 -0.00027757708 -0.0025586414)
(0.0008515356 -0.0014137451 -0.00081281075)
(0.0016468211 -0.014486674 0.0061350725)
(0.0016517625 0.0086532001 0.00068610632)
(0.003882897 0.0085659488 -0.00018753353)
(0.0045254837 0.011388807 -0.00080190937)
(0.0020451723 0.012538191 -0.0021972716)
(0.0012735473 0.00077473004 -0.0021978837)
(-4.465599e-05 0.0080277603 -0.0024209484)
(0.0015496337 0.0083522977 -0.00080419954)
(0.0020382458 0.0091662972 -0.0016176563)
(-0.0014540445 -0.001498539 0.0026050694)
(0.00045463424 0.0087241742 0.0030139495)
(-0.0046022082 0.010030705 0.001662536)
(-0.0030907296 0.0071442197 0.0028921252)
(-0.00065324799 0.0095315084 0.00015153396)
(0.00092695029 0.0088947918 -0.0016563204)
(0.0024280773 0.0077337907 -0.00019070861)
(0.0037697834 0.011622955 0.0022286396)
(-0.00088597692 0.010575313 -0.00020707886)
(-0.003992694 0.011129951 0.0010864149)
(-0.0011501416 0.0076652622 -0.000489402)
(-0.00084097953 0.0088586435 -0.0011680697)
(0.0021578196 0.0084094326 0.00094800742)
(0.0025315677 0.011750997 0.0049249205)
(0.0029730931 0.0083193227 0.004410321)
(0.0052095391 0.0082931544 0.0032791769)
(0.0016697589 0.012947206 -0.00070620912)
(-0.00025932837 0.0026631954 -0.00088130363)
(0.0003701684 0.0089362471 0.00020495372)
(0.00020576449 0.0079439981 -0.00042471919)
(0.0026985535 0.008203021 0.002127618)
(0.0030916743 0.011484898 0.0043340958)
(0.0015433218 -0.0040180229 9.1774878e-05)
(0.002699261 -0.0050928836 0.0009071213)
(0.0029633296 -0.0044111012 9.2911142e-05)
(0.00516296 -0.0061882004 0.00031894284)
(0.0040134355 -0.0098070095 0.0018107729)
(-0.0027299099 -0.0058478658 0.0027561889)
(0.00098064788 0.00072013387 0.001724666)
(0.0036673319 -0.0081214131 0.0039189241)
(-0.0021321074 -0.010104945 0.0040955718)
(-0.0063002849 -0.0077779073 0.002823004)
(-0.0044055389 -0.003019733 0.0023493837)
(-0.0029688408 -0.0010605794 0.0026552576)
(-0.0011589143 0.0024626733 0.00099424325)
(0.0016182551 0.00065779682 -0.0011086614)
(0.0025950329 -0.0013313608 -0.00021426063)
(0.0040453532 -0.0025230114 -0.00059222634)
(0.0050800763 -0.0079514082 -0.0017313767)
(0.0012602311 -0.014370924 -0.0039327933)
(-0.0023679534 -0.0043530027 -0.0022417223)
(-9.3921079e-05 -0.00035456358 -0.0013522909)
(0.0013232225 -0.0080613217 0.0011574535)
(0.002039899 -0.010511651 0.0026496526)
(0.0033403005 -0.012114629 0.0036154954)
(0.00020613556 -0.011513685 0.0044624182)
(0.001952807 -0.0052470441 0.0038319057)
(0.0022789802 -0.0088692258 0.0038861933)
(-0.0039653912 -0.010023015 0.0038497159)
(-0.0025637297 -0.0030623925 0.0026526109)
(-0.0024324815 -0.0025692443 0.0025232064)
(-3.5692704e-06 -0.00086353827 0.0038278863)
(-0.00069205137 -0.014456926 -0.0018822132)
(-0.0032914658 -0.013421601 -0.0017852048)
(-0.0042038428 -0.012596621 -0.0014892647)
(-0.0024015362 -0.011785836 -0.0016302507)
(-8.1061923e-05 -0.011699586 -0.0019590992)
(0.001344635 -0.017948847 -0.0021480113)
(-0.0013118792 -0.019170054 0.00039775267)
(-0.0019758796 -0.012391459 0.00076554785)
(-0.0022518845 -0.011993244 0.00091090833)
(0.0008192306 -0.013212049 0.00028280896)
(0.0024716266 -0.01197367 -0.0010012122)
(0.0029703726 -0.015279298 -0.0012498186)
(0.0003276663 -0.015466369 -0.0013984817)
(-7.2455289e-05 -0.018247645 -0.0013904248)
(0.00010507014 -0.015266197 -0.0035057002)
(-0.0016590989 -0.014932171 -0.0037483637)
(-0.0034087555 -0.01549751 -0.0030941701)
(-0.0042158338 -0.014253886 -0.001713069)
(-0.0028568934 -0.011616213 3.2871064e-05)
(0.00045492284 -0.01313526 -0.0005355423)
(4.5416824e-07 -0.013493482 -0.0035643119)
(0.00052324466 -0.012532805 -0.0023502026)
(0.0030409382 -0.011474163 -0.0027483465)
(0.0038605766 -0.015469169 -0.0034265209)
(-0.0012552998 -0.016806206 -0.0018245811)
(-0.0015097705 -0.011496217 0.0003443709)
(-0.0023186728 0.016514588 0.00015124011)
(-0.0041687388 0.015641482 0.00051240754)
(-0.002946035 0.010522843 0.0012616975)
(3.6883716e-05 0.0005192662 0.00035592504)
(0.0017498585 0.0013367246 -0.001847444)
(0.005013564 0.015191362 -0.0041887217)
(-0.0013128061 0.019734998 -0.0020731595)
(-0.0022930535 0.0071711888 -0.00028884412)
(-0.0022660841 0.0035196557 0.0019165358)
(0.0021360384 0.0010070431 -0.00097947846)
(0.0021688261 0.0015006338 -0.0018543622)
(0.0059393342 0.015737888 -0.0020583559)
(0.0025396391 0.017224194 -0.0034388043)
(0.00029516043 0.019803936 -0.0023837063)
(0.0040190841 0.01663484 -0.0045174012)
(0.0020724868 0.017302877 -0.0027106767)
(-0.005302683 0.01699949 0.0017727936)
(-0.0051406208 0.011981724 0.0030313855)
(-0.0024051313 0.00030861946 0.0032655552)
(-0.0013171867 0.0037357001 0.0014816716)
(-0.00010898204 0.010126071 -0.00095295458)
(0.00056702581 -0.00025187796 -0.00028481585)
(0.0018854531 0.00063249899 -0.0009437013)
(0.0041139876 0.01515278 -0.0036704366)
(-0.0022258236 0.018432434 -0.0013105712)
(0.0012656725 -0.0012764231 0.0025320787)
(0.00017354161 0.0017022591 0.00055321282)
(0.0029474495 -0.0058488028 0.0019174508)
(0.004975332 -0.014283752 0.0012660326)
(0.0025826738 -0.014614579 0.00059067393)
(-0.0018527792 -0.013578607 -0.0011110271)
(-4.5549217e-05 -0.014877142 0.00078854572)
(0.0019650319 -0.0065649548 -0.0018851054)
(0.0027513288 -0.012759437 -0.0018119888)
(0.0016116568 -0.013286124 0.0014919695)
(0.0015359552 -0.014849302 -0.0033958891)
(-0.0038313533 -0.014859458 -0.0018498267)
(-0.0031737975 -0.011322051 -0.001055206)
(0.0013067308 0.0031106412 -0.0004137508)
(0.00070583342 -0.018880888 -0.0035372323)
(-0.0018866265 -0.016165869 0.0025429819)
(0.0009055862 0.0043101919 -0.00032191147)
(-0.0015239788 -0.00019579805 0.0010676272)
(0.0043457873 -0.015240157 0.0019280207)
(0.001542149 -0.015458849 0.0035192136)
(-0.0020078771 -0.01366944 0.00097525775)
(0.00067112533 -0.014292111 0.0013472552)
(0.0020041628 -0.01385918 0.0021511197)
(-0.00066412405 -0.01346063 0.0015572288)
(0.00071316636 -0.011324732 0.004614692)
(0.0032648387 -0.015069571 0.0033773819)
(0.0034352453 -0.014893243 0.0029125051)
(0.0018814167 0.0082988296 -0.00072038573)
(0.004700857 0.0085623423 -0.0017990642)
(0.0040745454 0.011197801 -0.0032993505)
(0.0015541741 0.0087220528 -0.0037631316)
(0.0026267577 -0.00042704434 -0.0021531053)
(0.0018699202 0.0020228196 -0.0012732567)
(0.0014160653 0.0085193999 -0.0021738612)
(0.001516116 0.00060456861 0.001162862)
(-0.0017612708 -0.0013837769 0.0025479327)
(0.00089781097 0.010576626 -0.001001301)
(-0.0031315847 0.010440108 -0.00086168479)