/*--------------------------------*- C++ -*----------------------------------*\
| =========                 |                                                 |
| \\      /  F ield         | OpenFOAM: The Open Source CFD Toolbox           |
|  \\    /   O peration     | Version:  v2012                                 |
|   \\  /    A nd           | Website:  www.openfoam.com                      |
|    \\/     M anipulation  |                                                 |
\*---------------------------------------------------------------------------*/
FoamFile
{
    version     2.0;
    format      ascii;
    class       volScalarField;
    location    "180/rightSolid";
    object      T;
}
// * * * * * * * * * * * * * * * * * * * * * * * * * * * * * * * * * * * * * //

dimensions      [0 0 0 1 0 0 0];


internalField   nonuniform List<scalar> 
130
(
670.1447
675.89151
681.83212
687.65969
693.12878
698.08461
702.46565
706.24907
709.4299
711.96127
713.84669
715.09978
715.72732
665.70878
672.49174
679.33993
685.90242
691.91453
697.27118
701.93167
705.90448
709.19987
711.80798
713.74146
715.02397
715.66467
656.68156
665.84179
674.63861
682.66792
689.74244
695.83482
701.00731
705.31727
708.8192
711.558
713.56861
714.89628
715.5579
643.08551
656.76953
668.7546
678.8786
687.31757
694.30064
700.04152
704.70737
708.43638
711.30643
713.39972
714.77926
715.45954
627.08562
648.235
663.90975
676.00349
685.57078
693.23572
699.38257
704.29748
708.18219
711.14365
713.29053
714.69862
715.39316
627.27561
648.38592
664.01889
676.06222
685.57421
693.19852
699.34875
704.26641
708.15261
711.12315
713.28391
714.70635
715.41214
643.53753
657.13958
668.99615
679.00053
687.34964
694.27849
700.00322
704.6762
708.41466
711.30339
713.41227
714.7997
715.494
657.17263
666.25496
674.95165
682.85336
689.83179
695.89162
701.05674
705.35955
708.8599
711.59919
713.61381
714.94349
715.60889
666.18303
672.87908
679.62246
686.0648
692.00478
697.35758
702.03908
706.01687
709.30272
711.90359
713.83339
715.1091
715.73282
670.61844
676.27479
682.11061
687.82659
693.22339
698.17833
702.5932
706.38788
709.55288
712.0692
713.94585
715.18648
715.7928
)
;

boundaryField
{
    maxX
    {
        type            zeroGradient;
    }
    minZ
    {
        type            zeroGradient;
    }
    maxZ
    {
        type            zeroGradient;
    }
    rightSolid_to_bottomWater
    {
        type            compressible::turbulentTemperatureCoupledBaffleMixed;
        refValue        nonuniform List<scalar> 
130
(
976.19197
977.15212
979.90987
983.71962
985.9852
984.60168
983.71794
983.91162
990.00443
991.83758
992.5333
993.29192
994.07609
976.76537
978.71075
981.06711
987.51054
986.99141
986.9851
985.67368
986.73358
990.63688
992.94715
993.62484
994.84957
995.54632
971.48401
973.0191
975.06369
980.37357
983.56536
983.09913
985.73679
988.81948
991.02908
994.02063
993.88628
994.89
995.62468
952.13548
959.66571
973.76541
979.58447
982.9608
984.76129
987.12267
988.12481
991.64632
992.34468
992.14036
994.6542
994.3493
944.13172
961.69188
965.23874
970.4305
976.76259
984.36328
985.96147
987.28987
991.73318
991.81252
991.0855
992.29739
991.91283
955.12417
964.75854
969.37771
973.6567
975.92198
977.59548
984.43796
985.75767
989.27462
989.57727
990.21711
993.13371
994.24831
967.94
972.10561
977.23808
979.33052
981.41527
981.496
984.34976
988.3263
991.67564
993.56837
993.90602
994.66887
996.60077
975.13196
979.93568
984.3497
984.44824
983.48577
985.94266
990.1747
991.56571
993.87127
995.46927
995.28562
995.63628
997.18194
977.80652
981.17804
983.17948
983.96266
982.79833
988.1529
991.58829
992.64645
994.81073
996.48095
997.48589
999.05706
996.26543
978.96808
980.40378
981.98884
981.67344
981.24372
983.67195
988.77451
989.6812
993.01545
993.78583
995.12321
996.14155
994.01943
)
;
        refGradient     uniform 0;
        valueFraction   nonuniform List<scalar> 
130
(
0.0075140686
0.0075140686
0.0075140686
0.0075140686
0.0075140686
0.0075140686
0.0075140686
0.0075140686
0.0075140686
0.0075140686
0.0075140686
0.0075140686
0.0075140686
0.0075140686
0.0075140686
0.0075140686
0.0075140686
0.0075140686
0.0075140686
0.0075140686
0.0075140686
0.0075140686
0.0075140686
0.0075140686
0.0075140686
0.0075140686
0.0075140686
0.0075140686
0.0075140686
0.0075140686
0.0075140686
0.0075140686
0.0075140686
0.0075140686
0.0075140686
0.0075140686
0.0075140686
0.0075140686
0.0075140686
0.0075140686
0.0075140686
0.0075140686
0.0075140686
0.0075140686
0.0075140686
0.0075140686
0.0075140686
0.0075140686
0.0075140686
0.0075140686
0.0075140686
0.0075140686
0.0075140686
0.0075140686
0.0075140686
0.0075140686
0.0075140686
0.0075140686
0.0075140686
0.0075140686
0.0075140686
0.0075140686
0.0075140686
0.0075140686
0.0075140686
0.0075140686
0.0075140686
0.0075140686
0.0075140686
0.0075140686
0.0075140686
0.0075140686
0.0075140686
0.0075140686
0.0075140686
0.0075140686
0.0075140686
0.0075140686
0.0075140686
0.0075140686
0.0075140686
0.0075140686
0.0075140686
0.0075140686
0.0075140686
0.0075140686
0.0075140686
0.0075140686
0.0075140686
0.0075140686
0.0075140686
0.0075140686
0.0075140686
0.0075140686
0.0075140686
0.0075140686
0.0075140686
0.0075140686
0.0075140686
0.0075140686
0.0075140686
0.0075140686
0.0075140686
0.0075140686
0.0075140686
0.0075140686
0.0075140686
0.0075140686
0.0075140686
0.0075140686
0.0075140686
0.0075140686
0.0075140686
0.0075140686
0.0075140686
0.0075140686
0.0075140686
0.0075140686
0.0075140686
0.0075140686
0.0075140686
0.0075140686
0.0075140686
0.0075140686
0.0075140686
0.0075140686
0.0075140686
0.0075140686
0.0075140686
0.0075140686
)
;
        value           nonuniform List<scalar> 
130
(
672.43129
678.1417
684.05792
689.8699
695.31452
700.22235
704.56349
708.31962
711.52208
714.04797
715.92427
717.17353
717.80218
668.03324
674.77938
681.59335
688.1545
694.11711
699.43309
704.04833
707.99891
711.29859
713.9042
715.82806
717.11
717.75106
659.03463
668.13699
676.88254
684.89097
691.93583
697.97847
703.1315
707.43187
710.92378
713.66419
715.65848
716.98358
717.64568
645.39593
659.03291
671.03327
681.12438
689.52478
696.46842
702.18347
706.82141
710.54853
713.40194
715.47776
716.86568
717.53848
629.45669
650.57803
666.16084
678.20208
687.74458
695.40857
701.52078
706.40831
710.29688
713.23636
715.36143
716.76791
717.45426
629.72782
650.75093
666.3003
678.28459
687.74155
695.32069
701.47567
706.36589
710.24896
713.19916
715.34828
716.78182
717.49061
645.96319
659.49365
671.29898
681.24328
689.54474
696.42164
702.12434
706.79168
710.52691
713.40794
715.50334
716.88596
717.58951
659.54922
668.59892
677.26284
685.10536
692.02362
698.05596
703.21365
707.49422
710.98529
713.71579
715.71372
717.03594
717.70789
668.51157
675.18225
681.88951
688.28884
694.17498
699.5274
704.19916
708.15468
711.43182
714.02549
715.94816
717.22598
717.82398
672.92212
678.5464
684.34984
690.02006
695.37264
700.30822
704.72791
708.50059
711.66659
714.16957
716.042
717.28084
717.86658
)
;
        Tnbr            T;
        thicknessLayers List<scalar> 0();
        kappaLayers     List<scalar> 0();
        kappaMethod     solidThermo;
        kappa           none;
        alphaAni        none;
        alpha           none;
        field           T;
    }
    rightSolid_to_topAir
    {
        type            compressible::turbulentTemperatureCoupledBaffleMixed;
        refValue        nonuniform List<scalar> 
130
(
454.17598
451.15316
448.04564
445.20219
442.81406
440.95817
439.65489
438.91555
438.78159
439.37053
440.96708
444.16282
449.56007
418.78256
415.13002
412.30688
410.25961
408.83094
407.88092
407.33541
407.19736
407.55798
408.65228
411.05884
415.99792
423.35292
424.91866
417.23553
410.418
404.97138
400.88534
397.96033
396.01271
394.93498
394.69149
395.35066
397.37452
402.4258
414.08193
457.20879
455.0076
452.76399
450.6504
448.56793
446.42064
444.24333
442.20391
440.55156
439.93401
442.48985
450.36355
459.00994
457.74743
460.47762
464.53988
468.8935
473.00703
476.76009
480.02704
482.69805
484.75501
486.43985
488.52414
492.41606
499.93795
457.44941
460.80231
465.20978
469.54294
473.67074
477.46035
480.7799
483.54104
485.76167
487.68519
490.02236
494.14877
501.87701
457.00684
455.31698
453.6357
451.98444
450.27684
448.46323
446.6772
445.18975
444.25468
444.37872
447.49161
455.04282
463.41147
424.88784
417.24415
410.47874
405.03457
400.87354
397.80296
395.67282
394.41771
394.03405
394.6006
396.58905
401.81247
414.08377
418.8411
415.2025
412.41853
410.39469
408.95017
407.93957
407.30184
407.06309
407.33215
408.34696
410.6817
415.60209
423.19313
454.34588
451.32343
448.22844
445.39902
443.01585
441.15065
439.82503
439.05658
438.89449
439.46148
441.04577
444.25619
449.73509
)
;
        refGradient     uniform 0;
        valueFraction   nonuniform List<scalar> 
130
(
0.00032132529
0.00032132529
0.00032132529
0.00032132529
0.00032132529
0.00032132529
0.00032132529
0.00032132529
0.00032132529
0.00032132529
0.00032132529
0.00032132529
0.00032132529
0.00032132529
0.00032132529
0.00032132529
0.00032132529
0.00032132529
0.00032132529
0.00032132529
0.00032132529
0.00032132529
0.00032132529
0.00032132529
0.00032132529
0.00032132529
0.00032132529
0.00032132529
0.00032132529
0.00032132529
0.00032132529
0.00032132529
0.00032132529
0.00032132529
0.00032132529
0.00032132529
0.00032132529
0.00032132529
0.00032132529
0.00032132529
0.00032132529
0.00032132529
0.00032132529
0.00032132529
0.00032132529
0.00032132529
0.00032132529
0.00032132529
0.00032132529
0.00032132529
0.00032132529
0.00032132529
0.00032132529
0.00032132529
0.00032132529
0.00032132529
0.00032132529
0.00032132529
0.00032132529
0.00032132529
0.00032132529
0.00032132529
0.00032132529
0.00032132529
0.00032132529
0.00032132529
0.00032132529
0.00032132529
0.00032132529
0.00032132529
0.00032132529
0.00032132529
0.00032132529
0.00032132529
0.00032132529
0.00032132529
0.00032132529
0.00032132529
0.00032132529
0.00032132529
0.00032132529
0.00032132529
0.00032132529
0.00032132529
0.00032132529
0.00032132529
0.00032132529
0.00032132529
0.00032132529
0.00032132529
0.00032132529
0.00032132529
0.00032132529
0.00032132529
0.00032132529
0.00032132529
0.00032132529
0.00032132529
0.00032132529
0.00032132529
0.00032132529
0.00032132529
0.00032132529
0.00032132529
0.00032132529
0.00032132529
0.00032132529
0.00032132529
0.00032132529
0.00032132529
0.00032132529
0.00032132529
0.00032132529
0.00032132529
0.00032132529
0.00032132529
0.00032132529
0.00032132529
0.00032132529
0.00032132529
0.00032132529
0.00032132529
0.00032132529
0.00032132529
0.00032132529
0.00032132529
0.00032132529
0.00032132529
0.00032132529
0.00032132529
)
;
        value           nonuniform List<scalar> 
130
(
670.06214
675.80569
681.74293
687.56727
693.03344
697.98671
702.36558
706.14723
709.32674
711.85725
713.7424
714.996
715.625
665.6165
672.39564
679.24025
685.79952
691.80882
697.16306
701.8215
705.79264
709.08681
711.69417
713.62762
714.91116
715.55396
656.59462
665.74887
674.54013
682.56465
689.6351
695.72412
700.89391
705.20177
708.70218
711.44003
713.45044
714.77917
715.44424
643.01389
656.692
668.6719
678.79142
687.22648
694.20613
699.94402
704.60733
708.33428
711.20288
713.29611
714.6776
715.36035
627.01989
648.16227
663.83248
675.92309
685.48814
693.15135
699.29681
704.21057
708.09435
711.05507
713.20171
714.61047
715.30712
627.20969
648.31332
663.94183
675.98198
685.49166
693.11428
699.26315
704.1797
708.06501
711.03492
713.19553
714.61871
715.32669
643.46558
657.06203
668.91353
678.91353
687.25883
694.18438
699.90622
704.57682
708.31347
711.20109
713.31013
714.69942
715.39613
657.08533
666.1618
674.85292
682.74979
689.72413
695.7806
700.94296
705.24361
708.74242
711.48079
713.49523
714.82605
715.49513
666.09043
672.78277
679.5226
685.96173
691.89888
697.24924
701.92865
705.90475
709.18935
711.78949
713.71925
714.99602
715.62192
670.53557
676.18877
682.02128
687.73407
693.12793
698.0803
702.49298
706.28589
709.44954
711.96502
713.84141
715.08255
715.69036
)
;
        Tnbr            T;
        thicknessLayers List<scalar> 0();
        kappaLayers     List<scalar> 0();
        kappaMethod     solidThermo;
        kappa           none;
        alphaAni        none;
        alpha           none;
        field           T;
    }
    rightSolid_to_heater
    {
        type            compressible::turbulentTemperatureCoupledBaffleMixed;
        refValue        nonuniform List<scalar> 10(664.94205 659.47208 647.95238 628.83594 596.94499 597.11604 629.32539 648.53907 660.04365 665.5088);
        refGradient     uniform 0;
        valueFraction   nonuniform List<scalar> 10(0.50000003 0.50000003 0.50000003 0.50000003 0.50000003 0.50000003 0.50000003 0.50000003 0.50000003 0.50000003);
        value           nonuniform List<scalar> 10(667.53679 662.58396 652.31073 635.95478 612.00964 612.19015 636.42545 652.84951 663.10678 668.05693);
        Tnbr            T;
        thicknessLayers List<scalar> 0();
        kappaLayers     List<scalar> 0();
        kappaMethod     solidThermo;
        kappa           none;
        alphaAni        none;
        alpha           none;
        field           T;
    }
}


// ************************************************************************* //
