/*--------------------------------*- C++ -*----------------------------------*\
| =========                 |                                                 |
| \\      /  F ield         | OpenFOAM: The Open Source CFD Toolbox           |
|  \\    /   O peration     | Version:  v2012                                 |
|   \\  /    A nd           | Website:  www.openfoam.com                      |
|    \\/     M anipulation  |                                                 |
\*---------------------------------------------------------------------------*/
FoamFile
{
    version     2.0;
    format      ascii;
    class       volScalarField;
    location    "450/leftSolid";
    object      T;
}
// * * * * * * * * * * * * * * * * * * * * * * * * * * * * * * * * * * * * * //

dimensions      [0 0 0 1 0 0 0];


internalField   nonuniform List<scalar> 
130
(
896.29153
896.25356
896.1715
896.04342
895.8682
895.69612
895.53319
895.37808
895.22934
895.08193
894.92316
894.80326
894.73371
896.30699
896.26655
896.17742
896.03505
895.83557
895.64069
895.45393
895.27399
895.10249
894.93339
894.7915
894.68436
894.62207
896.33956
896.29556
896.19798
896.04065
895.81952
895.57924
895.34599
895.11732
894.90482
894.71809
894.56662
894.45713
894.39584
896.39301
896.34577
896.24324
896.07122
895.83146
895.55124
895.25834
894.95733
894.67457
894.43172
894.23739
894.10299
894.03019
896.48672
896.4343
896.3181
896.12551
895.86939
895.57354
895.23691
894.85946
894.46663
894.11727
893.83281
893.63197
893.51483
896.6024
896.54108
896.40809
896.19522
895.9299
895.62368
895.26201
894.84323
894.37658
893.97234
893.64847
893.41752
893.27672
896.69102
896.6332
896.498
896.27846
896.01122
895.70564
895.34381
894.91482
894.44488
894.03233
893.71085
893.47376
893.33734
896.77367
896.72264
896.6078
896.42629
896.18282
895.89391
895.561
895.17289
894.73657
894.31052
893.9812
893.73837
893.58984
896.85274
896.80573
896.70378
896.54462
896.32704
896.05002
895.73247
895.37515
894.98542
894.61011
894.28785
894.04362
893.90353
896.89581
896.84989
896.75553
896.60777
896.40555
896.14734
895.82661
895.48392
895.14094
894.80981
894.51174
894.27412
894.13347
)
;

boundaryField
{
    minX
    {
        type            zeroGradient;
    }
    minZ
    {
        type            zeroGradient;
    }
    maxZ
    {
        type            zeroGradient;
    }
    leftSolid_to_bottomWater
    {
        type            compressible::turbulentTemperatureCoupledBaffleMixed;
        refValue        nonuniform List<scalar> 
130
(
970.06401
969.92981
969.64552
969.61901
965.07106
964.60767
965.0997
965.79363
966.76408
968.26892
962.08894
960.56588
959.0967
970.28708
970.29041
970.08261
969.88684
963.22735
962.93151
963.2722
963.48733
964.24243
961.05564
961.21485
961.08303
960.62734
970.57647
970.64713
970.41014
970.21131
965.25488
961.65766
961.57315
960.64882
960.25863
960.29715
960.68263
960.9543
961.0219
970.40443
970.50165
971.58937
970.94269
967.26432
962.97797
960.92506
957.72919
956.54753
957.21234
957.49985
958.57754
959.43931
972.42814
972.9055
973.35812
971.13207
967.50655
966.61465
964.74113
959.93059
951.52883
945.99878
941.24832
939.29932
936.02958
975.46525
975.13561
974.4611
970.16423
967.21725
966.87736
964.64765
961.19237
946.56195
941.90063
938.55868
937.06118
931.75633
974.40768
975.39549
974.25902
967.84143
963.79853
962.79542
960.64392
954.66818
943.96605
940.14936
940.18473
937.46095
934.67269
973.99037
974.44063
974.02601
973.06367
969.92786
968.20213
967.8588
965.85513
957.74376
945.28646
944.63655
943.41819
936.77641
975.43886
975.28179
974.62806
974.03395
973.18431
969.56574
968.28863
966.34871
959.34977
953.63357
948.817
945.19532
941.77376
975.95437
975.06793
974.67006
973.99961
973.36128
973.025
966.39382
962.96704
961.41893
958.80892
955.18188
950.71153
946.21721
)
;
        refGradient     uniform 0;
        valueFraction   nonuniform List<scalar> 
130
(
0.0075140686
0.0075140686
0.0075140686
0.0075140686
0.0075140686
0.0075140686
0.0075140686
0.0075140686
0.0075140686
0.0075140686
0.0075140686
0.0075140686
0.0075140686
0.0075140686
0.0075140686
0.0075140686
0.0075140686
0.0075140686
0.0075140686
0.0075140686
0.0075140686
0.0075140686
0.0075140686
0.0075140686
0.0075140686
0.0075140686
0.0075140686
0.0075140686
0.0075140686
0.0075140686
0.0075140686
0.0075140686
0.0075140686
0.0075140686
0.0075140686
0.0075140686
0.0075140686
0.0075140686
0.0075140686
0.0075140686
0.0075140686
0.0075140686
0.0075140686
0.0075140686
0.0075140686
0.0075140686
0.0075140686
0.0075140686
0.0075140686
0.0075140686
0.0075140686
0.0075140686
0.0075140686
0.0075140686
0.0075140686
0.0075140686
0.0075140686
0.0075140686
0.0075140686
0.0075140686
0.0075140686
0.0075140686
0.0075140686
0.0075140686
0.0075140686
0.0075140686
0.0075140686
0.0075140686
0.0075140686
0.0075140686
0.0075140686
0.0075140686
0.0075140686
0.0075140686
0.0075140686
0.0075140686
0.0075140686
0.0075140686
0.0075140686
0.0075140686
0.0075140686
0.0075140686
0.0075140686
0.0075140686
0.0075140686
0.0075140686
0.0075140686
0.0075140686
0.0075140686
0.0075140686
0.0075140686
0.0075140686
0.0075140686
0.0075140686
0.0075140686
0.0075140686
0.0075140686
0.0075140686
0.0075140686
0.0075140686
0.0075140686
0.0075140686
0.0075140686
0.0075140686
0.0075140686
0.0075140686
0.0075140686
0.0075140686
0.0075140686
0.0075140686
0.0075140686
0.0075140686
0.0075140686
0.0075140686
0.0075140686
0.0075140686
0.0075140686
0.0075140686
0.0075140686
0.0075140686
0.0075140686
0.0075140686
0.0075140686
0.0075140686
0.0075140686
0.0075140686
0.0075140686
0.0075140686
0.0075140686
0.0075140686
)
;
        value           nonuniform List<scalar> 
130
(
896.8427
896.804
896.72041
896.59308
896.38499
896.21071
896.05269
895.90395
895.76359
895.62859
895.42458
895.29408
895.21398
896.85972
896.8196
896.72956
896.58677
896.33873
896.1431
895.9603
895.78331
895.61877
895.427
895.28735
895.17999
895.11471
896.89422
896.85107
896.75242
896.59475
896.33802
896.07251
895.84038
895.60648
895.39264
895.2076
895.06015
894.9535
894.89316
896.94595
896.89979
896.80617
896.63057
896.36498
896.05463
895.7485
895.42573
895.13621
894.90018
894.70946
894.58416
894.51838
897.05412
897.00567
896.89373
896.68586
896.40443
896.10408
895.75591
895.34515
894.89215
894.50389
894.18587
893.97187
893.83104
897.19175
897.12841
896.99133
896.74778
896.46235
896.1559
895.78021
895.33862
894.76554
894.32932
893.98273
893.74227
893.56266
897.27176
897.22177
897.07904
896.81293
896.51739
896.20664
895.83143
895.36077
894.81385
894.37572
894.05692
893.80118
893.64487
897.35063
897.30337
897.18628
896.99891
896.73374
896.43409
896.10117
895.70097
895.20705
894.69062
894.35891
894.10873
893.91147
897.43997
897.39213
897.28605
897.12364
896.90134
896.59925
896.27456
895.90541
895.46613
895.05078
894.69482
894.42523
894.26054
897.48656
897.43435
897.33771
897.18605
896.98059
896.72184
896.3538
895.98801
895.63607
895.28792
894.96491
894.69552
894.52219
)
;
        Tnbr            T;
        thicknessLayers List<scalar> 0();
        kappaLayers     List<scalar> 0();
        kappaMethod     solidThermo;
        kappa           none;
        alphaAni        none;
        alpha           none;
        field           T;
    }
    leftSolid_to_heater
    {
        type            compressible::turbulentTemperatureCoupledBaffleMixed;
        refValue        nonuniform List<scalar> 10(734.07717 724.6673 704.80125 672.46079 625.25204 625.04399 671.69455 703.6299 723.29435 732.67276);
        refGradient     uniform 0;
        valueFraction   nonuniform List<scalar> 10(2.08329e-05 2.08329e-05 2.08329e-05 2.08329e-05 2.08329e-05 2.08329e-05 2.08329e-05 2.08329e-05 2.08329e-05 2.08329e-05);
        value           nonuniform List<scalar> 10(894.72698 894.61517 894.38855 894.02226 893.50597 893.26791 893.32963 893.58298 893.89726 894.12745);
        Tnbr            T;
        thicknessLayers List<scalar> 1(0.001);
        kappaLayers     List<scalar> 1(0.0005);
        kappaMethod     solidThermo;
        kappa           none;
        alphaAni        none;
        alpha           none;
        field           T;
    }
    leftSolid_to_topAir
    {
        type            compressible::turbulentTemperatureCoupledBaffleMixed;
        refValue        nonuniform List<scalar> 
130
(
324.25437
346.69022
366.99315
385.73985
403.4126
420.30481
436.53709
451.992
466.33853
479.53839
491.46521
501.8871
510.30339
324.24895
346.44304
366.27279
384.31537
401.01721
416.61423
431.17312
444.63053
456.78892
467.3196
475.74549
481.48256
483.77857
324.2474
346.48326
366.37194
384.48872
401.28756
417.01411
431.77403
445.60023
458.42503
470.05682
480.13104
488.03815
492.65561
324.2494
346.50154
366.42804
384.61018
401.51964
417.43418
432.51075
446.83964
460.4519
473.29451
485.15972
495.52373
503.21534
324.25252
346.51209
366.45075
384.64943
401.58135
417.52636
432.64123
447.01104
460.65439
473.48448
485.18944
495.02867
501.82446
324.25726
346.52081
366.46246
384.66318
401.59716
417.54479
432.66533
447.0507
460.7358
473.6744
485.65213
496.09812
503.74688
324.26171
346.52454
366.45948
384.64777
401.56242
417.48285
432.56641
446.90675
460.54762
473.47256
485.55131
496.40677
505.02753
324.26524
346.51665
366.4182
384.54541
401.35231
417.08389
431.8538
445.68556
458.51772
470.18727
480.39436
488.64243
493.98375
324.27152
346.48616
366.33418
384.39376
401.11277
416.72314
431.2806
444.72848
456.8715
467.38932
475.83981
481.71113
484.35486
324.2793
346.73735
367.05982
385.8241
403.51216
420.41349
436.63389
452.03808
466.32213
479.45337
491.3187
501.70713
510.15555
)
;
        refGradient     uniform 0;
        valueFraction   nonuniform List<scalar> 
130
(
0.00032132529
0.00032132529
0.00032132529
0.00032132529
0.00032132529
0.00032132529
0.00032132529
0.00032132529
0.00032132529
0.00032132529
0.00032132529
0.00032132529
0.00032132529
0.00032132529
0.00032132529
0.00032132529
0.00032132529
0.00032132529
0.00032132529
0.00032132529
0.00032132529
0.00032132529
0.00032132529
0.00032132529
0.00032132529
0.00032132529
0.00032132529
0.00032132529
0.00032132529
0.00032132529
0.00032132529
0.00032132529
0.00032132529
0.00032132529
0.00032132529
0.00032132529
0.00032132529
0.00032132529
0.00032132529
0.00032132529
0.00032132529
0.00032132529
0.00032132529
0.00032132529
0.00032132529
0.00032132529
0.00032132529
0.00032132529
0.00032132529
0.00032132529
0.00032132529
0.00032132529
0.00032132529
0.00032132529
0.00032132529
0.00032132529
0.00032132529
0.00032132529
0.00032132529
0.00032132529
0.00032132529
0.00032132529
0.00032132529
0.00032132529
0.00032132529
0.00032132529
0.00032132529
0.00032132529
0.00032132529
0.00032132529
0.00032132529
0.00032132529
0.00032132529
0.00032132529
0.00032132529
0.00032132529
0.00032132529
0.00032132529
0.00032132529
0.00032132529
0.00032132529
0.00032132529
0.00032132529
0.00032132529
0.00032132529
0.00032132529
0.00032132529
0.00032132529
0.00032132529
0.00032132529
0.00032132529
0.00032132529
0.00032132529
0.00032132529
0.00032132529
0.00032132529
0.00032132529
0.00032132529
0.00032132529
0.00032132529
0.00032132529
0.00032132529
0.00032132529
0.00032132529
0.00032132529
0.00032132529
0.00032132529
0.00032132529
0.00032132529
0.00032132529
0.00032132529
0.00032132529
0.00032132529
0.00032132529
0.00032132529
0.00032132529
0.00032132529
0.00032132529
0.00032132529
0.00032132529
0.00032132529
0.00032132529
0.00032132529
0.00032132529
0.00032132529
0.00032132529
0.00032132529
0.00032132529
0.00032132529
0.00032132529
)
;
        value           nonuniform List<scalar> 
130
(
896.10454
896.07378
895.99826
895.87623
895.70673
895.54013
895.38246
895.23234
895.08823
894.94511
894.79023
894.67366
894.6068
896.11999
896.08668
896.00394
895.86739
895.67332
895.48352
895.3015
895.12593
894.95838
894.79272
894.65357
894.54827
894.4867
896.15255
896.11569
896.02452
895.87303
895.65735
895.42219
895.19376
894.96961
894.76129
894.57836
894.43016
894.32322
894.26341
896.20596
896.16587
896.06975
895.90361
895.66937
895.39432
895.10636
894.81004
894.53174
894.29309
894.10263
893.9716
893.90129
896.2996
896.25433
896.14457
895.95788
895.70729
895.41664
895.08498
894.71227
894.32396
893.97886
893.69825
893.50062
893.3857
896.41524
896.36108
896.23453
896.02758
895.76783
895.46685
895.11018
894.69616
894.23406
893.8341
893.51415
893.28664
893.14833
896.50383
896.45316
896.3244
896.11077
895.84913
895.54884
895.19203
894.7678
894.3023
893.89403
893.57654
893.34304
893.20948
896.58643
896.54257
896.43416
896.25854
896.02059
895.73688
895.40889
895.02541
894.59342
894.17128
893.84537
893.60525
893.45854
896.66546
896.6256
896.53007
896.37678
896.16468
895.8928
895.5801
895.22728
894.84169
894.46998
894.1506
893.90836
893.76922
896.70849
896.66982
896.58203
896.44037
896.24393
895.99129
895.67598
895.33842
895.00024
894.67354
894.37946
894.14529
894.00743
)
;
        Tnbr            T;
        thicknessLayers List<scalar> 0();
        kappaLayers     List<scalar> 0();
        kappaMethod     solidThermo;
        kappa           none;
        alphaAni        none;
        alpha           none;
        field           T;
    }
}


// ************************************************************************* //
