/*--------------------------------*- C++ -*----------------------------------*\
| =========                 |                                                 |
| \\      /  F ield         | OpenFOAM: The Open Source CFD Toolbox           |
|  \\    /   O peration     | Version:  v2012                                 |
|   \\  /    A nd           | Website:  www.openfoam.com                      |
|    \\/     M anipulation  |                                                 |
\*---------------------------------------------------------------------------*/
FoamFile
{
    version     2.0;
    format      ascii;
    class       volScalarField;
    location    "300/leftSolid";
    object      T;
}
// * * * * * * * * * * * * * * * * * * * * * * * * * * * * * * * * * * * * * //

dimensions      [0 0 0 1 0 0 0];


internalField   nonuniform List<scalar> 
130
(
839.04321
838.994
838.90897
838.80216
838.67142
838.50648
838.30547
838.07266
837.81038
837.53705
837.26936
837.03088
836.85954
839.01311
838.96947
838.88474
838.76061
838.61136
838.42888
838.2091
837.95615
837.6747
837.38334
837.10013
836.84913
836.66466
838.94253
838.90278
838.81257
838.67088
838.48796
838.26921
838.0104
837.71427
837.39628
837.06753
836.77267
836.52314
836.34188
838.81741
838.77132
838.67544
838.52571
838.31129
838.04103
837.72437
837.3814
837.01279
836.634
836.3121
836.05576
835.89543
838.66553
838.60619
838.4846
838.29651
838.04407
837.7361
837.38518
837.0018
836.57866
836.17406
835.83452
835.56839
835.39847
838.4355
838.37002
838.23117
838.02041
837.7462
837.4157
837.03456
836.64044
836.22648
835.85205
835.53546
835.28788
835.13232
838.1861
838.11835
837.96921
837.757
837.48553
837.16624
836.8037
836.4425
836.11163
835.81831
835.5654
835.36448
835.23286
837.9801
837.90738
837.76317
837.5638
837.30263
837.01649
836.70728
836.40485
836.14814
835.93391
835.76509
835.63766
835.55195
837.82405
837.76111
837.62934
837.42842
837.1742
836.92595
836.68159
836.45085
836.25726
836.09312
835.96196
835.85991
835.79222
837.72921
837.67195
837.55021
837.36284
837.12652
836.90552
836.69886
836.51224
836.35444
836.21973
836.1022
836.00451
835.94053
)
;

boundaryField
{
    minX
    {
        type            zeroGradient;
    }
    minZ
    {
        type            zeroGradient;
    }
    maxZ
    {
        type            zeroGradient;
    }
    leftSolid_to_bottomWater
    {
        type            compressible::turbulentTemperatureCoupledBaffleMixed;
        refValue        nonuniform List<scalar> 
130
(
987.50725
984.44273
981.11044
980.16439
980.48064
980.30895
980.29209
980.91084
980.03788
979.5893
978.49801
975.96624
967.43148
986.64127
985.08178
983.57665
980.38832
980.45769
980.77851
980.82239
981.40293
980.44712
979.85651
977.76246
974.19678
963.05712
985.68511
985.48211
984.06134
981.24837
979.52604
979.7715
979.77788
978.23337
977.8846
974.40143
973.53656
971.18922
960.01112
983.25098
982.37696
981.9868
983.0625
981.70183
979.72791
976.42507
975.68053
974.38152
966.11928
963.6929
959.68272
954.74626
984.64211
983.56716
982.64104
980.91875
978.6411
976.2212
974.49903
973.38741
965.13924
956.99002
953.32705
948.67884
940.82168
981.73975
981.44621
980.13636
977.65944
975.3282
972.89465
966.98744
965.04303
955.64392
950.65045
947.02211
942.68086
936.37782
978.52995
979.01331
975.51134
973.90097
971.8699
970.20063
964.62499
959.74127
958.65199
957.87231
955.40706
951.60261
944.46209
977.72993
975.99625
973.38631
973.97681
969.88311
968.96579
965.02714
960.36438
960.67259
961.35484
963.50348
965.14483
962.41683
976.50719
976.32144
975.53687
972.37097
965.17168
965.03167
964.56685
963.00967
964.61241
965.05671
966.30822
966.57516
964.63193
974.4789
974.41322
973.94821
971.86845
965.05753
965.22031
965.47635
966.02262
967.79435
969.41334
969.49104
967.94134
965.30253
)
;
        refGradient     uniform 0;
        valueFraction   nonuniform List<scalar> 
130
(
0.0075140686
0.0075140686
0.0075140686
0.0075140686
0.0075140686
0.0075140686
0.0075140686
0.0075140686
0.0075140686
0.0075140686
0.0075140686
0.0075140686
0.0075140686
0.0075140686
0.0075140686
0.0075140686
0.0075140686
0.0075140686
0.0075140686
0.0075140686
0.0075140686
0.0075140686
0.0075140686
0.0075140686
0.0075140686
0.0075140686
0.0075140686
0.0075140686
0.0075140686
0.0075140686
0.0075140686
0.0075140686
0.0075140686
0.0075140686
0.0075140686
0.0075140686
0.0075140686
0.0075140686
0.0075140686
0.0075140686
0.0075140686
0.0075140686
0.0075140686
0.0075140686
0.0075140686
0.0075140686
0.0075140686
0.0075140686
0.0075140686
0.0075140686
0.0075140686
0.0075140686
0.0075140686
0.0075140686
0.0075140686
0.0075140686
0.0075140686
0.0075140686
0.0075140686
0.0075140686
0.0075140686
0.0075140686
0.0075140686
0.0075140686
0.0075140686
0.0075140686
0.0075140686
0.0075140686
0.0075140686
0.0075140686
0.0075140686
0.0075140686
0.0075140686
0.0075140686
0.0075140686
0.0075140686
0.0075140686
0.0075140686
0.0075140686
0.0075140686
0.0075140686
0.0075140686
0.0075140686
0.0075140686
0.0075140686
0.0075140686
0.0075140686
0.0075140686
0.0075140686
0.0075140686
0.0075140686
0.0075140686
0.0075140686
0.0075140686
0.0075140686
0.0075140686
0.0075140686
0.0075140686
0.0075140686
0.0075140686
0.0075140686
0.0075140686
0.0075140686
0.0075140686
0.0075140686
0.0075140686
0.0075140686
0.0075140686
0.0075140686
0.0075140686
0.0075140686
0.0075140686
0.0075140686
0.0075140686
0.0075140686
0.0075140686
0.0075140686
0.0075140686
0.0075140686
0.0075140686
0.0075140686
0.0075140686
0.0075140686
0.0075140686
0.0075140686
0.0075140686
0.0075140686
0.0075140686
0.0075140686
0.0075140686
)
;
        value           nonuniform List<scalar> 
130
(
840.14995
840.07813
839.96878
839.85574
839.7284
839.56344
839.36377
839.1373
838.87037
838.59564
838.32166
838.06586
837.83161
840.11362
840.05863
839.96328
839.8162
839.66863
839.48994
839.27211
839.02536
838.73879
838.4451
838.14821
837.87224
837.6054
840.03647
839.99555
839.89539
839.73366
839.53921
839.32393
839.0671
838.76154
838.44325
838.09072
837.79156
837.52626
837.26235
839.89412
839.84186
839.74383
839.60333
839.38029
839.0972
838.75806
838.41204
838.03637
837.59833
837.26065
836.97614
836.77994
839.75398
839.68702
839.55939
839.35976
839.0921
838.76823
838.40697
838.0181
837.53608
837.07331
836.70883
836.40981
836.18213
839.50393
839.43673
839.28908
839.06127
838.77159
838.42525
838.00252
837.59674
837.11523
836.70611
836.36464
836.08632
835.88458
839.23232
839.16871
838.99439
838.77165
838.48694
838.15746
837.75565
837.36048
837.02391
836.72691
836.45736
836.2294
836.04514
839.02191
838.93672
838.77396
838.5805
838.29052
837.99962
837.66311
837.32788
837.0754
836.86787
836.71644
836.6023
836.49673
838.85781
838.79395
838.65728
838.43409
838.1277
837.88025
837.63423
837.3935
837.21338
837.05377
836.93299
836.83369
836.75188
838.74845
838.69113
838.56681
838.36523
838.07955
837.86145
837.65826
837.47713
837.33379
837.21223
837.09614
836.98753
836.90421
)
;
        Tnbr            T;
        thicknessLayers List<scalar> 0();
        kappaLayers     List<scalar> 0();
        kappaMethod     solidThermo;
        kappa           none;
        alphaAni        none;
        alpha           none;
        field           T;
    }
    leftSolid_to_heater
    {
        type            compressible::turbulentTemperatureCoupledBaffleMixed;
        refValue        nonuniform List<scalar> 10(713.70325 704.94732 686.45535 656.23983 611.87994 611.74115 655.78049 685.97937 704.47345 713.2329);
        refGradient     uniform 0;
        valueFraction   nonuniform List<scalar> 10(2.08329e-05 2.08329e-05 2.08329e-05 2.08329e-05 2.08329e-05 2.08329e-05 2.08329e-05 2.08329e-05 2.08329e-05 2.08329e-05);
        value           nonuniform List<scalar> 10(836.84785 836.65287 836.3299 835.88307 835.38525 835.1191 835.22058 835.54027 835.78097 835.92956);
        Tnbr            T;
        thicknessLayers List<scalar> 1(0.001);
        kappaLayers     List<scalar> 1(0.0005);
        kappaMethod     solidThermo;
        kappa           none;
        alphaAni        none;
        alpha           none;
        field           T;
    }
    leftSolid_to_topAir
    {
        type            compressible::turbulentTemperatureCoupledBaffleMixed;
        refValue        nonuniform List<scalar> 
130
(
321.96114
342.30823
360.72216
377.70827
393.69443
408.9479
423.59491
437.57303
450.54677
462.49534
473.3319
482.89208
490.81878
321.95482
342.08118
360.06651
376.41746
391.53211
405.62562
418.76537
430.91685
441.93262
451.55953
459.44797
465.19219
468.31713
321.9497
342.11151
360.14798
376.56367
391.76283
405.97039
419.29297
431.77301
443.37716
453.99213
463.41328
471.32362
477.11776
321.94463
342.11498
360.18034
376.6503
391.94364
406.31339
419.90976
432.82981
445.13672
456.85697
467.96755
478.34707
487.48509
321.93792
342.10639
360.17475
376.65161
391.95663
406.34487
419.96876
432.92802
445.28481
457.06008
468.2064
478.53033
487.31102
321.92862
342.08835
360.14792
376.61538
391.91004
406.28632
419.8951
432.83338
445.15752
456.8772
467.91656
478.01031
486.31927
321.9191
342.06551
360.10686
376.55132
391.81674
406.15514
419.71491
432.59229
444.84607
456.4881
467.46749
477.61079
486.31057
321.91082
342.03624
360.03777
376.41852
391.58117
405.75091
419.03237
431.46389
443.01679
453.57899
462.92222
470.68474
476.19613
321.90672
341.98867
359.9321
376.24057
391.30877
405.35171
418.4459
430.5605
441.5498
451.14826
459.00284
464.68553
467.68325
321.908
342.20655
360.57503
377.51533
393.4538
408.66125
423.26998
437.24409
450.22501
462.18911
473.04417
482.61602
490.53041
)
;
        refGradient     uniform 0;
        valueFraction   nonuniform List<scalar> 
130
(
0.00032132529
0.00032132529
0.00032132529
0.00032132529
0.00032132529
0.00032132529
0.00032132529
0.00032132529
0.00032132529
0.00032132529
0.00032132529
0.00032132529
0.00032132529
0.00032132529
0.00032132529
0.00032132529
0.00032132529
0.00032132529
0.00032132529
0.00032132529
0.00032132529
0.00032132529
0.00032132529
0.00032132529
0.00032132529
0.00032132529
0.00032132529
0.00032132529
0.00032132529
0.00032132529
0.00032132529
0.00032132529
0.00032132529
0.00032132529
0.00032132529
0.00032132529
0.00032132529
0.00032132529
0.00032132529
0.00032132529
0.00032132529
0.00032132529
0.00032132529
0.00032132529
0.00032132529
0.00032132529
0.00032132529
0.00032132529
0.00032132529
0.00032132529
0.00032132529
0.00032132529
0.00032132529
0.00032132529
0.00032132529
0.00032132529
0.00032132529
0.00032132529
0.00032132529
0.00032132529
0.00032132529
0.00032132529
0.00032132529
0.00032132529
0.00032132529
0.00032132529
0.00032132529
0.00032132529
0.00032132529
0.00032132529
0.00032132529
0.00032132529
0.00032132529
0.00032132529
0.00032132529
0.00032132529
0.00032132529
0.00032132529
0.00032132529
0.00032132529
0.00032132529
0.00032132529
0.00032132529
0.00032132529
0.00032132529
0.00032132529
0.00032132529
0.00032132529
0.00032132529
0.00032132529
0.00032132529
0.00032132529
0.00032132529
0.00032132529
0.00032132529
0.00032132529
0.00032132529
0.00032132529
0.00032132529
0.00032132529
0.00032132529
0.00032132529
0.00032132529
0.00032132529
0.00032132529
0.00032132529
0.00032132529
0.00032132529
0.00032132529
0.00032132529
0.00032132529
0.00032132529
0.00032132529
0.00032132529
0.00032132529
0.00032132529
0.00032132529
0.00032132529
0.00032132529
0.00032132529
0.00032132529
0.00032132529
0.00032132529
0.00032132529
0.00032132529
0.00032132529
0.00032132529
0.00032132529
0.00032132529
0.00032132529
)
;
        value           nonuniform List<scalar> 
130
(
838.86817
838.82555
838.74655
838.64531
838.51979
838.35983
838.16355
837.93525
837.67716
837.40767
837.14346
836.90803
836.73923
838.83813
838.80101
838.72213
838.60337
838.45907
838.28118
838.06566
837.81664
837.53876
837.25051
836.96985
836.72072
836.53726
838.76765
838.73445
838.65011
838.51378
838.33583
838.1217
837.86724
837.57517
837.26094
836.93563
836.64387
836.39696
836.2176
838.64269
838.60315
838.51316
838.36879
838.15936
837.89377
837.58154
837.24279
836.87819
836.50328
836.18508
835.9322
835.77487
838.49101
838.43818
838.32244
838.13969
837.89224
837.58897
837.2425
836.86339
836.44427
836.04361
835.70779
835.4451
835.27806
838.2611
838.20211
838.06911
837.86369
837.59447
837.26865
836.89195
836.5021
836.0922
835.72167
835.40874
835.1645
835.01167
838.01182
837.95056
837.80728
837.6004
837.3339
837.01927
836.66111
836.30418
835.97735
835.68784
835.43852
835.24096
835.11221
837.80593
837.73971
837.60131
837.40725
837.15102
836.86951
836.56463
836.26626
836.01333
835.80253
835.63674
835.51184
835.42792
837.6499
837.59344
837.46747
837.27187
837.02259
836.77892
836.53884
836.31204
836.12202
835.96098
835.83237
835.73216
835.66542
837.5551
837.50438
837.38859
837.20673
836.97565
836.75962
836.55772
836.37563
836.22201
836.09116
835.97713
835.88254
835.82113
)
;
        Tnbr            T;
        thicknessLayers List<scalar> 0();
        kappaLayers     List<scalar> 0();
        kappaMethod     solidThermo;
        kappa           none;
        alphaAni        none;
        alpha           none;
        field           T;
    }
}


// ************************************************************************* //
