/*--------------------------------*- C++ -*----------------------------------*\
| =========                 |                                                 |
| \\      /  F ield         | OpenFOAM: The Open Source CFD Toolbox           |
|  \\    /   O peration     | Version:  v2012                                 |
|   \\  /    A nd           | Website:  www.openfoam.com                      |
|    \\/     M anipulation  |                                                 |
\*---------------------------------------------------------------------------*/
FoamFile
{
    version     2.0;
    format      ascii;
    class       volScalarField;
    location    "790/leftSolid";
    object      T;
}
// * * * * * * * * * * * * * * * * * * * * * * * * * * * * * * * * * * * * * //

dimensions      [0 0 0 1 0 0 0];


internalField   nonuniform List<scalar> 
130
(
930.72853
930.70002
930.64328
930.54236
930.40177
930.20991
929.94983
929.6503
929.34307
929.04424
928.77201
928.5456
928.39056
930.72546
930.69689
930.63182
930.52118
930.37107
930.18386
929.95163
929.67583
929.37935
929.07508
928.78077
928.52451
928.35825
930.64837
930.62162
930.55553
930.44016
930.28042
930.09575
929.87933
929.62856
929.34834
929.04728
928.73104
928.43571
928.23326
930.50695
930.47151
930.39646
930.27509
930.10549
929.90489
929.68207
929.42896
929.14735
928.84225
928.52182
928.20463
927.9308
930.29983
930.25538
930.1639
930.02106
929.83709
929.62347
929.38038
929.11018
928.81674
928.50123
928.17681
927.87292
927.63314
930.08987
930.04334
929.94087
929.7774
929.56982
929.32977
929.06179
928.76795
928.44921
928.11523
927.78916
927.50354
927.30784
929.88454
929.83636
929.73082
929.56413
929.33554
929.04864
928.74551
928.42872
928.09349
927.7404
927.40564
927.13089
926.96333
929.68861
929.63456
929.51831
929.33424
929.07108
928.74838
928.43144
928.11155
927.77947
927.43257
927.0628
926.80373
926.65999
929.52163
929.46227
929.33407
929.12777
928.84211
928.54204
928.23564
927.91764
927.58965
927.25491
926.92243
926.68794
926.55989
929.41814
929.34713
929.20259
928.98307
928.71889
928.4379
928.14659
927.84418
927.52946
927.2183
926.92191
926.70857
926.5889
)
;

boundaryField
{
    minX
    {
        type            zeroGradient;
    }
    minZ
    {
        type            zeroGradient;
    }
    maxZ
    {
        type            zeroGradient;
    }
    leftSolid_to_bottomWater
    {
        type            compressible::turbulentTemperatureCoupledBaffleMixed;
        refValue        nonuniform List<scalar> 
130
(
973.28538
971.23471
970.42093
967.27066
966.36112
966.05857
960.86853
955.95807
952.99139
950.29242
948.3259
946.17977
938.50237
975.74417
974.93527
973.41557
970.2061
967.17321
966.40171
965.82868
963.01965
960.80595
957.63095
954.02724
949.20902
943.4787
974.04444
974.05476
973.79582
971.8551
967.92452
967.86478
967.99371
967.96492
967.34999
966.86967
962.82976
954.72037
948.99247
973.51206
972.73858
972.32407
971.93577
969.16123
967.32652
967.80833
967.73439
967.34516
966.85444
965.58945
961.5974
938.82664
970.59198
969.57078
968.62379
966.59842
964.81233
964.56396
963.81754
963.17301
963.45884
962.83475
960.61844
957.95106
945.36697
968.11878
968.16099
967.5409
964.65821
962.60174
962.32482
961.88329
961.16804
959.34834
956.9485
954.62435
951.29643
944.60179
965.90575
966.0613
965.97833
965.95641
965.60155
960.58851
958.50693
957.08599
955.28752
950.55544
947.70055
943.65647
939.95014
964.11089
963.79973
963.38366
963.71833
960.47881
951.22488
950.58854
950.79214
950.32657
950.20353
933.10427
932.39931
931.29556
961.98689
962.05808
962.03649
960.2592
951.37684
950.07158
949.48059
947.68186
945.91268
943.59887
933.563
932.98904
932.49335
960.77303
959.19585
957.05804
952.33305
949.9384
949.40945
949.05873
948.39767
945.73114
944.10942
938.19884
938.01317
936.92487
)
;
        refGradient     uniform 0;
        valueFraction   nonuniform List<scalar> 
130
(
0.0075140686
0.0075140686
0.0075140686
0.0075140686
0.0075140686
0.0075140686
0.0075140686
0.0075140686
0.0075140686
0.0075140686
0.0075140686
0.0075140686
0.0075140686
0.0075140686
0.0075140686
0.0075140686
0.0075140686
0.0075140686
0.0075140686
0.0075140686
0.0075140686
0.0075140686
0.0075140686
0.0075140686
0.0075140686
0.0075140686
0.0075140686
0.0075140686
0.0075140686
0.0075140686
0.0075140686
0.0075140686
0.0075140686
0.0075140686
0.0075140686
0.0075140686
0.0075140686
0.0075140686
0.0075140686
0.0075140686
0.0075140686
0.0075140686
0.0075140686
0.0075140686
0.0075140686
0.0075140686
0.0075140686
0.0075140686
0.0075140686
0.0075140686
0.0075140686
0.0075140686
0.0075140686
0.0075140686
0.0075140686
0.0075140686
0.0075140686
0.0075140686
0.0075140686
0.0075140686
0.0075140686
0.0075140686
0.0075140686
0.0075140686
0.0075140686
0.0075140686
0.0075140686
0.0075140686
0.0075140686
0.0075140686
0.0075140686
0.0075140686
0.0075140686
0.0075140686
0.0075140686
0.0075140686
0.0075140686
0.0075140686
0.0075140686
0.0075140686
0.0075140686
0.0075140686
0.0075140686
0.0075140686
0.0075140686
0.0075140686
0.0075140686
0.0075140686
0.0075140686
0.0075140686
0.0075140686
0.0075140686
0.0075140686
0.0075140686
0.0075140686
0.0075140686
0.0075140686
0.0075140686
0.0075140686
0.0075140686
0.0075140686
0.0075140686
0.0075140686
0.0075140686
0.0075140686
0.0075140686
0.0075140686
0.0075140686
0.0075140686
0.0075140686
0.0075140686
0.0075140686
0.0075140686
0.0075140686
0.0075140686
0.0075140686
0.0075140686
0.0075140686
0.0075140686
0.0075140686
0.0075140686
0.0075140686
0.0075140686
0.0075140686
0.0075140686
0.0075140686
0.0075140686
0.0075140686
0.0075140686
0.0075140686
)
;
        value           nonuniform List<scalar> 
130
(
931.04756
931.00391
930.94157
930.81786
930.67156
930.47892
930.18181
929.84762
929.52041
929.20356
928.91861
928.67779
928.46625
931.06302
931.02861
930.95267
930.81883
930.64715
930.45559
930.22081
929.92596
929.61506
929.28924
928.97008
928.67952
928.47145
930.97379
930.94735
930.87985
930.75079
930.56278
930.37908
930.16526
929.91615
929.6334
929.33096
928.98669
928.63263
928.38851
930.8295
930.78853
930.71094
930.58758
930.39843
930.18555
929.96802
929.71624
929.43379
929.12725
928.79964
928.45472
928.01167
930.60205
930.55025
930.45235
930.29537
930.09937
929.88548
929.63859
929.36556
929.07643
928.75854
928.41981
928.09804
927.76529
930.3752
930.32932
930.22295
930.03902
929.81754
929.5772
929.3079
929.01087
928.68083
928.33129
927.99013
927.68156
927.43691
930.15488
930.10822
930.00284
929.83722
929.60767
929.28522
928.96873
928.64365
928.29741
927.91138
927.55763
927.25448
927.06026
929.94701
929.89103
929.77253
929.59235
929.30681
928.91698
928.59761
928.28162
927.94853
927.6033
927.10784
926.84538
926.69439
929.76538
929.707
929.57961
929.36153
929.01126
928.70361
928.39507
928.06595
927.72714
927.37754
926.97216
926.73509
926.60424
929.65357
929.57126
929.41177
929.15841
928.87819
928.59532
928.30357
927.99849
927.66614
927.34516
927.00659
926.79343
926.66643
)
;
        Tnbr            T;
        thicknessLayers List<scalar> 0();
        kappaLayers     List<scalar> 0();
        kappaMethod     solidThermo;
        kappa           none;
        alphaAni        none;
        alpha           none;
        field           T;
    }
    leftSolid_to_heater
    {
        type            compressible::turbulentTemperatureCoupledBaffleMixed;
        refValue        nonuniform List<scalar> 10(729.43777 720.15199 700.49341 668.48605 622.09935 622.22109 668.88436 700.73024 720.34671 729.69308);
        refGradient     uniform 0;
        valueFraction   nonuniform List<scalar> 10(2.08329e-05 2.08329e-05 2.08329e-05 2.08329e-05 2.08329e-05 2.08329e-05 2.08329e-05 2.08329e-05 2.08329e-05 2.08329e-05);
        value           nonuniform List<scalar> 10(928.38612 928.3535 928.22778 927.92439 927.62566 927.3006 926.9573 926.65485 926.55535 926.58466);
        Tnbr            T;
        thicknessLayers List<scalar> 1(0.001);
        kappaLayers     List<scalar> 1(0.0005);
        kappaMethod     solidThermo;
        kappa           none;
        alphaAni        none;
        alpha           none;
        field           T;
    }
    leftSolid_to_topAir
    {
        type            compressible::turbulentTemperatureCoupledBaffleMixed;
        refValue        nonuniform List<scalar> 
130
(
325.63597
349.32742
370.77166
390.58762
409.28741
427.174
444.34756
460.64576
475.76052
489.64672
502.16475
513.05361
521.73586
325.62932
349.06722
370.01199
389.08416
406.76003
423.28284
438.70632
452.9537
465.79573
476.85536
485.5939
491.35524
493.26699
325.62279
349.09914
370.10222
389.24966
407.02459
423.68537
439.34245
454.01388
467.60829
479.89704
490.44804
498.5255
502.8202
325.61687
349.10307
370.13954
389.35104
407.24028
424.10089
440.09392
455.30292
469.74691
483.33734
495.77576
506.34601
513.69621
325.60768
349.08992
370.12793
389.34558
407.24667
424.12644
440.14622
455.38776
469.85036
483.39208
495.57071
505.41326
511.71738
325.59927
349.07364
370.10385
389.31305
407.20466
424.07395
440.08455
455.32069
469.78918
483.36815
495.6622
505.7648
512.35147
325.592
349.05473
370.06837
389.25653
407.12107
423.95472
439.91851
455.09802
469.52057
483.11278
495.61043
506.3595
514.03887
325.58434
349.02403
369.9911
389.10126
406.83525
423.44914
439.0537
453.67082
467.21128
479.45764
490.00155
498.15508
502.66597
325.5812
348.97376
369.87457
388.90165
406.52893
423.00046
438.37149
452.56642
465.35863
476.37429
485.0925
490.893
492.94812
325.58357
349.22477
370.61885
390.38205
409.02501
426.85158
443.96572
460.2141
475.2802
489.1206
501.60029
512.46919
521.16725
)
;
        refGradient     uniform 0;
        valueFraction   nonuniform List<scalar> 
130
(
0.00032132529
0.00032132529
0.00032132529
0.00032132529
0.00032132529
0.00032132529
0.00032132529
0.00032132529
0.00032132529
0.00032132529
0.00032132529
0.00032132529
0.00032132529
0.00032132529
0.00032132529
0.00032132529
0.00032132529
0.00032132529
0.00032132529
0.00032132529
0.00032132529
0.00032132529
0.00032132529
0.00032132529
0.00032132529
0.00032132529
0.00032132529
0.00032132529
0.00032132529
0.00032132529
0.00032132529
0.00032132529
0.00032132529
0.00032132529
0.00032132529
0.00032132529
0.00032132529
0.00032132529
0.00032132529
0.00032132529
0.00032132529
0.00032132529
0.00032132529
0.00032132529
0.00032132529
0.00032132529
0.00032132529
0.00032132529
0.00032132529
0.00032132529
0.00032132529
0.00032132529
0.00032132529
0.00032132529
0.00032132529
0.00032132529
0.00032132529
0.00032132529
0.00032132529
0.00032132529
0.00032132529
0.00032132529
0.00032132529
0.00032132529
0.00032132529
0.00032132529
0.00032132529
0.00032132529
0.00032132529
0.00032132529
0.00032132529
0.00032132529
0.00032132529
0.00032132529
0.00032132529
0.00032132529
0.00032132529
0.00032132529
0.00032132529
0.00032132529
0.00032132529
0.00032132529
0.00032132529
0.00032132529
0.00032132529
0.00032132529
0.00032132529
0.00032132529
0.00032132529
0.00032132529
0.00032132529
0.00032132529
0.00032132529
0.00032132529
0.00032132529
0.00032132529
0.00032132529
0.00032132529
0.00032132529
0.00032132529
0.00032132529
0.00032132529
0.00032132529
0.00032132529
0.00032132529
0.00032132529
0.00032132529
0.00032132529
0.00032132529
0.00032132529
0.00032132529
0.00032132529
0.00032132529
0.00032132529
0.00032132529
0.00032132529
0.00032132529
0.00032132529
0.00032132529
0.00032132529
0.00032132529
0.00032132529
0.00032132529
0.00032132529
0.00032132529
0.00032132529
0.00032132529
0.00032132529
0.00032132529
0.00032132529
)
;
        value           nonuniform List<scalar> 
130
(
930.53335
930.51252
930.46278
930.36838
930.23391
930.04791
929.79344
929.49924
929.19696
928.90271
928.6346
928.41178
928.2596
930.53031
930.5093
930.45104
930.34665
930.20237
930.02057
929.79337
929.52222
929.22996
928.92935
928.63796
928.38362
928.21803
930.4533
930.43413
930.37485
930.26569
930.11178
929.93256
929.72124
929.47526
929.19948
928.90243
928.58964
928.29698
928.09583
930.31198
930.28412
930.21587
930.10072
929.93695
929.74183
929.52422
929.27605
928.99915
928.69847
928.38206
928.06825
927.79669
930.10498
930.06809
929.98341
929.84679
929.66864
929.4605
929.22262
928.95739
928.66864
928.35752
928.03703
927.73627
927.49838
929.8952
929.85622
929.76053
929.60325
929.40148
929.16692
928.90415
928.61528
928.30127
927.97172
927.64963
927.36725
927.17362
929.69004
929.64941
929.55064
929.39015
929.16736
928.88592
928.58802
928.27622
927.94572
927.59707
927.26639
926.9951
926.82999
929.49424
929.44774
929.33827
929.16039
928.903
928.58572
928.27387
927.95874
927.63111
927.28825
926.922
926.6656
926.52332
929.32737
929.27555
929.15411
928.95402
928.6741
928.37939
928.07803
927.7647
927.44093
927.10985
926.78029
926.54771
926.42032
929.22394
929.16057
929.02297
928.80989
928.55176
928.27657
927.99085
927.69379
927.38405
927.07746
926.78519
926.57538
926.45849
)
;
        Tnbr            T;
        thicknessLayers List<scalar> 0();
        kappaLayers     List<scalar> 0();
        kappaMethod     solidThermo;
        kappa           none;
        alphaAni        none;
        alpha           none;
        field           T;
    }
}


// ************************************************************************* //
