/*--------------------------------*- C++ -*----------------------------------*\
| =========                 |                                                 |
| \\      /  F ield         | OpenFOAM: The Open Source CFD Toolbox           |
|  \\    /   O peration     | Version:  v2012                                 |
|   \\  /    A nd           | Website:  www.openfoam.com                      |
|    \\/     M anipulation  |                                                 |
\*---------------------------------------------------------------------------*/
FoamFile
{
    version     2.0;
    format      ascii;
    class       volScalarField;
    location    "370/leftSolid";
    object      T;
}
// * * * * * * * * * * * * * * * * * * * * * * * * * * * * * * * * * * * * * //

dimensions      [0 0 0 1 0 0 0];


internalField   nonuniform List<scalar> 
130
(
873.3866
873.32195
873.19988
873.02452
872.79742
872.55431
872.3255
872.12373
871.9399
871.76748
871.6053
871.48709
871.41755
873.2604
873.19531
873.06656
872.88302
872.65885
872.42173
872.17244
871.94788
871.74253
871.54624
871.3501
871.20406
871.11205
873.01874
872.94708
872.81555
872.64198
872.43073
872.18393
871.90692
871.64803
871.40135
871.15791
870.91104
870.69261
870.56412
872.73517
872.66531
872.53876
872.36564
872.14799
871.88712
871.57267
871.27091
870.96535
870.64163
870.29565
870.05348
869.92447
872.47514
872.39797
872.25646
872.06314
871.8207
871.53367
871.20323
870.86548
870.50423
870.10878
869.75501
869.50773
869.36439
872.20391
872.137
871.99946
871.78428
871.50367
871.19182
870.84842
870.4826
870.08004
869.66361
869.33211
869.08748
868.93773
871.88288
871.82284
871.69523
871.49076
871.20555
870.85808
870.5134
870.15463
869.78301
869.39905
869.06253
868.8264
868.67912
871.52178
871.46983
871.35544
871.16713
870.89721
870.5608
870.23299
869.89638
869.56044
869.23246
868.92348
868.68573
868.55812
871.22763
871.17952
871.07243
870.89725
870.64788
870.34673
870.04014
869.72025
869.41421
869.12338
868.8583
868.64782
868.52806
871.06945
871.02113
870.91463
870.74138
870.49284
870.20372
869.90812
869.61362
869.33473
869.0707
868.8384
868.65547
868.54152
)
;

boundaryField
{
    minX
    {
        type            zeroGradient;
    }
    minZ
    {
        type            zeroGradient;
    }
    maxZ
    {
        type            zeroGradient;
    }
    leftSolid_to_bottomWater
    {
        type            compressible::turbulentTemperatureCoupledBaffleMixed;
        refValue        nonuniform List<scalar> 
130
(
977.64252
976.45884
975.81138
975.03304
969.77368
965.49914
964.21684
964.9641
965.2334
964.80076
961.13559
960.8171
959.84053
977.32616
976.87904
975.2719
972.08844
967.86627
967.22669
963.13592
963.26844
964.02454
964.55063
958.70273
959.6169
957.48026
974.5046
972.49588
970.02588
969.3797
969.15546
967.77669
962.4592
961.98449
962.13886
962.75649
960.05136
950.48929
945.94213
971.65788
970.23458
969.72582
969.94789
970.02318
970.63073
962.19018
961.94973
961.49211
959.31672
941.84922
939.87501
939.50682
974.07416
970.94792
968.32196
967.38021
966.77705
965.80661
961.40504
961.72695
960.87806
949.71143
941.37967
940.5045
936.61644
975.58895
975.17557
974.63042
970.67532
965.27772
964.79562
962.74114
962.02517
956.06461
943.10438
943.06102
941.03401
935.36073
975.61386
975.38493
975.26413
974.72873
971.70425
961.60158
961.42036
959.96644
958.87653
951.01056
943.70316
943.79462
936.87187
970.39853
970.73483
971.33535
971.51192
969.01748
959.27686
960.13805
958.71135
957.34466
956.22136
949.9899
943.22805
941.44918
966.88897
967.32927
967.84986
968.30567
966.30349
960.67965
960.82756
957.34996
956.38496
954.88156
951.88476
947.72973
945.09824
965.56055
965.73517
965.99056
966.37386
962.49925
957.49597
955.85099
954.59087
954.79354
953.21865
952.00793
950.59148
946.57834
)
;
        refGradient     uniform 0;
        valueFraction   nonuniform List<scalar> 
130
(
0.0075140686
0.0075140686
0.0075140686
0.0075140686
0.0075140686
0.0075140686
0.0075140686
0.0075140686
0.0075140686
0.0075140686
0.0075140686
0.0075140686
0.0075140686
0.0075140686
0.0075140686
0.0075140686
0.0075140686
0.0075140686
0.0075140686
0.0075140686
0.0075140686
0.0075140686
0.0075140686
0.0075140686
0.0075140686
0.0075140686
0.0075140686
0.0075140686
0.0075140686
0.0075140686
0.0075140686
0.0075140686
0.0075140686
0.0075140686
0.0075140686
0.0075140686
0.0075140686
0.0075140686
0.0075140686
0.0075140686
0.0075140686
0.0075140686
0.0075140686
0.0075140686
0.0075140686
0.0075140686
0.0075140686
0.0075140686
0.0075140686
0.0075140686
0.0075140686
0.0075140686
0.0075140686
0.0075140686
0.0075140686
0.0075140686
0.0075140686
0.0075140686
0.0075140686
0.0075140686
0.0075140686
0.0075140686
0.0075140686
0.0075140686
0.0075140686
0.0075140686
0.0075140686
0.0075140686
0.0075140686
0.0075140686
0.0075140686
0.0075140686
0.0075140686
0.0075140686
0.0075140686
0.0075140686
0.0075140686
0.0075140686
0.0075140686
0.0075140686
0.0075140686
0.0075140686
0.0075140686
0.0075140686
0.0075140686
0.0075140686
0.0075140686
0.0075140686
0.0075140686
0.0075140686
0.0075140686
0.0075140686
0.0075140686
0.0075140686
0.0075140686
0.0075140686
0.0075140686
0.0075140686
0.0075140686
0.0075140686
0.0075140686
0.0075140686
0.0075140686
0.0075140686
0.0075140686
0.0075140686
0.0075140686
0.0075140686
0.0075140686
0.0075140686
0.0075140686
0.0075140686
0.0075140686
0.0075140686
0.0075140686
0.0075140686
0.0075140686
0.0075140686
0.0075140686
0.0075140686
0.0075140686
0.0075140686
0.0075140686
0.0075140686
0.0075140686
0.0075140686
0.0075140686
0.0075140686
0.0075140686
0.0075140686
)
;
        value           nonuniform List<scalar> 
130
(
874.16519
874.09211
873.96605
873.78617
873.52131
873.24792
873.01119
872.81657
872.63618
872.46186
872.27344
872.15376
872.07741
874.03755
873.96956
873.82968
873.6236
873.36941
873.12929
872.85113
872.62926
872.43116
872.24034
872.00183
871.86377
871.75635
873.77651
873.69026
873.54112
873.36398
873.15263
872.89733
872.58246
872.32199
872.07837
871.84145
871.57618
871.28761
871.1259
873.47365
873.39359
873.26413
873.09395
872.87847
872.62412
872.24863
871.94738
871.64073
871.30319
870.8286
870.57339
870.44256
873.2337
873.13363
872.97342
872.77447
872.5293
872.23713
871.87608
871.54328
871.1784
870.70207
870.28835
870.03635
869.86489
872.9758
872.90629
872.76569
872.52243
872.20336
871.89022
871.53395
871.16547
870.72112
870.21045
869.88114
869.62314
869.43192
872.65728
872.59597
872.4684
872.26142
871.95559
871.53487
871.19143
870.82442
870.44738
870.00722
869.61832
869.38471
869.18658
872.25967
872.21063
872.1016
871.91601
871.62936
871.22232
870.90343
870.55862
870.21493
869.88098
869.52748
869.2408
869.10085
871.94135
871.89689
871.7945
871.62405
871.36148
871.02042
870.71725
870.37362
870.06263
869.76271
869.47711
869.237
869.09839
871.77439
871.72774
871.62393
871.45483
871.17901
870.85456
870.54885
870.2471
869.97184
869.69797
869.45834
869.26614
869.1229
)
;
        Tnbr            T;
        thicknessLayers List<scalar> 0();
        kappaLayers     List<scalar> 0();
        kappaMethod     solidThermo;
        kappa           none;
        alphaAni        none;
        alpha           none;
        field           T;
    }
    leftSolid_to_heater
    {
        type            compressible::turbulentTemperatureCoupledBaffleMixed;
        refValue        nonuniform List<scalar> 10(728.09164 718.77226 699.26161 667.53809 621.2114 620.88399 666.33777 697.33388 716.32608 725.35517);
        refGradient     uniform 0;
        valueFraction   nonuniform List<scalar> 10(2.08329e-05 2.08329e-05 2.08329e-05 2.08329e-05 2.08329e-05 2.08329e-05 2.08329e-05 2.08329e-05 2.08329e-05 2.08329e-05);
        value           nonuniform List<scalar> 10(871.40997 871.10417 870.5559 869.91546 869.35435 868.9276 868.66992 868.54953 868.51983 868.53351);
        Tnbr            T;
        thicknessLayers List<scalar> 1(0.001);
        kappaLayers     List<scalar> 1(0.0005);
        kappaMethod     solidThermo;
        kappa           none;
        alphaAni        none;
        alpha           none;
        field           T;
    }
    leftSolid_to_topAir
    {
        type            compressible::turbulentTemperatureCoupledBaffleMixed;
        refValue        nonuniform List<scalar> 
130
(
323.33744
344.93797
364.48512
382.52649
399.52232
415.75517
431.34702
446.19928
459.98421
472.67061
484.14887
494.21693
502.44085
323.32667
344.68907
363.7762
381.1368
397.19857
412.1897
426.17719
439.10926
450.80949
460.97937
469.19829
474.97312
477.7069
323.31434
344.70695
363.84133
381.26461
397.41155
412.51949
426.69468
439.97782
452.31883
463.56161
473.42376
481.45323
486.79817
323.30278
344.69867
363.85814
381.33362
397.57609
412.85373
427.32058
441.07304
454.15899
466.57342
478.21338
488.7775
497.38254
323.29173
344.68199
363.8416
381.32218
397.57559
412.87237
427.36964
441.16462
454.30617
466.77366
478.41939
488.81305
496.80684
323.2809
344.66173
363.8131
381.28519
397.52886
412.81499
427.30237
441.08755
454.21471
466.6564
478.24591
488.50471
496.28197
323.26877
344.63405
363.76599
381.21485
397.42976
412.67824
427.11532
440.83505
453.88896
466.26859
477.86488
488.3548
496.84014
323.25425
344.59185
363.67564
381.04937
397.14438
412.1959
426.31175
439.53089
451.80318
462.97934
472.78208
480.7576
486.04448
323.24513
344.53274
363.55088
380.84483
396.83883
411.75847
425.67039
438.52608
450.15256
460.26618
468.46012
474.24844
477.0152
323.24437
344.75807
364.22322
382.18337
399.09496
415.23917
430.74249
445.52043
459.23495
471.85965
483.29222
493.33883
501.57366
)
;
        refGradient     uniform 0;
        valueFraction   nonuniform List<scalar> 
130
(
0.00032132529
0.00032132529
0.00032132529
0.00032132529
0.00032132529
0.00032132529
0.00032132529
0.00032132529
0.00032132529
0.00032132529
0.00032132529
0.00032132529
0.00032132529
0.00032132529
0.00032132529
0.00032132529
0.00032132529
0.00032132529
0.00032132529
0.00032132529
0.00032132529
0.00032132529
0.00032132529
0.00032132529
0.00032132529
0.00032132529
0.00032132529
0.00032132529
0.00032132529
0.00032132529
0.00032132529
0.00032132529
0.00032132529
0.00032132529
0.00032132529
0.00032132529
0.00032132529
0.00032132529
0.00032132529
0.00032132529
0.00032132529
0.00032132529
0.00032132529
0.00032132529
0.00032132529
0.00032132529
0.00032132529
0.00032132529
0.00032132529
0.00032132529
0.00032132529
0.00032132529
0.00032132529
0.00032132529
0.00032132529
0.00032132529
0.00032132529
0.00032132529
0.00032132529
0.00032132529
0.00032132529
0.00032132529
0.00032132529
0.00032132529
0.00032132529
0.00032132529
0.00032132529
0.00032132529
0.00032132529
0.00032132529
0.00032132529
0.00032132529
0.00032132529
0.00032132529
0.00032132529
0.00032132529
0.00032132529
0.00032132529
0.00032132529
0.00032132529
0.00032132529
0.00032132529
0.00032132529
0.00032132529
0.00032132529
0.00032132529
0.00032132529
0.00032132529
0.00032132529
0.00032132529
0.00032132529
0.00032132529
0.00032132529
0.00032132529
0.00032132529
0.00032132529
0.00032132529
0.00032132529
0.00032132529
0.00032132529
0.00032132529
0.00032132529
0.00032132529
0.00032132529
0.00032132529
0.00032132529
0.00032132529
0.00032132529
0.00032132529
0.00032132529
0.00032132529
0.00032132529
0.00032132529
0.00032132529
0.00032132529
0.00032132529
0.00032132529
0.00032132529
0.00032132529
0.00032132529
0.00032132529
0.00032132529
0.00032132529
0.00032132529
0.00032132529
0.00032132529
0.00032132529
0.00032132529
0.00032132529
0.00032132529
)
;
        value           nonuniform List<scalar> 
130
(
873.20502
873.14731
873.03153
872.86202
872.64051
872.40271
872.17898
871.98207
871.80276
871.63453
871.47617
871.36127
871.2944
873.07885
873.02062
872.89802
872.72012
872.5012
872.269
872.02428
871.80395
871.60245
871.40954
871.2162
871.07207
870.98093
872.83727
872.77247
872.64709
872.47916
872.27316
872.0313
871.75895
871.50445
871.26187
871.02216
870.77862
870.56291
870.43616
872.55375
872.49076
872.37037
872.20289
871.9905
871.73462
871.42494
871.12774
870.82654
870.50701
870.16492
869.9262
869.79997
872.29377
872.22351
872.08818
871.90053
871.66337
871.38134
871.05565
870.72243
870.36555
869.97429
869.62438
869.38051
869.23981
872.02254
871.96253
871.83118
871.62171
871.3464
871.03955
870.7009
870.3396
869.94136
869.52908
869.20143
868.9602
868.81303
871.70152
871.64836
871.52693
871.32811
871.04816
870.70576
870.36583
870.01158
869.64425
869.26442
868.93173
868.6991
868.55465
871.34049
871.29541
871.18717
871.00449
870.73981
870.40838
870.0852
869.75293
869.42104
869.09676
868.79101
868.556
868.43019
871.04643
871.00516
870.90419
870.73461
870.49044
870.19426
869.89225
869.57657
869.27437
868.9869
868.72455
868.516
868.39719
870.88831
870.84691
870.74667
870.57922
870.33616
870.05241
869.76192
869.47226
869.19788
868.93801
868.70947
868.52983
868.41857
)
;
        Tnbr            T;
        thicknessLayers List<scalar> 0();
        kappaLayers     List<scalar> 0();
        kappaMethod     solidThermo;
        kappa           none;
        alphaAni        none;
        alpha           none;
        field           T;
    }
}


// ************************************************************************* //
