/*--------------------------------*- C++ -*----------------------------------*\
| =========                 |                                                 |
| \\      /  F ield         | OpenFOAM: The Open Source CFD Toolbox           |
|  \\    /   O peration     | Version:  v2012                                 |
|   \\  /    A nd           | Website:  www.openfoam.com                      |
|    \\/     M anipulation  |                                                 |
\*---------------------------------------------------------------------------*/
FoamFile
{
    version     2.0;
    format      ascii;
    class       volScalarField;
    location    "780/heater";
    object      T;
}
// * * * * * * * * * * * * * * * * * * * * * * * * * * * * * * * * * * * * * //

dimensions      [0 0 0 1 0 0 0];


internalField   nonuniform List<scalar> 
80
(
729.60097
731.62676
735.583
741.21431
720.28373
722.65089
727.3181
734.02714
700.56789
703.61648
709.83542
719.03344
668.60564
672.48707
680.89858
694.48617
345.22808
342.45106
342.43334
345.05115
421.24339
417.84527
417.97438
421.4063
486.19848
483.36842
483.97333
487.54322
541.49087
539.77501
541.57267
545.85701
587.28868
587.45581
591.93952
599.27488
622.17426
625.72558
635.03858
653.86392
345.19263
342.44428
342.43504
345.07855
421.22175
417.86099
417.99674
421.43924
486.22005
483.41272
484.01474
487.56378
541.53252
539.83884
541.62807
545.89623
587.36655
587.55279
592.02812
599.36745
622.2918
625.84621
635.15254
653.97134
668.98283
672.8799
681.25183
694.7808
700.86356
703.9747
710.21603
719.40514
720.53344
722.93629
727.63835
734.37127
729.92651
731.96645
735.93551
741.5773
)
;

boundaryField
{
    minY
    {
        type            fixedValue;
        value           uniform 300;
    }
    minZ
    {
        type            zeroGradient;
    }
    maxZ
    {
        type            zeroGradient;
    }
    heater_to_topAir
    {
        type            compressible::turbulentTemperatureCoupledBaffleMixed;
        refValue        nonuniform List<scalar> 
40
(
520.74989
517.41358
511.62756
504.17915
483.98611
471.91033
459.07954
447.73045
495.25903
483.87537
471.53848
459.84928
510.21641
505.91951
503.87415
503.80554
506.8595
503.66302
503.75329
505.83693
506.19042
504.29927
505.48345
507.40191
508.11832
504.62065
503.6709
504.42497
493.02782
481.65073
469.97956
459.23131
482.62052
470.14148
457.17506
445.98635
520.27238
516.84835
510.98825
503.5248
)
;
        refGradient     uniform 0;
        valueFraction   nonuniform List<scalar> 
40
(
0.00032132529
0.00032132529
0.00032132529
0.00032132529
0.00032132529
0.00032132529
0.00032132529
0.00032132529
0.00032132529
0.00032132529
0.00032132529
0.00032132529
0.00032132529
0.00032132529
0.00032132529
0.00032132529
0.00032132529
0.00032132529
0.00032132529
0.00032132529
0.00032132529
0.00032132529
0.00032132529
0.00032132529
0.00032132529
0.00032132529
0.00032132529
0.00032132529
0.00032132529
0.00032132529
0.00032132529
0.00032132529
0.00032132529
0.00032132529
0.00032132529
0.00032132529
0.00032132529
0.00032132529
0.00032132529
0.00032132529
)
;
        value           nonuniform List<scalar> 
40
(
729.53424
731.55832
735.51137
741.13843
720.20801
722.57051
727.23209
733.93545
700.502
703.54605
709.75907
718.95056
668.55479
672.43368
680.84194
694.42532
622.13738
625.68657
634.99669
653.81675
622.25475
625.80745
635.11125
653.92469
668.9314
672.82615
681.19524
694.72013
700.79708
703.90357
710.13917
719.3219
720.4573
722.85532
727.55168
734.27893
729.8595
731.89763
735.86345
741.50112
)
;
        Tnbr            T;
        thicknessLayers List<scalar> 0();
        kappaLayers     List<scalar> 0();
        kappaMethod     solidThermo;
        kappa           none;
        alphaAni        none;
        alpha           none;
        field           T;
    }
    heater_to_rightSolid
    {
        type            compressible::turbulentTemperatureCoupledBaffleMixed;
        refValue        nonuniform List<scalar> 10(748.13183 742.27739 730.51351 713.03792 692.50367 692.61819 713.27395 730.8313 742.62067 748.50888);
        refGradient     uniform 0;
        valueFraction   nonuniform List<scalar> 10(0.49999997 0.49999997 0.49999997 0.49999997 0.49999997 0.49999997 0.49999997 0.49999997 0.49999997 0.49999997);
        value           nonuniform List<scalar> 10(744.67322 738.15242 724.77368 703.76226 673.18399 673.29498 704.02763 725.1184 738.49614 745.04325);
        Tnbr            T;
        thicknessLayers List<scalar> 0();
        kappaLayers     List<scalar> 0();
        kappaMethod     solidThermo;
        kappa           none;
        alphaAni        none;
        alpha           none;
        field           T;
    }
    heater_to_leftSolid
    {
        type            compressible::turbulentTemperatureCoupledBaffleMixed;
        refValue        nonuniform List<scalar> 10(928.05651 927.94048 927.69642 927.33908 926.88763 926.54869 926.4023 926.29738 926.35476 926.44144);
        refGradient     uniform 0;
        valueFraction   nonuniform List<scalar> 10(2.0832898e-05 2.0832898e-05 2.0832898e-05 2.0832898e-05 2.0832898e-05 2.0832898e-05 2.0832898e-05 2.0832898e-05 2.0832898e-05 2.0832898e-05);
        value           nonuniform List<scalar> 10(729.60548 720.28826 700.5727 668.61108 622.18078 622.2984 668.98846 700.86856 720.53803 729.93097);
        Tnbr            T;
        thicknessLayers List<scalar> 1(0.001);
        kappaLayers     List<scalar> 1(0.0005);
        kappaMethod     solidThermo;
        kappa           none;
        alphaAni        none;
        alpha           none;
        field           T;
    }
    heater_to_bottomWater
    {
        type            compressible::turbulentTemperatureCoupledBaffleMixed;
        refValue        nonuniform List<scalar> 
92
(
935.00676
932.45253
931.8607
930.02947
942.58773
938.54918
933.07096
926.71762
936.7415
921.71962
919.23743
912.54151
941.95622
917.75279
916.70974
916.95834
932.66236
913.17642
912.25494
912.96839
927.79429
910.87485
907.28708
906.92958
919.4874
912.74809
913.11148
909.36312
917.91569
917.91569
909.36916
909.36916
909.70904
909.70904
905.46488
905.46488
933.88395
899.60155
932.45931
902.16272
923.68578
898.44226
923.92775
892.62903
929.89567
891.87537
935.83619
915.77163
914.602
912.02206
908.36049
910.28476
929.99097
919.03612
916.65162
914.28196
906.54787
912.83414
924.14565
921.35804
918.81074
915.25824
897.62469
908.1429
922.0111
920.75977
922.3546
917.19528
890.91944
910.13128
927.9031
928.44718
925.47866
917.73235
896.57602
909.37558
928.44718
925.47866
917.73235
909.37558
926.3288
925.83164
924.87098
922.32516
932.95253
932.61308
929.88234
927.18618
937.52845
936.67355
935.47621
930.56645
)
;
        refGradient     uniform 0;
        valueFraction   nonuniform List<scalar> 
92
(
0.0075140686
0.0075140686
0.0075140686
0.0075140686
0.0075140686
0.0075140686
0.0075140686
0.0075140686
0.0075140686
0.0075140686
0.0075140686
0.0075140686
0.0075140686
0.0075140686
0.0075140686
0.0075140686
0.0075140686
0.0075140686
0.0075140686
0.0075140686
0.0075140686
0.0075140686
0.0075140686
0.0075140686
0.0075140686
0.0075140686
0.0075140686
0.0075140686
0.0075140686
0.0075140686
0.0075140686
0.0075140686
0.0075140686
0.0075140686
0.0075140686
0.0075140686
0.0075140679
0.0075140679
0.0075140679
0.0075140679
0.0075140679
0.0075140679
0.0075140679
0.0075140679
0.0075140679
0.0075140679
0.0075140679
0.0075140686
0.0075140686
0.0075140686
0.0075140679
0.0075140686
0.0075140679
0.0075140686
0.0075140686
0.0075140686
0.0075140679
0.0075140686
0.0075140679
0.0075140686
0.0075140686
0.0075140686
0.0075140679
0.0075140686
0.0075140679
0.0075140686
0.0075140686
0.0075140686
0.0075140679
0.0075140686
0.0075140679
0.0075140686
0.0075140686
0.0075140686
0.0075140679
0.0075140686
0.0075140686
0.0075140686
0.0075140686
0.0075140686
0.0075140686
0.0075140686
0.0075140686
0.0075140686
0.0075140686
0.0075140686
0.0075140686
0.0075140686
0.0075140686
0.0075140686
0.0075140686
0.0075140686
)
;
        value           nonuniform List<scalar> 
92
(
731.14477
733.13616
737.05817
742.63337
721.95434
724.27335
728.86432
735.47533
702.34259
705.2555
711.4091
720.48787
349.71186
346.77394
346.74852
349.34849
425.08616
421.5673
421.68852
425.09996
489.5167
486.58087
487.15429
490.69464
544.33129
542.57773
544.36464
548.5886
670.47902
589.77317
674.26715
589.87486
682.61812
594.32748
696.0719
601.57587
349.6512
349.21807
425.08464
425.01877
489.48583
490.63086
544.36465
548.46286
589.86318
601.47376
349.63086
349.4801
346.74361
346.71501
349.31107
349.32553
425.04495
424.96264
421.60913
421.72597
425.08434
425.13157
489.51103
489.49008
486.68459
487.25532
490.64499
490.72402
544.39175
544.38235
542.71336
544.45042
548.48905
548.63341
589.92556
589.92965
590.09225
594.47583
601.60108
601.69725
670.93272
674.77826
683.02923
696.39378
702.55802
705.64206
711.82929
720.93025
722.12987
724.51208
729.15826
735.82042
731.4868
733.50493
737.43509
742.99769
)
;
        Tnbr            T;
        thicknessLayers List<scalar> 0();
        kappaLayers     List<scalar> 0();
        kappaMethod     solidThermo;
        kappa           none;
        alphaAni        none;
        alpha           none;
        field           T;
    }
}


// ************************************************************************* //
