/*--------------------------------*- C++ -*----------------------------------*\
| =========                 |                                                 |
| \\      /  F ield         | OpenFOAM: The Open Source CFD Toolbox           |
|  \\    /   O peration     | Version:  v2012                                 |
|   \\  /    A nd           | Website:  www.openfoam.com                      |
|    \\/     M anipulation  |                                                 |
\*---------------------------------------------------------------------------*/
FoamFile
{
    version     2.0;
    format      ascii;
    class       volScalarField;
    location    "140/topAir";
    object      rho;
}
// * * * * * * * * * * * * * * * * * * * * * * * * * * * * * * * * * * * * * //

dimensions      [1 -3 0 0 0 0 0];


internalField   nonuniform List<scalar> 
1200
(
1.1026312
1.0549947
1.0151762
0.98106249
0.95112382
0.92436083
0.90012405
0.87807845
0.85830415
0.84078153
0.82534462
0.81192956
0.80065606
0.79491901
0.79125575
0.78983522
0.79058204
0.79310524
0.79679353
0.80097221
0.80505941
0.80865801
0.81155205
0.81365417
0.81492479
0.81527398
0.81445836
0.81193238
0.80665313
0.79781971
1.1573485
1.1549399
1.1516374
1.1475943
1.1429285
1.1377304
1.1320785
1.1260283
1.1184949
1.1086269
1.0955248
1.0778881
1.055329
1.0291906
1.0014631
0.9751446
0.95270882
0.93536307
0.9231082
0.91514028
0.91036101
0.90768323
0.90618257
0.90512033
0.90384195
0.90163326
0.89751938
0.88985683
0.87569215
0.85211505
1.1585914
1.158511
1.1583615
1.158128
1.1577981
1.1573606
1.1568062
1.1561263
1.1552849
1.1542244
1.1528476
1.1504424
1.1437684
1.1291324
1.1051007
1.0738096
1.0400867
1.0085529
0.98190478
0.96091282
0.94517895
0.93379816
0.92572947
0.91999009
0.91570329
0.91206132
0.90820933
0.90296453
0.89416016
0.87851596
1.1586181
1.1586154
1.158609
1.1585966
1.158575
1.1585408
1.1584896
1.1584165
1.1583146
1.1581739
1.1579776
1.1576671
1.1569705
1.1544686
1.1434554
1.1174565
1.0829093
1.0489751
1.019313
0.99469399
0.97486821
0.95925037
0.9471513
0.93785184
0.93064833
0.92487114
0.91984707
0.91474777
0.90814219
0.89757606
1.1026353
1.0554957
1.0165239
0.98353776
0.95500247
0.92996634
0.90783368
0.88825858
0.8710938
0.85634487
0.84414681
0.83468855
0.82826023
0.82912758
0.83275035
0.83848629
0.84527126
0.8519805
0.85787967
0.86261834
0.86615302
0.86862756
0.87024549
0.87118965
0.87152048
0.87105422
0.86920435
0.86464871
0.85495331
0.84165829
1.15735
1.1549868
1.1518094
1.1479953
1.1436851
1.1389944
1.1340288
1.1288985
1.1237145
1.1186261
1.1138222
1.1094672
1.1057681
1.1030331
1.1012476
1.1000635
1.0988355
1.0970157
1.0944513
1.0911625
1.0872558
1.0827547
1.077613
1.0717922
1.0651928
1.0576811
1.0491559
1.0395919
1.0286742
1.0019799
1.1585915
1.1585133
1.1583715
1.1581559
1.1578592
1.1574765
1.1570056
1.1564469
1.1558035
1.1550826
1.1542961
1.1534428
1.1524336
1.1511171
1.1492928
1.1463585
1.1410097
1.1325957
1.1218606
1.1096341
1.0970315
1.0838311
1.0693908
1.0542987
1.0389753
1.0238472
1.008703
0.99275078
0.97472568
0.95345853
1.1586181
1.1586155
1.1586096
1.1585983
1.1585795
1.1585506
1.1585089
1.1584515
1.1583751
1.1582761
1.1581498
1.1579855
1.1577375
1.1571424
1.1546811
1.1459711
1.1262802
1.0970677
1.0652989
1.0362102
1.0115426
0.99164501
0.9765869
0.9646805
0.95485408
0.94630077
0.93840449
0.93091171
0.92345404
0.91492236
1.1026345
1.0553981
1.0163171
0.98320991
0.95452797
0.92930495
0.90692675
0.88699296
0.86922095
0.85346212
0.83966653
0.82787247
0.81830641
0.81636416
0.81709382
0.82093423
0.82816427
0.83838027
0.85023535
0.86183394
0.87182024
0.87976788
0.88586707
0.89044375
0.89363668
0.89530776
0.89500205
0.89142123
0.88085845
0.85766906
1.1573497
1.1549782
1.1517864
1.1479552
1.1436257
1.1389109
1.1339089
1.1287123
1.1234138
1.1181173
1.1129495
1.1080684
1.1036745
1.1001984
1.0978923
1.0969342
1.0972552
1.0982896
1.0989963
1.0983098
1.095842
1.0916807
1.085981
1.0787296
1.0697696
1.0589654
1.0463638
1.0318911
1.0145573
0.98914902
1.1585915
1.1585129
1.1583703
1.1581538
1.1578565
1.157474
1.1570044
1.1564481
1.1558085
1.1550924
1.1543119
1.153486
1.1526438
1.1518336
1.1511026
1.1504093
1.1492953
1.1464323
1.1400515
1.1296821
1.116977
1.103385
1.0893597
1.0744558
1.0580714
1.04005
1.0213143
1.0024955
0.98277095
0.96172536
1.1586181
1.1586155
1.1586095
1.1585982
1.1585794
1.1585508
1.1585097
1.1584536
1.1583798
1.1582858
1.158169
1.1580271
1.1578559
1.1576365
1.1572422
1.1560073
1.1516163
1.1395323
1.1163126
1.0858209
1.0548596
1.0274245
1.0053501
0.98810709
0.97448699
0.96329932
0.953615
0.94482831
0.93640273
0.92492986
1.1026376
1.0553745
1.0162303
0.98302132
0.95418707
0.9287332
0.90599764
0.8855088
0.86691037
0.84992333
0.83432575
0.81992451
0.80673242
0.80070598
0.7952527
0.79048319
0.78690837
0.78554336
0.78744371
0.79182809
0.79736591
0.80313127
0.80871084
0.81391272
0.81844665
0.82182717
0.8230886
0.81956775
0.80568013
0.79012801
1.1573497
1.1549755
1.1517748
1.1479259
1.143566
1.1388007
1.1337152
1.1283807
1.1228583
1.1172027
1.1114693
1.1057116
1.0997509
1.0944406
1.0896845
1.0857543
1.0831522
1.0825161
1.0837096
1.0844804
1.0835065
1.0802716
1.074863
1.0673653
1.05759
1.0452536
1.0299951
1.0107313
0.98339548
0.91718141
1.1585915
1.1585128
1.1583697
1.158152
1.1578523
1.1574657
1.1569891
1.1564211
1.1557619
1.1550129
1.1541777
1.1532625
1.1522729
1.1512426
1.1502157
1.1492636
1.1484945
1.1478755
1.1453267
1.1360717
1.1227902
1.1062629
1.0881442
1.0686408
1.0475296
1.0254681
1.0034661
0.98084761
0.95562885
0.92044092
1.1586181
1.1586155
1.1586095
1.1585981
1.1585791
1.1585502
1.1585085
1.1584515
1.1583761
1.1582795
1.1581586
1.1580103
1.1578312
1.1576177
1.1573628
1.157041
1.1565306
1.154994
1.1451646
1.1137316
1.0868894
1.0543298
1.0263393
1.0050219
0.98870615
0.97546902
0.96386928
0.95242829
0.93345816
0.89193187
1.1026445
1.055374
1.0162101
0.98297367
0.95410383
0.92860292
0.90580463
0.88523157
0.86652166
0.84938796
0.83360266
0.81897239
0.8057967
0.80172887
0.7976917
0.79343408
0.78888616
0.78466292
0.78126221
0.77656483
0.77041939
0.76387696
0.75802073
0.75299817
0.74890576
0.74572582
0.74311385
0.74004644
0.73435453
0.72419026
1.1573498
1.1549746
1.1517704
1.1479145
1.1435431
1.1387604
1.133649
1.1282762
1.1226973
1.1169593
1.1111048
1.1051206
1.0977586
1.0908712
1.0843719
1.0788621
1.0757825
1.0746831
1.0745841
1.0727397
1.0696357
1.065557
1.0596187
1.0508373
1.0369014
1.015113
0.98360498
0.94158193
0.88772006
0.82082093
1.1585915
1.1585127
1.1583694
1.1581511
1.1578503
1.1574619
1.1569822
1.1564094
1.1557426
1.1549821
1.1541289
1.1531833
1.1521186
1.1509579
1.1497364
1.1485364
1.1475437
1.1466802
1.1410416
1.1281293
1.1161566
1.1029708
1.0862734
1.0645963
1.0388516
1.0122167
0.99037047
0.97069053
0.93058728
0.86538641
1.1586181
1.1586155
1.1586095
1.158598
1.158579
1.1585498
1.1585079
1.1584503
1.158374
1.1582759
1.1581527
1.1580005
1.1578144
1.1575887
1.1573168
1.1569846
1.1564713
1.1539878
1.1275617
1.0501214
1.034161
1.0252688
1.0106948
0.99515517
0.98016717
0.96582118
0.95222741
0.93853475
0.91867413
0.87473664
1.1026435
1.0553707
1.0162045
0.98296637
0.95409514
0.92859326
0.90579328
0.8852161
0.86649873
0.84935636
0.83356342
0.81893618
0.80576387
0.80169793
0.79766019
0.79340588
0.78905764
0.785151
0.78169364
0.77673284
0.77050452
0.76426213
0.75874772
0.75405117
0.75024452
0.74728577
0.74483532
0.74190439
0.73641078
0.72661191
1.1573498
1.1549745
1.1517701
1.1479139
1.1435422
1.1387591
1.1336471
1.1282733
1.1226929
1.116953
1.1110963
1.1050979
1.0977232
1.0908454
1.084427
1.0791859
1.0761626
1.0752063
1.0746715
1.0724594
1.0691096
1.0645226
1.0587867
1.0514334
1.0399747
1.0217269
0.99434154
0.95470435
0.90025375
0.83026302
1.1585915
1.1585127
1.1583694
1.1581511
1.1578503
1.1574618
1.156982
1.1564091
1.1557421
1.1549814
1.1541278
1.1531814
1.1521155
1.150954
1.1497347
1.1485469
1.1475807
1.1466119
1.1382564
1.1256321
1.1136293
1.0998983
1.0819549
1.0583787
1.0308713
1.0038748
0.9829479
0.96918055
0.93581095
0.87487791
1.1586181
1.1586155
1.1586095
1.158598
1.158579
1.1585498
1.1585079
1.1584502
1.1583739
1.1582758
1.1581525
1.1580002
1.1578137
1.1575874
1.1573142
1.1569787
1.156429
1.1530345
1.1090035
1.0409384
1.0260249
1.0177558
1.00481
0.99060955
0.97662229
0.96340298
0.95149006
0.94084609
0.92884306
0.88214384
1.1026357
1.0553685
1.0162201
0.98300855
0.9541724
0.92871776
0.90598316
0.88549333
0.86688931
0.84989423
0.8342868
0.81988131
0.80669125
0.80067733
0.79524704
0.79053238
0.78708803
0.78599261
0.78828839
0.79313518
0.79914925
0.8054212
0.81155171
0.81729466
0.82226757
0.82589531
0.82723247
0.82393525
0.81058855
0.79492881
1.1573497
1.1549753
1.1517743
1.1479249
1.1435643
1.1387982
1.1337118
1.1283761
1.1228521
1.1171942
1.1114574
1.105696
1.0997221
1.0944209
1.0896917
1.0858235
1.0833338
1.0828834
1.0841714
1.0848504
1.0836372
1.0800601
1.0742591
1.0663861
1.0563359
1.0439725
1.0292204
1.0112899
0.98675574
0.92328301
1.1585915
1.1585128
1.1583697
1.1581519
1.1578522
1.1574655
1.1569887
1.1564205
1.1557609
1.1550114
1.1541755
1.1532593
1.1522686
1.1512378
1.1502128
1.149268
1.1485155
1.1478889
1.144634
1.1343974
1.1202479
1.1029263
1.0839183
1.0633525
1.0413752
1.0193509
0.9993533
0.98136731
0.96105821
0.92936092
1.1586181
1.1586155
1.1586095
1.1585981
1.1585791
1.1585501
1.1585085
1.1584514
1.1583759
1.1582792
1.1581581
1.1580095
1.1578298
1.1576155
1.157359
1.1570329
1.1565049
1.1547616
1.1417911
1.1087462
1.0819413
1.0503378
1.0241912
1.0045057
0.98937283
0.97709362
0.96653854
0.95676183
0.94447223
0.9104459
1.1026273
1.0553858
1.0163023
0.98319464
0.9545134
0.92929367
0.90692063
0.88699046
0.86921914
0.8534594
0.83967082
0.82789176
0.81834569
0.81644046
0.81724632
0.82122515
0.82866501
0.83914379
0.85128192
0.86316476
0.87342647
0.88160642
0.88781576
0.89228454
0.89510044
0.89614415
0.8950165
0.89052151
0.87922529
0.85662019
1.1573496
1.1549777
1.1517854
1.1479537
1.1436235
1.1389079
1.133905
1.1287074
1.1234081
1.1181113
1.1129442
1.1080667
1.1036817
1.1002258
1.0979559
1.0970526
1.0974354
1.0985126
1.099213
1.0984562
1.0958527
1.0914759
1.0854649
1.0778245
1.0684801
1.0574595
1.0450019
1.0312191
1.0153334
0.99064812
1.1585915
1.1585129
1.1583703
1.1581537
1.1578563
1.1574737
1.1570038
1.1564473
1.1558072
1.1550906
1.1543094
1.1534832
1.1526412
1.1518321
1.1511033
1.1504049
1.1492438
1.146236
1.139568
1.1288358
1.1157561
1.1017148
1.0870979
1.0715225
1.0546575
1.0367981
1.0190173
1.0019574
0.98473488
0.96601696
1.1586181
1.1586155
1.1586095
1.1585982
1.1585794
1.1585507
1.1585096
1.1584534
1.1583795
1.1582853
1.1581683
1.1580259
1.1578538
1.1576317
1.1572233
1.1559185
1.1512828
1.1386872
1.1148997
1.0841974
1.0534699
1.0264579
1.0048349
0.9879989
0.97471677
0.96383272
0.95447484
0.94605885
0.93803923
0.92965868
1.1026235
1.0554764
1.0165011
0.98351498
0.95498287
0.92995363
0.90782945
0.88826095
0.8710976
0.85634807
0.84415503
0.83470927
0.8283055
0.8292136
0.83287992
0.83864378
0.84542523
0.85211284
0.8580145
0.8628243
0.86651901
0.86923603
0.8711379
0.8723328
0.8727936
0.87227531
0.8701571
0.8651268
0.85483537
0.84149958
1.1573497
1.1549861
1.1518079
1.147993
1.1436818
1.13899
1.134023
1.1288911
1.123705
1.1186139
1.1138115
1.1094619
1.1057729
1.1030511
1.1012765
1.1000847
1.09882
1.096953
1.0943601
1.0910675
1.0871663
1.0826676
1.0775045
1.0716215
1.064929
1.0573404
1.0488351
1.0394806
1.0290518
1.0020994
1.1585915
1.1585132
1.1583714
1.1581557
1.1578589
1.157476
1.1570048
1.1564455
1.1558014
1.1550794
1.1542917
1.1534379
1.1524272
1.1511035
1.1492558
1.1462507
1.1407645
1.1322279
1.121461
1.109281
1.0967512
1.0837489
1.0696624
1.055068
1.0402426
1.0254145
1.0104769
0.99464751
0.97675519
0.95549166
1.1586181
1.1586155
1.1586096
1.1585983
1.1585795
1.1585506
1.1585088
1.1584513
1.1583747
1.1582754
1.1581485
1.1579833
1.1577328
1.1571251
1.154582
1.1455776
1.1253621
1.0956962
1.0637974
1.034848
1.0104533
0.99078951
0.97589879
0.96414461
0.9544605
0.94610113
0.93851374
0.93140379
0.92422534
0.91586566
1.1026162
1.0549695
1.0151459
0.98103161
0.95109724
0.9243424
0.90011441
0.87807584
0.85830169
0.84077651
0.82533708
0.81192065
0.80065061
0.7949271
0.79128723
0.78989926
0.79068296
0.79324114
0.79696483
0.80119234
0.80535654
0.80906858
0.81210908
0.81436786
0.81576699
0.81618147
0.81534547
0.81271211
0.8072676
0.7983296
1.1573482
1.1549389
1.1516355
1.1475912
1.1429241
1.1377245
1.1320709
1.126019
1.1184964
1.1086494
1.0955748
1.0779364
1.055337
1.0291117
1.0012763
0.97486545
0.95237494
0.93502156
0.92280813
0.91492696
0.91027205
0.90774968
0.90642189
0.90552436
0.90437317
0.90223829
0.89814507
0.89047057
0.87629145
0.85271813
1.1585914
1.158511
1.1583614
1.1581278
1.1577977
1.15736
1.1568051
1.1561246
1.1552827
1.154222
1.1528462
1.1504731
1.1438136
1.1290907
1.1048642
1.0733374
1.0394211
1.0077855
0.98113517
0.96022602
0.94463714
0.93344297
0.92558385
0.92005746
0.91596754
0.91249249
0.90877358
0.90363163
0.89490305
0.87928974
1.1586181
1.1586154
1.158609
1.1585966
1.158575
1.1585407
1.1584895
1.1584162
1.1583141
1.1581731
1.1579761
1.1576649
1.1569628
1.1544313
1.1431665
1.1166621
1.0817733
1.0477397
1.0181198
0.99362877
0.97398729
0.95858802
0.94672392
0.93766101
0.93068374
0.92511441
0.92027769
0.91534999
0.90890485
0.8984617
)
;

boundaryField
{
    maxY
    {
        type            calculated;
        value           nonuniform List<scalar> 
300
(
1.1586176
1.1586176
1.1586176
1.1586176
1.1586176
1.1586176
1.1586176
1.1586176
1.1586176
1.1586176
1.1586149
1.158615
1.158615
1.158615
1.158615
1.158615
1.158615
1.158615
1.158615
1.1586149
1.1586085
1.158609
1.158609
1.158609
1.1586089
1.1586089
1.158609
1.158609
1.158609
1.1586085
1.158596
1.1585978
1.1585977
1.1585976
1.1585975
1.1585975
1.1585976
1.1585977
1.1585978
1.158596
1.1585745
1.158579
1.1585789
1.1585786
1.1585785
1.1585785
1.1585786
1.1585789
1.1585789
1.1585745
1.1585403
1.1585501
1.1585502
1.1585496
1.1585493
1.1585493
1.1585496
1.1585502
1.15855
1.1585402
1.1584891
1.1585084
1.1585092
1.158508
1.1585073
1.1585073
1.1585079
1.1585091
1.1585083
1.158489
1.158416
1.158451
1.158453
1.1584509
1.1584497
1.1584497
1.1584508
1.1584529
1.1584508
1.1584157
1.158314
1.1583746
1.1583793
1.1583756
1.1583735
1.1583734
1.1583754
1.158379
1.1583742
1.1583135
1.1581734
1.1582756
1.1582852
1.158279
1.1582754
1.1582753
1.1582787
1.1582848
1.1582749
1.1581725
1.157977
1.1581492
1.1581685
1.1581581
1.1581522
1.158152
1.1581576
1.1581678
1.158148
1.1579755
1.1576666
1.1579849
1.1580266
1.1580098
1.158
1.1579996
1.1580089
1.1580254
1.1579828
1.1576644
1.15697
1.1577369
1.1578553
1.1578307
1.1578138
1.1578131
1.1578293
1.1578533
1.1577323
1.1569622
1.1544681
1.1571419
1.157636
1.1576172
1.1575881
1.1575868
1.157615
1.1576312
1.1571246
1.1544308
1.1434549
1.1546806
1.1572417
1.1573623
1.1573162
1.1573137
1.1573584
1.1572228
1.1545815
1.143166
1.1174561
1.1459706
1.1560068
1.1570405
1.156984
1.1569781
1.1570323
1.155918
1.1455771
1.1166616
1.0829089
1.1262797
1.1516158
1.1565301
1.1564708
1.1564285
1.1565044
1.1512823
1.1253616
1.0817729
1.0489746
1.0970672
1.1395318
1.1549935
1.1539873
1.153034
1.1547611
1.1386867
1.0956958
1.0477393
1.0193126
1.0652985
1.1163121
1.145164
1.1275612
1.109003
1.1417906
1.1148992
1.0637969
1.0181194
0.9946936
1.0362098
1.0858205
1.1137311
1.050121
1.040938
1.1087457
1.084197
1.0348476
0.99362838
0.97486784
1.0115422
1.0548592
1.086889
1.0341606
1.0260245
1.0819408
1.0534695
1.0104529
0.97398692
0.95925
0.99164462
1.0274241
1.0543294
1.0252684
1.0177554
1.0503374
1.0264575
0.99078913
0.95858766
0.94715095
0.97658653
1.0053497
1.0263389
1.0106944
1.0048096
1.0241908
1.0048345
0.97589841
0.94672357
0.9378515
0.96468013
0.9881067
1.0050215
0.99515478
0.99060916
1.0045053
0.98799851
0.96414425
0.93766067
0.93064799
0.95485372
0.97448661
0.98870577
0.98016679
0.97662192
0.98937245
0.9747164
0.95446014
0.9306834
0.9248708
0.94630042
0.96329895
0.97546864
0.96582081
0.96340262
0.97709324
0.96383235
0.94610078
0.92511407
0.91984674
0.93840414
0.95361465
0.96386891
0.95222706
0.9514897
0.96653817
0.95447449
0.93851339
0.92027736
0.91474744
0.93091137
0.94482796
0.95242793
0.93853441
0.94084574
0.95676147
0.9460585
0.93140345
0.91534966
0.90814186
0.92345371
0.93640239
0.93345782
0.9186738
0.92884272
0.94447188
0.93803888
0.924225
0.90890453
0.89757575
0.91492203
0.92492952
0.89193156
0.87473633
0.88214354
0.91044558
0.92965834
0.91586533
0.89846138
)
;
    }
    minX
    {
        type            calculated;
        value           nonuniform List<scalar> 
40
(
1.1586219
1.1586209
1.1586198
1.1586188
1.1586219
1.1586209
1.1586198
1.1586188
1.1586219
1.1586209
1.1586198
1.1586188
1.1586219
1.1586209
1.1586198
1.1586188
1.1586219
1.1586209
1.1586198
1.1586188
1.1586219
1.1586209
1.1586198
1.1586188
1.1586219
1.1586209
1.1586198
1.1586188
1.1586219
1.1586209
1.1586198
1.1586188
1.1586219
1.1586209
1.1586198
1.1586188
1.1586219
1.1586209
1.1586198
1.1586188
)
;
    }
    maxX
    {
        type            calculated;
        value           nonuniform List<scalar> 
40
(
0.79773392
0.85194437
0.87839833
0.8975159
0.84153839
1.0018064
0.95336049
0.91487326
0.85758547
0.98903892
0.96207443
0.92533608
0.78985477
0.91663541
0.92079801
0.89272325
0.72413545
0.8200829
0.86507949
1.1586179
0.72670045
0.82990231
0.87487218
0.88310591
0.79496879
0.92325293
0.92969667
0.91113814
0.85662436
0.99071843
0.9661989
0.92970719
0.84142291
1.0020024
0.95542303
0.91585968
0.79827966
0.85261438
0.8792359
0.89845395
)
;
    }
    minZ
    {
        type            calculated;
        value           nonuniform List<scalar> 
120
(
1.1026312
1.1573485
1.1585914
1.1586181
1.0549947
1.1549399
1.158511
1.1586154
1.0151762
1.1516374
1.1583615
1.158609
0.98106249
1.1475943
1.158128
1.1585966
0.95112382
1.1429285
1.1577981
1.158575
0.92436083
1.1377304
1.1573606
1.1585408
0.90012405
1.1320785
1.1568062
1.1584896
0.87807845
1.1260283
1.1561263
1.1584165
0.85830415
1.1184949
1.1552849
1.1583146
0.84078153
1.1086269
1.1542244
1.1581739
0.82534462
1.0955248
1.1528476
1.1579776
0.81192956
1.0778881
1.1504424
1.1576671
0.80065606
1.055329
1.1437684
1.1569705
0.79491901
1.0291906
1.1291324
1.1544686
0.79125575
1.0014631
1.1051007
1.1434554
0.78983522
0.9751446
1.0738096
1.1174565
0.79058204
0.95270882
1.0400867
1.0829093
0.79310524
0.93536307
1.0085529
1.0489751
0.79679353
0.9231082
0.98190478
1.019313
0.80097221
0.91514028
0.96091282
0.99469399
0.80505941
0.91036101
0.94517895
0.97486821
0.80865801
0.90768323
0.93379816
0.95925037
0.81155205
0.90618257
0.92572947
0.9471513
0.81365417
0.90512033
0.91999009
0.93785184
0.81492479
0.90384195
0.91570329
0.93064833
0.81527398
0.90163326
0.91206132
0.92487114
0.81445836
0.89751938
0.90820933
0.91984707
0.81193238
0.88985683
0.90296453
0.91474777
0.80665313
0.87569215
0.89416016
0.90814219
0.79781971
0.85211505
0.87851596
0.89757606
)
;
    }
    maxZ
    {
        type            calculated;
        value           nonuniform List<scalar> 
120
(
1.1026162
1.1573482
1.1585914
1.1586181
1.0549695
1.1549389
1.158511
1.1586154
1.0151459
1.1516355
1.1583614
1.158609
0.98103161
1.1475912
1.1581278
1.1585966
0.95109724
1.1429241
1.1577977
1.158575
0.9243424
1.1377245
1.15736
1.1585407
0.90011441
1.1320709
1.1568051
1.1584895
0.87807584
1.126019
1.1561246
1.1584162
0.85830169
1.1184964
1.1552827
1.1583141
0.84077651
1.1086494
1.154222
1.1581731
0.82533708
1.0955748
1.1528462
1.1579761
0.81192065
1.0779364
1.1504731
1.1576649
0.80065061
1.055337
1.1438136
1.1569628
0.7949271
1.0291117
1.1290907
1.1544313
0.79128723
1.0012763
1.1048642
1.1431665
0.78989926
0.97486545
1.0733374
1.1166621
0.79068296
0.95237494
1.0394211
1.0817733
0.79324114
0.93502156
1.0077855
1.0477397
0.79696483
0.92280813
0.98113517
1.0181198
0.80119234
0.91492696
0.96022602
0.99362877
0.80535654
0.91027205
0.94463714
0.97398729
0.80906858
0.90774968
0.93344297
0.95858802
0.81210908
0.90642189
0.92558385
0.94672392
0.81436786
0.90552436
0.92005746
0.93766101
0.81576699
0.90437317
0.91596754
0.93068374
0.81618147
0.90223829
0.91249249
0.92511441
0.81534547
0.89814507
0.90877358
0.92027769
0.81271211
0.89047057
0.90363163
0.91534999
0.8072676
0.87629145
0.89490305
0.90890485
0.7983296
0.85271813
0.87928974
0.8984617
)
;
    }
    topAir_to_rightSolid
    {
        type            calculated;
        value           nonuniform List<scalar> 
130
(
0.55155786
0.54764831
0.54370682
0.53992823
0.53647316
0.53338611
0.53069274
0.52842888
0.52656666
0.52508577
0.52398733
0.52325801
0.52289624
0.55489327
0.5501596
0.54550066
0.54115503
0.53728238
0.5339113
0.53103362
0.52862933
0.52668282
0.52516866
0.52405084
0.5233096
0.52293764
0.56180278
0.55515169
0.54893585
0.54343185
0.53874472
0.53482214
0.53158763
0.52896133
0.52688312
0.5253034
0.52416089
0.52340356
0.52302035
0.57260705
0.56210333
0.55325932
0.54609913
0.54037601
0.5358099
0.5321778
0.52930881
0.52708405
0.52541588
0.52422602
0.52346148
0.52308351
0.58599064
0.56886495
0.55686705
0.548131
0.54155235
0.53649538
0.53257481
0.52954581
0.5272321
0.52551029
0.52428795
0.52350643
0.52312486
0.58598481
0.56882403
0.55685948
0.54814649
0.54158343
0.53653523
0.53261789
0.52959074
0.52727735
0.52555238
0.52432629
0.52353913
0.52315427
0.57258682
0.56205408
0.55321105
0.54609452
0.54040793
0.53586519
0.53224072
0.52937106
0.52715028
0.52548289
0.52428489
0.5235048
0.52312477
0.56181824
0.55513443
0.54890313
0.54343812
0.53879443
0.53488998
0.53165906
0.52903187
0.52695384
0.52536577
0.52420292
0.52342995
0.52305095
0.55497792
0.5502207
0.54554754
0.54121319
0.53735078
0.53398706
0.53110672
0.52869698
0.52674034
0.525208
0.52407676
0.52332893
0.522956
0.55168706
0.54776555
0.54381296
0.54002103
0.53654486
0.53346477
0.530785
0.52849708
0.5266004
0.52510593
0.52400232
0.52327636
0.52291454
)
;
    }
    topAir_to_heater
    {
        type            calculated;
        value           nonuniform List<scalar> 
40
(
0.56131382
0.56023302
0.55813453
0.55516234
0.56687654
0.56555659
0.56297967
0.55932351
0.57913422
0.57730154
0.57362846
0.56829575
0.60068147
0.59816824
0.59273096
0.58405459
0.63585399
0.63352123
0.62657187
0.61254303
0.63588569
0.63354231
0.62657908
0.61254176
0.60076708
0.59822993
0.5927527
0.584049
0.57920313
0.57735404
0.57367378
0.56833076
0.56696662
0.5656283
0.56304648
0.5594012
0.561415
0.56032771
0.55823297
0.55528462
)
;
    }
    topAir_to_leftSolid
    {
        type            calculated;
        value           nonuniform List<scalar> 
130
(
0.51768195
0.51770839
0.51777137
0.51787323
0.51800995
0.51815106
0.51830466
0.51847682
0.51867736
0.51887779
0.51906455
0.51921984
0.51930393
0.51764748
0.51767465
0.51773599
0.51783604
0.51796778
0.51811041
0.51827272
0.51846203
0.51867749
0.51889977
0.51910992
0.51927694
0.51936274
0.51762964
0.51765688
0.51771382
0.51780449
0.51792354
0.5180631
0.51823413
0.51844581
0.51870643
0.51897412
0.51921832
0.51939804
0.5194974
0.51764876
0.51767732
0.51772022
0.51778714
0.51789052
0.51803439
0.51821785
0.51845462
0.51874345
0.5190511
0.51936205
0.51959202
0.51972234
0.51768127
0.5176951
0.51772306
0.5177824
0.51788137
0.51802279
0.51821082
0.51845402
0.51875306
0.51908773
0.51945565
0.51975357
0.51992314
0.51767576
0.5176805
0.5177066
0.51776867
0.51787129
0.51801962
0.51820761
0.51843801
0.51871506
0.51904323
0.51940981
0.51976041
0.51994628
0.51763812
0.51765019
0.51768704
0.51776139
0.51787031
0.51802624
0.51823012
0.51845925
0.5187163
0.51901324
0.51934776
0.5196236
0.51977231
0.51758972
0.51761978
0.51768712
0.51779097
0.51792139
0.51808737
0.51828509
0.51849315
0.51871319
0.51896375
0.51923058
0.51944757
0.51955862
0.51758254
0.5176196
0.51769844
0.5178213
0.51798086
0.51815895
0.51834236
0.51852832
0.51872786
0.51893906
0.51915979
0.51933107
0.51943196
0.51759986
0.51763687
0.51772247
0.51785573
0.51803636
0.51822233
0.51840312
0.51859067
0.51877988
0.51896884
0.51915623
0.51930438
0.51938912
)
;
    }
}


// ************************************************************************* //
