/*--------------------------------*- C++ -*----------------------------------*\
| =========                 |                                                 |
| \\      /  F ield         | OpenFOAM: The Open Source CFD Toolbox           |
|  \\    /   O peration     | Version:  v2012                                 |
|   \\  /    A nd           | Website:  www.openfoam.com                      |
|    \\/     M anipulation  |                                                 |
\*---------------------------------------------------------------------------*/
FoamFile
{
    version     2.0;
    format      ascii;
    class       volScalarField;
    location    "140/topAir";
    object      T;
}
// * * * * * * * * * * * * * * * * * * * * * * * * * * * * * * * * * * * * * //

dimensions      [0 0 0 1 0 0 0];


internalField   nonuniform List<scalar> 
1200
(
315.23376
329.4676
342.39038
354.29603
365.44826
376.02907
386.15403
395.84906
404.96894
413.40884
421.14106
428.09933
434.12711
437.26026
439.28463
440.07468
439.65896
438.26021
436.23154
433.95571
431.75256
429.83122
428.29841
427.19188
426.5258
426.34311
426.77006
428.09777
430.89951
435.67042
300.32981
300.95614
301.81919
302.88252
304.11899
305.50846
307.03369
308.6834
310.7625
313.52862
317.27831
322.4697
329.36293
337.72778
347.07843
356.44583
364.83994
371.60567
376.53898
379.81741
381.8114
382.93778
383.57193
384.02209
384.56524
385.50729
387.2743
390.60912
396.92739
407.90995
300.00735
300.02818
300.06691
300.1274
300.21292
300.3264
300.47033
300.64704
300.86599
301.14243
301.50206
302.13242
303.8954
307.83452
314.52875
323.6942
334.18939
344.63826
353.99148
361.72473
367.74616
372.22812
375.47247
377.81486
379.58357
381.0993
382.71566
384.93863
388.72895
395.65126
300.00018
300.00086
300.00252
300.00575
300.01133
300.02019
300.03344
300.05238
300.07879
300.11522
300.16612
300.24662
300.42738
301.07845
303.97829
311.05069
320.9739
331.35739
340.99993
349.43979
356.54632
362.35136
366.9801
370.61897
373.48768
375.82066
377.87335
379.97982
382.7437
387.2493
315.23258
329.31121
341.93644
353.40438
363.96403
373.76249
382.87469
391.31232
399.02307
405.89549
411.76074
416.4266
419.65857
419.21957
417.39581
414.54047
411.21296
407.9747
405.16928
402.94353
401.29916
400.15593
399.41197
398.9791
398.82764
399.04112
399.89037
401.9973
406.55605
412.9781
300.32942
300.94391
301.77412
302.77672
303.9178
305.16941
306.50567
307.89858
309.31901
310.72604
312.0662
313.29115
314.3392
315.11861
315.62952
315.96924
316.32236
316.84709
317.58948
318.54671
319.69129
321.02025
322.55198
324.30373
326.31295
328.63042
331.3008
334.34866
337.89723
346.89931
300.00732
300.02759
300.06432
300.12018
300.19708
300.29632
300.41855
300.5637
300.73099
300.91868
301.12372
301.34648
301.61039
301.95532
302.43462
303.20875
304.63012
306.8932
309.82987
313.24373
316.84224
320.70117
325.0317
329.68448
334.54684
339.49003
344.58695
350.12403
356.59869
364.55272
300.00018
300.00084
300.00238
300.0053
300.01017
300.01765
300.02844
300.04331
300.06311
300.08875
300.12148
300.16407
300.22836
300.38275
301.02305
303.31098
308.61382
316.83153
326.2799
335.43929
343.61937
350.51418
355.9188
360.31167
364.01965
367.30991
370.40067
373.38198
376.39736
379.90729
315.23279
329.34165
342.00601
353.52222
364.14496
374.0285
383.25756
391.87068
399.88282
407.26649
413.95781
419.85514
424.76327
425.77384
425.39363
423.40359
419.70719
414.59288
408.81209
403.31028
398.69054
395.08885
392.36866
390.35197
388.95725
388.23126
388.36386
389.92391
394.59966
405.26872
300.32949
300.94616
301.78015
302.78731
303.93359
305.19178
306.53807
307.94939
309.4018
310.86743
312.31088
313.68663
314.93548
315.93053
316.59412
316.87063
316.77795
316.47959
316.27607
316.47376
317.18643
318.3955
320.06656
322.21811
324.91687
328.23188
332.18485
336.84387
342.59886
351.39918
300.00733
300.02769
300.06461
300.12071
300.19778
300.29698
300.41887
300.56337
300.72969
300.91613
301.11961
301.33522
301.55538
301.76749
301.95912
302.14111
302.43396
303.18925
304.88617
307.68473
311.18449
315.0178
319.07358
323.4995
328.50895
334.20115
340.33198
346.72068
353.67947
361.41908
300.00018
300.00084
300.00239
300.00532
300.01019
300.01761
300.02825
300.04278
300.06189
300.08625
300.11649
300.15327
300.19767
300.25455
300.35685
300.6777
301.82416
305.0248
311.36943
320.11321
329.5089
338.3077
345.73592
351.7692
356.68577
360.82829
364.49264
367.88234
371.19249
375.79678
315.23191
329.34902
342.03523
353.59004
364.27505
374.25876
383.6506
392.52747
400.94863
408.96221
416.60768
423.92502
430.85724
434.10005
437.07679
439.71397
441.71152
442.47907
441.41122
438.96711
435.91841
432.78912
429.80316
427.05619
424.69043
422.94349
422.2953
424.10947
431.4199
439.91156
300.3295
300.94687
301.78318
302.79503
303.94946
305.22134
306.59046
308.03987
309.55487
311.12191
312.72682
314.35524
316.05909
317.59262
318.97878
320.13342
320.9025
321.09107
320.73744
320.50945
320.79754
321.75818
323.37722
325.64879
328.65876
332.53767
337.46392
343.89575
353.45513
378.97211
300.00733
300.02772
300.06477
300.12119
300.19886
300.29913
300.42283
300.57038
300.74183
300.93685
301.15463
301.39361
301.65244
301.92241
302.19196
302.44232
302.64485
302.80805
303.48191
305.95422
309.57335
314.19831
319.43001
325.25982
331.8149
338.95342
346.38532
354.373
363.7248
377.62979
300.00018
300.00084
300.0024
300.00535
300.01026
300.01776
300.02855
300.04333
300.06284
300.08787
300.1192
300.15763
300.20406
300.25943
300.32555
300.40908
300.54165
300.9415
303.52461
312.09103
319.79852
329.67449
338.66543
345.84881
351.55607
356.32669
360.61493
364.9468
372.3634
389.6998
315.22994
329.34916
342.04203
353.60718
364.30683
374.31127
383.73234
392.6504
401.12849
409.21998
416.96906
424.41786
431.35757
433.5462
435.7404
438.07861
440.60412
442.97556
444.90375
447.59494
451.16528
455.0294
458.5448
461.60333
464.12576
466.10488
467.74319
469.68192
473.32239
479.96566
300.32947
300.9471
301.78433
302.79805
303.95553
305.23212
306.60834
308.06841
309.59927
311.18971
312.82941
314.52335
316.63269
318.63179
320.54154
322.17857
323.10085
323.43137
323.46116
324.01732
324.95759
326.20144
328.02951
330.77074
335.21627
342.41135
353.37986
369.1513
391.54933
423.46168
300.00733
300.02773
300.06485
300.12141
300.19937
300.30013
300.42463
300.57344
300.74684
300.94488
301.16735
301.4143
301.69285
301.99709
302.31794
302.63379
302.89561
303.12368
304.62161
308.10824
311.41322
315.13612
319.98014
326.49553
334.5867
343.3908
350.96555
358.08107
373.51242
401.654
300.00018
300.00084
300.00241
300.00536
300.0103
300.01785
300.02872
300.04364
300.06339
300.0888
300.12073
300.16016
300.20842
300.26695
300.3375
300.42374
300.55707
301.20389
308.26308
330.99566
336.10398
339.01902
343.90761
349.27784
354.61874
359.88613
365.02378
370.34925
378.35572
397.36019
315.23023
329.35021
342.04391
353.60981
364.31015
374.31517
383.73715
392.65726
401.13911
409.2352
416.98869
424.43663
431.37515
433.56293
435.75762
438.09418
440.50837
442.70019
444.6582
447.49812
451.11543
454.80008
458.10545
460.95872
463.29756
465.13189
466.66214
468.5057
472.00075
478.36604
300.32948
300.94713
301.78441
302.79819
303.95577
305.23248
306.60888
308.06921
309.60048
311.19147
312.83181
314.52983
316.64288
318.63934
320.52526
322.0819
322.98673
323.27401
323.43486
324.10199
325.11748
326.51839
328.28729
330.5832
334.22562
340.19483
349.56419
364.07731
386.09803
418.6459
300.00733
300.02774
300.06485
300.12141
300.19938
300.30015
300.42467
300.57352
300.74697
300.94507
301.16764
301.41479
301.69365
301.99811
302.3184
302.63104
302.88583
303.14176
305.367
308.79178
312.11996
316.01643
321.25731
328.41357
337.17683
346.24431
353.61581
358.63897
371.4275
397.29651
300.00018
300.00084
300.00241
300.00536
300.0103
300.01785
300.02872
300.04364
300.0634
300.08882
300.12078
300.16026
300.20861
300.2673
300.33817
300.42527
300.56806
301.45294
313.42159
333.91567
338.76919
341.52164
345.92175
350.88057
355.90592
360.78947
365.30666
369.43944
374.21355
394.02381
315.23246
329.3509
342.03867
353.59464
364.28065
374.26499
383.65673
392.53433
400.95837
408.97621
416.62713
423.94736
430.87924
434.11558
437.07991
439.68661
441.6107
442.22616
440.93824
438.24369
434.94564
431.55864
428.29861
425.28905
422.71698
420.86018
420.17989
421.86136
428.80749
437.25481
300.32951
300.94693
301.78332
302.79529
303.94989
305.22199
306.59138
308.04113
309.55659
311.12429
312.73017
314.35969
316.06734
317.59833
318.97669
320.11303
320.8487
320.98215
320.60083
320.40016
320.75886
321.82118
323.55901
325.94781
329.04894
332.94575
337.71796
343.70578
352.2515
376.46764
300.00733
300.02772
300.06478
300.1212
300.19889
300.29918
300.42293
300.57055
300.74209
300.93724
301.1552
301.39444
301.65358
301.92367
302.19271
302.44116
302.63931
302.80452
303.66558
306.4058
310.27591
315.14883
320.67539
326.87742
333.77587
340.98751
347.81085
354.18534
361.66999
374.00531
300.00018
300.00084
300.0024
300.00535
300.01026
300.01777
300.02856
300.04335
300.06289
300.08794
300.11932
300.15784
300.20441
300.26
300.32655
300.4112
300.54834
301.00207
304.42139
313.49431
321.26108
330.92746
339.37572
346.02654
351.31918
355.73424
359.61904
363.29382
368.02106
381.77522
315.23486
329.34551
342.011
353.52771
364.15051
374.03304
383.26015
391.87178
399.88365
407.26779
413.95569
419.84536
424.74289
425.73405
425.31425
423.2536
419.45357
414.21566
408.3095
402.68846
397.95735
394.26492
391.50744
389.54667
388.32119
387.86892
388.35759
390.31786
395.33263
405.76494
300.32953
300.94629
301.78039
302.7877
303.93417
305.19259
306.53912
307.95072
309.40337
310.8691
312.31238
313.68712
314.93342
315.92264
316.57578
316.83643
316.72592
316.41534
316.2137
316.43158
317.18334
318.45524
320.21874
322.48868
325.30902
328.6993
332.61776
337.06338
342.337
350.86743
300.00733
300.02769
300.06462
300.12073
300.19783
300.29706
300.41901
300.56359
300.73003
300.91662
301.12025
301.33594
301.55606
301.76788
301.95895
302.14227
302.44751
303.24115
305.01553
307.91539
311.52499
315.49536
319.73746
324.38509
329.5723
335.24938
341.09913
346.90687
352.9741
359.81345
300.00018
300.00084
300.00239
300.00532
300.01019
300.01762
300.02826
300.04281
300.06195
300.08636
300.11668
300.15358
300.1982
300.2558
300.36175
300.70081
301.91159
305.2512
311.76404
320.59255
329.94357
338.62628
345.91318
351.80772
356.60169
360.6286
364.16429
367.40384
370.54491
373.88524
315.23596
329.31723
341.94409
353.41256
363.9715
373.7676
382.87647
391.31128
399.02133
405.89397
411.75673
416.41626
419.63564
419.17608
417.33087
414.46262
411.13807
407.91134
405.10561
402.84735
401.12966
399.87582
399.00281
398.45626
398.24588
398.48251
399.45253
401.77514
406.61214
413.05599
300.32949
300.94411
301.7745
302.77733
303.91868
305.17061
306.50723
307.9006
309.32163
310.72944
312.06918
313.29264
314.33781
315.11346
315.62124
315.96315
316.32683
316.86518
317.61594
318.57444
319.7176
321.0461
322.58447
324.35539
326.39378
328.73632
331.40214
334.38446
337.77324
346.85797
300.00732
300.0276
300.06433
300.12021
300.19715
300.29645
300.41877
300.56405
300.73154
300.91951
301.12486
301.34776
301.61205
301.95888
302.44436
303.23728
304.69559
306.9929
309.94025
313.34344
316.92322
320.72549
324.94915
329.44407
334.13927
338.97113
343.98203
349.45636
355.85774
363.77701
300.00018
300.00084
300.00238
300.0053
300.01018
300.01766
300.02847
300.04337
300.06321
300.08893
300.1218
300.16462
300.22957
300.38724
301.04888
303.41517
308.86558
317.22809
326.74044
335.88085
343.98981
350.81683
356.16976
360.51194
364.16976
367.38742
370.35756
373.18471
376.08324
379.51599
315.23804
329.47545
342.40059
354.30719
365.45847
376.03656
386.15817
395.85023
404.9701
413.41131
421.14491
428.10403
434.13007
437.25581
439.26715
440.039
439.60284
438.18513
436.13778
433.83648
431.59327
429.6131
428.00464
426.8175
426.08546
425.86907
426.30573
427.68705
430.57153
435.39216
300.3299
300.9564
301.81969
302.88333
304.12016
305.51005
307.03577
308.68595
310.76207
313.52223
317.26381
322.45524
329.36042
337.75366
347.14319
356.5479
364.96784
371.74139
376.66141
379.90597
381.84871
382.90975
383.47066
383.85075
384.33935
385.24878
387.00451
390.3399
396.65593
407.62145
300.00735
300.02819
300.06693
300.12744
300.21301
300.32657
300.47061
300.64747
300.86656
301.14306
301.50243
302.12436
303.88338
307.84591
314.59608
323.83661
334.4034
344.90072
354.26916
361.98345
367.95709
372.36976
375.53154
377.7872
379.47407
380.91922
382.47803
384.65446
388.40625
395.30308
300.00018
300.00086
300.00252
300.00575
300.01133
300.02021
300.03348
300.05245
300.07891
300.11545
300.16651
300.24718
300.4294
301.08819
304.05512
311.272
321.31098
331.74809
341.39958
349.81441
356.8688
362.60173
367.14577
370.6944
373.47347
375.72184
377.69653
379.72983
382.42253
386.86758
)
;

boundaryField
{
    maxY
    {
        type            zeroGradient;
    }
    minX
    {
        type            fixedValue;
        value           uniform 300;
    }
    maxX
    {
        type            inletOutlet;
        inletValue      uniform 300;
        value           nonuniform List<scalar> 
40
(
435.7173
407.99168
395.70426
387.27525
413.03695
346.95936
364.59019
379.92767
405.30823
351.43826
361.28792
375.6318
440.06378
379.19784
377.48335
389.35437
480.00205
423.8428
401.79657
300
478.30781
418.82788
397.29914
393.59459
437.23285
376.47989
373.87023
381.48516
405.76297
350.84249
359.74567
373.86573
413.09364
346.89148
363.80312
379.51847
435.41942
407.67107
395.3273
386.87091
)
;
    }
    minZ
    {
        type            zeroGradient;
    }
    maxZ
    {
        type            zeroGradient;
    }
    topAir_to_rightSolid
    {
        type            compressible::turbulentTemperatureCoupledBaffleMixed;
        refValue        nonuniform List<scalar> 
130
(
630.25229
634.75319
639.35644
643.83254
647.98055
651.73212
655.04084
657.84791
660.17495
662.03708
663.42477
664.34873
664.80694
626.47284
631.86515
637.26352
642.38249
647.01397
651.10022
654.62937
657.60735
660.03813
661.94122
663.35275
664.29106
664.76159
618.76424
626.1809
633.27468
639.69142
645.25905
649.99342
653.94979
657.19772
659.79065
661.77513
663.21734
664.17564
664.65892
607.07755
618.42468
628.31343
636.55438
643.29861
648.78285
653.21259
656.75466
659.52786
661.62245
663.12386
664.09024
664.56747
593.20895
611.07118
624.23912
634.1893
641.89379
647.94449
652.71444
656.44798
659.32875
661.48896
663.03089
664.01977
664.5021
593.21493
611.11521
624.24764
634.17141
641.85703
647.89649
652.66186
656.39256
659.27249
661.43634
662.98282
663.97875
664.46529
607.09909
618.47903
628.36849
636.56008
643.26102
648.71641
653.13594
656.67808
659.44569
661.53879
663.05018
664.03617
664.51596
618.74733
626.20053
633.31263
639.68427
645.19978
649.91125
653.86218
657.11028
659.70221
661.69655
663.16404
664.14193
664.61988
626.37729
631.79499
637.20878
642.3135
646.93169
651.00796
654.53942
657.52338
659.96622
661.89177
663.32002
664.2665
664.73822
630.10468
634.61733
639.23167
643.72193
647.89401
651.6361
654.92708
657.76314
660.1328
662.01181
663.40592
664.32555
664.78376
)
;
        refGradient     uniform 0;
        valueFraction   uniform 0.99967867;
        value           nonuniform List<scalar> 
130
(
630.1906
634.6894
639.29044
643.76439
647.91046
651.66032
654.96763
657.77358
660.09982
661.96148
663.34916
664.27373
664.73333
626.40263
631.7923
637.18822
642.30503
646.93465
651.01935
654.54722
657.5242
659.95427
661.85703
663.26878
664.20826
664.6807
618.69863
626.11105
633.20078
639.61398
645.17867
649.91063
653.86508
657.11152
659.70339
661.68728
663.12953
664.08903
664.57559
607.02466
618.36779
628.25258
636.48991
643.23097
648.7125
653.13994
656.68011
659.45187
661.5456
663.04712
664.01553
664.49533
593.16067
611.01778
624.18236
634.13049
641.83375
647.88363
652.65303
656.38618
659.26666
661.42671
662.96877
663.9585
664.44282
593.16657
611.06173
624.19085
634.11258
641.79692
647.8355
652.60024
656.3305
659.21009
661.37373
662.9203
663.91703
664.40547
607.04611
618.42198
628.3074
636.49529
643.19298
648.64558
653.06273
656.6029
659.36903
661.46123
662.97268
663.96059
664.44292
618.68161
626.13052
633.23852
639.60659
645.11914
649.82821
653.77724
657.02391
659.61485
661.60872
663.07637
664.05555
664.5367
626.30709
631.72215
637.13348
642.236
646.8523
650.92698
654.45713
657.44007
659.8822
661.80745
663.23598
664.18372
664.65736
630.04301
634.55355
639.16567
643.65377
647.82387
651.56424
654.85378
657.6887
660.05752
661.93607
663.33018
664.25045
664.71006
)
;
        Tnbr            T;
        thicknessLayers List<scalar> 0();
        kappaLayers     List<scalar> 0();
        kappaMethod     fluidThermo;
        kappa           none;
        alphaAni        none;
        alpha           none;
        field           T;
    }
    topAir_to_heater
    {
        type            compressible::turbulentTemperatureCoupledBaffleMixed;
        refValue        nonuniform List<scalar> 
40
(
619.29606
620.49041
622.82362
626.15892
613.22339
614.65549
617.47047
621.50866
600.23924
602.14529
606.00249
611.69148
578.70027
581.13133
586.46263
595.17623
546.68169
548.69448
554.7809
567.48924
546.65442
548.67622
554.77451
567.49045
578.61777
581.07138
586.44113
595.18195
600.16782
602.09055
605.95465
611.65387
613.12596
614.57757
617.39721
621.42235
619.18443
620.38554
622.71377
626.02102
)
;
        refGradient     uniform 0;
        valueFraction   uniform 0.99967867;
        value           nonuniform List<scalar> 
40
(
619.23757
620.43219
622.76489
626.09899
613.16105
614.59211
617.40526
621.44109
600.18318
602.08849
605.94381
611.62979
578.6538
581.08504
586.41547
595.12691
546.64533
548.65819
554.7434
567.44847
546.61808
548.63994
554.73701
567.44965
578.57134
581.02511
586.39397
595.13261
600.11177
602.03375
605.89594
611.59211
613.06364
614.51419
617.332
621.35478
619.12597
620.32734
622.65507
625.96112
)
;
        Tnbr            T;
        thicknessLayers List<scalar> 0();
        kappaLayers     List<scalar> 0();
        kappaMethod     fluidThermo;
        kappa           none;
        alphaAni        none;
        alpha           none;
        field           T;
    }
    topAir_to_leftSolid
    {
        type            compressible::turbulentTemperatureCoupledBaffleMixed;
        refValue        nonuniform List<scalar> 
130
(
671.54357
671.50468
671.41881
671.28287
671.10208
670.91586
670.71372
670.48784
670.2256
669.96395
669.72034
669.51775
669.40736
671.5883
671.54849
671.46484
671.33138
671.15719
670.96923
670.75612
670.50843
670.22736
669.93798
669.66482
669.44788
669.33622
671.61144
671.57154
671.49357
671.37226
671.21447
671.03044
670.80596
670.52923
670.18968
669.84154
669.52427
669.29066
669.16103
671.58664
671.54502
671.48527
671.39473
671.25724
671.06756
670.8269
670.51763
670.1415
669.74164
669.3381
669.03944
668.8694
671.54446
671.52195
671.48158
671.40088
671.26909
671.08257
670.83598
670.51837
670.12903
669.69428
669.21736
668.83127
668.61085
671.55161
671.5409
671.50293
671.41868
671.28215
671.08668
670.84014
670.53908
670.17813
669.7517
669.27642
668.82247
668.58109
671.60044
671.58022
671.52831
671.42813
671.28344
671.07811
670.81102
670.51164
670.17658
669.7905
669.35652
668.99875
668.80508
671.66325
671.61968
671.52822
671.38978
671.21727
670.99899
670.73998
670.46801
670.18094
669.85492
669.50846
669.22683
669.08218
671.67257
671.61992
671.51355
671.3505
671.14024
670.90637
670.666
670.4227
670.16227
669.88724
669.60049
669.37809
669.247
671.6501
671.59747
671.48223
671.30557
671.06785
670.82357
670.58631
670.34061
670.09313
669.84638
669.60204
669.40873
669.29754
)
;
        refGradient     uniform 0;
        valueFraction   uniform 0.99967867;
        value           nonuniform List<scalar> 
130
(
671.42908
671.39477
671.31308
671.18101
671.00386
670.8211
670.62228
670.39959
670.14037
669.88151
669.64046
669.44017
669.33175
671.47379
671.43852
671.35895
671.22922
671.05848
670.87373
670.66362
670.41872
670.14021
669.85314
669.58195
669.36657
669.25599
671.49693
671.46157
671.3877
671.27012
671.1158
670.935
670.71356
670.43969
670.10282
669.75717
669.44215
669.21051
669.0825
671.47213
671.43506
671.37941
671.29261
671.15859
670.97218
670.73463
670.42831
670.055
669.65784
669.25688
668.96067
668.79291
671.42996
671.412
671.37573
671.29877
671.17046
670.98721
670.74373
670.42908
670.04259
669.61058
669.1363
668.75274
668.53461
671.43711
671.43094
671.39707
671.31656
671.18351
670.99131
670.74789
670.44978
670.09168
669.66799
669.19535
668.74394
668.50486
671.48593
671.47025
671.42244
671.326
671.18479
670.98273
670.71875
670.42232
670.09007
669.70669
669.27531
668.92001
668.72862
671.54872
671.5097
671.42234
671.28764
671.1186
670.90357
670.64761
670.37848
670.09409
669.77055
669.42634
669.14669
669.00367
671.55804
671.50993
671.40765
671.24833
671.04154
670.81089
670.57352
670.33301
670.07514
669.80241
669.51763
669.2968
669.1668
671.53558
671.48754
671.37649
671.20371
670.96965
670.72884
670.49492
670.25241
670.00794
669.76397
669.5222
669.33119
669.22197
)
;
        Tnbr            T;
        thicknessLayers List<scalar> 0();
        kappaLayers     List<scalar> 0();
        kappaMethod     fluidThermo;
        kappa           none;
        alphaAni        none;
        alpha           none;
        field           T;
    }
}


// ************************************************************************* //
