/*--------------------------------*- C++ -*----------------------------------*\
| =========                 |                                                 |
| \\      /  F ield         | OpenFOAM: The Open Source CFD Toolbox           |
|  \\    /   O peration     | Version:  v2012                                 |
|   \\  /    A nd           | Website:  www.openfoam.com                      |
|    \\/     M anipulation  |                                                 |
\*---------------------------------------------------------------------------*/
FoamFile
{
    version     2.0;
    format      ascii;
    class       volScalarField;
    location    "49";
    object      p;
}
// * * * * * * * * * * * * * * * * * * * * * * * * * * * * * * * * * * * * * //

dimensions      [0 2 -2 0 0 0 0];


internalField   nonuniform List<scalar> 
64000
(
-1.07689e-21
-4.15039e-21
-3.4493e-21
-5.61892e-21
-9.02014e-21
-3.31168e-21
-5.51463e-21
-5.35039e-21
-6.18001e-21
-6.90479e-21
-4.77901e-21
-7.85503e-21
-6.12778e-21
-8.5919e-21
-6.11288e-21
-5.73238e-21
-2.40021e-21
-2.16586e-21
-2.67307e-21
-2.66074e-21
-2.47265e-21
-3.64726e-21
-4.37836e-21
-4.94417e-21
-3.54979e-21
-2.3293e-21
3.77604e-22
-6.03246e-21
-2.75857e-21
-2.00051e-21
-1.57229e-21
-1.73468e-21
-2.66431e-21
-2.68598e-21
-2.06133e-21
-5.05982e-21
-9.2209e-22
-1.02847e-22
-7.34565e-22
-7.25838e-22
-7.92521e-21
-1.12793e-20
-1.13046e-20
-8.69922e-21
-1.13518e-20
-1.11762e-20
-9.35133e-21
-7.87115e-21
-5.82626e-21
-1.3765e-20
-1.27366e-20
-1.19667e-20
-7.60061e-21
-8.26697e-21
-9.17212e-21
-7.56216e-21
-6.55145e-21
-7.38864e-22
-3.82432e-21
-3.31285e-21
-5.50367e-22
-4.7577e-21
-8.89176e-21
-1.20169e-20
-6.88626e-21
-4.56691e-21
-4.249e-21
-6.92109e-21
-3.1801e-21
-2.81621e-21
-2.96794e-22
-2.73734e-21
-7.09354e-21
-5.70413e-21
-3.45427e-22
-1.94311e-22
-4.07681e-22
-9.49763e-23
-1.9558e-21
-2.32026e-21
-6.06432e-21
-8.24987e-21
-1.37546e-20
-1.13311e-20
-9.0754e-21
-1.32063e-20
-1.32849e-20
-9.47309e-21
-9.56206e-21
-1.24211e-20
-1.13554e-20
-1.18475e-20
-9.54173e-21
-7.91368e-21
-6.56783e-21
-3.62637e-21
-1.14008e-20
-6.2438e-21
-3.0727e-21
-8.07885e-22
-3.71623e-21
-1.05575e-20
-1.06897e-20
-8.9037e-21
-5.70751e-21
-5.98606e-21
-4.97058e-21
-6.55123e-21
-3.32432e-21
-2.92621e-21
-1.12272e-21
-1.98193e-21
-4.97351e-21
-3.47533e-21
-1.75881e-21
-9.79083e-22
-5.92516e-22
1.04495e-21
-2.35425e-22
-1.87936e-23
-9.55108e-21
-1.00736e-20
-1.1679e-20
-1.50593e-20
-1.29881e-20
-1.69323e-20
-1.58445e-20
-6.75669e-21
-1.00712e-20
-1.29346e-20
-1.09848e-20
-1.22335e-20
-1.10624e-20
-8.95296e-21
-7.90579e-21
-7.34435e-21
-6.94375e-21
-8.97769e-21
-2.59102e-21
-8.76036e-22
-5.78163e-21
-8.92196e-21
-1.33079e-20
-1.00645e-20
-1.00891e-20
-2.06823e-21
-4.6333e-21
-4.77956e-21
-5.16367e-21
-5.03212e-21
-1.67432e-21
-2.4946e-21
-3.66233e-21
-2.84042e-21
-2.25477e-21
-1.65251e-21
-2.06873e-21
7.76393e-22
-1.34971e-21
-1.80721e-22
-1.68963e-20
-1.22377e-20
-1.11789e-20
-1.40434e-20
-1.36391e-20
-1.69267e-20
-1.42418e-20
-9.78833e-21
-8.55096e-21
-1.50553e-20
-1.50172e-20
-7.76252e-21
-9.63185e-21
-8.2596e-21
-1.16883e-20
-1.33366e-20
-7.24619e-21
-6.24654e-21
-5.1722e-21
-2.02418e-21
-5.57931e-21
-9.62733e-21
-1.18322e-20
-1.07635e-20
-6.63727e-21
-3.3573e-21
-4.50872e-21
-7.03097e-21
-7.19477e-21
-3.42583e-21
-2.24705e-21
-2.9779e-22
-1.43985e-21
-1.91678e-21
-4.54796e-21
-4.28436e-21
-1.12838e-21
-6.596e-22
1.25517e-21
-1.35144e-21
-1.33142e-20
-1.26938e-20
-1.09229e-20
-1.45648e-20
-1.41785e-20
-1.41911e-20
-1.14286e-20
-1.43749e-20
-1.32923e-20
-1.37499e-20
-1.28258e-20
-9.2889e-21
-1.17143e-20
-8.36881e-21
-9.65458e-21
-1.20475e-20
-6.27609e-21
-5.37518e-21
-4.34714e-21
-5.2077e-21
-5.2641e-21
-1.12092e-20
-1.13465e-20
-1.00344e-20
-9.13976e-21
-1.84007e-21
-3.96052e-21
-4.01339e-21
-6.9989e-21
-4.80382e-21
-4.79285e-21
-3.61551e-21
-2.08629e-21
-1.00065e-21
-4.02073e-21
-1.13728e-21
-1.69355e-21
-1.30061e-21
-2.37772e-22
6.71137e-22
-1.48939e-20
-1.6224e-20
-1.04945e-20
-1.27771e-20
-1.40452e-20
-1.45512e-20
-1.1387e-20
-1.31964e-20
-1.47499e-20
-1.25266e-20
-1.28836e-20
-1.24429e-20
-1.22931e-20
-1.0152e-20
-7.88946e-21
-1.03175e-20
-7.39655e-21
-2.89633e-21
-4.26501e-21
-5.93102e-21
-7.38926e-21
-1.23786e-20
-1.21492e-20
-1.06654e-20
-5.00758e-21
-5.91967e-21
-5.13774e-21
-2.40956e-21
-4.98243e-21
-3.72205e-21
-6.52398e-21
-6.45769e-21
1.42041e-21
-1.32168e-21
-3.45738e-21
-2.49486e-21
-1.61337e-21
-1.92188e-21
-2.00266e-21
-1.25735e-21
-1.48225e-20
-1.50827e-20
-1.29338e-20
-1.17812e-20
-1.44328e-20
-1.2442e-20
-1.27204e-20
-1.88759e-20
-1.6434e-20
-1.32479e-20
-1.0969e-20
-1.07697e-20
-1.12653e-20
-1.13008e-20
-7.82666e-21
-1.02914e-20
-7.44603e-21
-4.15541e-21
-6.53433e-21
-3.85999e-21
-6.08985e-21
-1.10631e-20
-1.04298e-20
-8.61948e-21
-5.64334e-21
-7.03994e-21
-4.64068e-21
-5.33308e-21
-4.06433e-21
-4.6292e-21
-4.95621e-21
-4.90348e-21
-9.22987e-22
-3.21295e-21
-4.93134e-21
-2.50544e-21
-1.39819e-21
-3.81377e-21
-1.37783e-21
-1.78817e-21
-2.01005e-20
-1.72905e-20
-1.23122e-20
-1.36702e-20
-1.48349e-20
-1.61014e-20
-1.41039e-20
-1.35302e-20
-1.42845e-20
-1.71499e-20
-8.39642e-21
-9.44489e-21
-1.44843e-20
-9.984e-21
-9.53822e-21
-1.02582e-20
-6.2159e-21
-1.54975e-21
-7.12685e-21
-9.25208e-21
-4.13633e-21
-8.58541e-21
-1.35014e-20
-8.30535e-21
-3.01154e-21
-5.61817e-21
-7.89233e-21
-6.65297e-21
-4.33695e-21
-6.42145e-21
-5.03693e-21
-3.33015e-21
-7.03372e-22
-3.38531e-21
-5.69224e-21
-2.50004e-21
-1.4264e-21
-2.29989e-21
-1.27274e-21
-1.32131e-21
-1.28098e-20
-1.36715e-20
-1.3337e-20
-1.30173e-20
-1.67926e-20
-1.78936e-20
-1.284e-20
-1.33798e-20
-1.26357e-20
-1.61409e-20
-1.24057e-20
-8.60465e-21
-1.18407e-20
-9.0855e-21
-1.14829e-20
-9.62238e-21
-7.15795e-21
-5.35102e-21
-3.80405e-21
-6.39073e-21
-8.26205e-21
-1.05368e-20
-1.21766e-20
-1.00676e-20
-7.58738e-21
-5.69004e-21
-5.31168e-21
-5.31215e-21
-6.6546e-21
-6.25487e-21
-2.8513e-21
-3.31764e-21
-3.12221e-21
-3.31819e-21
-6.65912e-21
-5.29818e-21
-2.87015e-21
-1.28171e-22
-5.80329e-22
-1.99222e-22
-1.14214e-20
-1.49211e-20
-1.56816e-20
-1.75597e-20
-1.4487e-20
-1.61437e-20
-1.81327e-20
-1.17441e-20
-1.35319e-20
-1.55924e-20
-1.13003e-20
-7.71071e-21
-1.12788e-20
-1.01951e-20
-1.18992e-20
-1.24334e-20
-5.44578e-21
-3.34619e-21
-1.15119e-21
-7.99826e-21
-1.17434e-20
-1.5202e-20
-1.15294e-20
-9.89189e-21
-9.43722e-21
-6.5575e-21
-2.30819e-21
-4.13445e-21
-6.00383e-21
-9.3597e-21
-3.87789e-21
-4.1018e-21
-3.29162e-21
-2.93559e-21
-2.83872e-21
-6.20325e-21
-2.8625e-21
-8.90429e-22
-9.99291e-22
-9.94348e-22
-1.25271e-20
-1.64771e-20
-1.58787e-20
-1.55366e-20
-1.60753e-20
-1.84835e-20
-1.33782e-20
-1.57028e-20
-1.10652e-20
-1.41509e-20
-1.61113e-20
-8.47882e-21
-7.7573e-21
-1.16791e-20
-9.43831e-21
-1.17042e-20
-8.34602e-21
-4.25115e-21
-4.63128e-21
-4.34904e-21
-1.01029e-20
-1.53183e-20
-1.20262e-20
-1.15896e-20
-1.22514e-20
-4.99653e-21
-4.9006e-21
-5.23369e-21
-6.11334e-21
-4.80499e-21
-3.03311e-21
-4.86749e-21
-3.65204e-21
-4.05574e-21
-3.74195e-21
-3.5685e-21
-7.9951e-22
-7.02842e-22
-2.22872e-21
-3.35292e-21
-1.847e-20
-1.61124e-20
-1.56559e-20
-1.59795e-20
-1.79308e-20
-1.78432e-20
-1.84811e-20
-1.86335e-20
-1.13491e-20
-1.29624e-20
-1.45849e-20
-1.07268e-20
-1.00444e-20
-1.25864e-20
-9.57175e-21
-1.2504e-20
-8.08883e-21
-3.77273e-21
-3.57109e-21
-7.12926e-21
-8.16239e-21
-1.46087e-20
-1.24876e-20
-1.29818e-20
-7.29589e-21
-5.37157e-21
-5.86364e-21
-5.51036e-21
-6.50127e-21
-4.09664e-21
-6.21431e-21
-4.85768e-21
-7.20308e-22
-6.46059e-21
-7.30495e-21
-2.67764e-21
-7.23075e-22
-1.54693e-21
-1.81226e-21
-1.7874e-21
-1.95375e-20
-1.98074e-20
-1.60171e-20
-1.84374e-20
-1.52922e-20
-1.51747e-20
-1.72504e-20
-1.73564e-20
-1.36947e-20
-1.70478e-20
-1.34622e-20
-1.18305e-20
-1.33284e-20
-1.23675e-20
-1.07469e-20
-1.18652e-20
-8.83158e-21
-1.81255e-21
-1.65536e-21
-8.71954e-21
-9.48839e-21
-1.29108e-20
-1.2478e-20
-1.28685e-20
-9.21676e-21
-4.42308e-21
-1.15719e-21
-5.13307e-21
-6.38979e-21
-3.4725e-21
-4.11925e-21
-8.23906e-21
-3.21822e-21
-4.1097e-21
-7.13168e-21
-4.83878e-21
-9.85095e-22
-3.59773e-23
3.29172e-22
-2.40362e-21
-1.30675e-20
-2.03886e-20
-1.97057e-20
-1.70291e-20
-1.49836e-20
-1.68894e-20
-1.88751e-20
-2.03122e-20
-1.5701e-20
-1.35247e-20
-1.10398e-20
-1.55553e-20
-1.44676e-20
-1.11123e-20
-9.3785e-21
-1.18912e-20
-9.51845e-21
-6.35983e-21
-5.44175e-21
-6.31001e-21
-1.06607e-20
-9.87855e-21
-1.10922e-20
-1.32576e-20
-7.83932e-21
-4.88548e-21
-5.65287e-21
-6.66363e-21
-4.6015e-21
-3.28965e-21
-2.25265e-21
-5.07193e-21
-3.35098e-21
-3.32829e-21
-6.6769e-21
-2.4245e-21
-1.64774e-22
-2.84453e-21
-2.21016e-21
-5.33892e-22
-1.42909e-20
-1.63997e-20
-1.89561e-20
-1.62627e-20
-1.69968e-20
-1.78194e-20
-1.6637e-20
-1.77452e-20
-1.56702e-20
-1.27362e-20
-1.53163e-20
-1.4925e-20
-1.45517e-20
-1.12035e-20
-1.20923e-20
-1.26488e-20
-9.57047e-21
-5.88912e-21
-2.69905e-21
-6.90229e-21
-1.1718e-20
-1.28177e-20
-1.20716e-20
-8.01068e-21
-5.33508e-21
-6.93255e-21
-7.63488e-21
-4.7834e-21
-4.05542e-21
-3.07898e-21
-2.73515e-21
-3.58446e-21
-4.48433e-21
-3.62225e-21
-8.01831e-21
-4.90759e-21
1.16877e-21
2.52436e-22
-2.15285e-21
-7.20023e-22
-1.47372e-20
-1.43796e-20
-1.73556e-20
-1.37035e-20
-1.50657e-20
-1.83647e-20
-1.93811e-20
-2.00199e-20
-1.6667e-20
-1.4656e-20
-1.17285e-20
-1.62069e-20
-8.81575e-21
-1.09918e-20
-1.30431e-20
-1.25987e-20
-1.14096e-20
-8.05039e-21
-7.46763e-21
-5.64005e-21
-1.23857e-20
-1.0892e-20
-1.17307e-20
-6.8461e-21
-7.05861e-21
-1.84606e-21
-6.61271e-21
-9.66011e-21
-1.66855e-21
-4.19892e-21
-3.75626e-21
-4.46358e-21
-5.54603e-21
-2.79746e-21
-2.99975e-21
-4.07131e-21
-2.51947e-21
-8.02977e-22
-1.0931e-21
-1.20206e-21
-1.07019e-20
-1.52931e-20
-1.92311e-20
-1.38719e-20
-1.36131e-20
-2.06758e-20
-1.68463e-20
-1.73106e-20
-1.72919e-20
-1.65641e-20
-1.42793e-20
-1.29538e-20
-1.0677e-20
-1.04766e-20
-1.66678e-20
-1.32876e-20
-1.03012e-20
-3.49419e-21
-6.57056e-21
-1.01812e-20
-1.57344e-20
-9.28923e-21
-6.43862e-21
-7.51866e-21
-6.80231e-21
-5.79776e-21
-7.20829e-21
-7.14998e-21
-4.90977e-21
-5.23599e-21
-4.42827e-21
-1.11971e-21
-2.67746e-21
-3.18536e-21
-1.02463e-21
-3.71257e-21
-2.24245e-21
-2.56467e-21
3.64939e-22
-4.20601e-22
-8.84142e-21
-1.21334e-20
-1.55322e-20
-1.54667e-20
-1.749e-20
-1.83383e-20
-1.62143e-20
-1.43604e-20
-1.67211e-20
-1.65306e-20
-1.4151e-20
-1.41277e-20
-1.17367e-20
-8.95691e-21
-1.53153e-20
-1.58019e-20
-1.06497e-20
-8.85913e-21
-1.19093e-20
-1.14609e-20
-1.21068e-20
-3.72893e-21
-6.50027e-21
-7.4118e-21
-5.04763e-21
-5.9829e-21
-8.71128e-21
-5.50048e-21
-4.31808e-21
-5.39732e-21
-6.75478e-21
-1.88237e-21
-1.60549e-21
-2.91859e-21
-1.5043e-21
-3.28993e-21
-6.29894e-22
-1.61926e-21
-2.86409e-21
-3.45481e-21
-5.86113e-21
-1.31505e-20
-1.74037e-20
-1.38694e-20
-1.71565e-20
-1.51338e-20
-1.29734e-20
-1.63421e-20
-2.0532e-20
-1.59319e-20
-1.40197e-20
-1.31898e-20
-1.27326e-20
-1.25524e-20
-1.46103e-20
-1.33381e-20
-9.16113e-21
-8.98245e-21
-1.46642e-20
-1.04204e-20
-1.04775e-20
-8.26784e-21
-6.71691e-21
-7.68381e-21
-3.457e-21
-2.99293e-21
-1.19973e-20
-9.05887e-21
-8.74698e-21
-1.4108e-21
-2.5213e-21
-1.44711e-21
-3.42069e-21
-2.53069e-21
-2.39074e-21
-3.62974e-21
-3.44075e-21
-1.65316e-21
-3.3271e-21
-2.85338e-21
-9.27409e-21
-1.202e-20
-1.6017e-20
-1.19731e-20
-1.49836e-20
-1.38157e-20
-1.55093e-20
-1.6406e-20
-1.77512e-20
-1.70693e-20
-1.7653e-20
-1.52081e-20
-1.08251e-20
-1.52107e-20
-1.58491e-20
-9.51341e-21
-8.47663e-21
-6.68647e-21
-1.19966e-20
-1.07538e-20
-9.6944e-21
-5.49432e-21
-6.91689e-21
-1.00101e-20
-8.22512e-21
-3.99768e-21
-8.5408e-21
-7.15476e-21
-6.45536e-21
-3.31306e-21
-4.60786e-21
-2.25574e-21
-4.44064e-21
-1.57227e-21
-2.5723e-21
-5.22314e-21
-9.5915e-22
-1.99626e-21
-2.29846e-21
-2.97258e-21
-1.34177e-20
-1.46278e-20
-1.43641e-20
-1.22345e-20
-1.75309e-20
-1.30394e-20
-1.45824e-20
-1.61307e-20
-1.53384e-20
-1.69444e-20
-1.71426e-20
-1.6656e-20
-1.58721e-20
-1.80171e-20
-1.22635e-20
-8.62425e-21
-7.20958e-21
-8.65722e-21
-1.37647e-20
-1.02321e-20
-8.81533e-21
-1.99243e-21
-7.74235e-21
-9.91335e-21
-8.1017e-21
-6.01389e-21
-7.30202e-21
-9.64804e-21
-5.56647e-21
-2.12568e-21
-3.90192e-21
-2.78456e-21
-2.04339e-21
-3.08913e-21
-5.4917e-21
-6.65916e-21
-1.42168e-21
-1.2609e-21
-5.64928e-22
2.02172e-22
-1.63019e-20
-1.82579e-20
-1.4292e-20
-1.4431e-20
-1.5726e-20
-1.74055e-20
-1.45419e-20
-1.2516e-20
-1.67421e-20
-1.4325e-20
-1.77829e-20
-1.70748e-20
-1.45765e-20
-1.29551e-20
-1.12105e-20
-8.74007e-21
-7.00343e-21
-5.6826e-21
-8.86746e-21
-1.28185e-20
-1.16848e-20
-5.93124e-21
-9.08344e-21
-9.58321e-21
-8.8167e-21
-9.87455e-21
-7.11347e-21
-6.58682e-21
-4.10236e-21
-2.49599e-21
-4.35859e-21
-4.82944e-21
-1.0251e-21
-6.96704e-22
-9.7085e-21
-5.79146e-21
-1.69317e-21
-1.61838e-22
-1.59642e-21
-1.03626e-21
-1.19355e-20
-1.40423e-20
-1.75408e-20
-1.39271e-20
-1.49163e-20
-1.65449e-20
-1.54498e-20
-1.74268e-20
-1.32023e-20
-1.48252e-20
-1.73598e-20
-1.71098e-20
-9.3745e-21
-1.48594e-20
-1.64691e-20
-9.30493e-21
-5.05359e-21
-5.05117e-21
-8.90131e-21
-9.38485e-21
-9.0458e-21
-1.01711e-20
-1.06369e-20
-8.89832e-21
-1.12111e-20
-5.14911e-21
-7.02154e-21
-9.25191e-21
-1.72905e-21
-4.59441e-21
-6.73349e-21
-6.84917e-21
3.85741e-22
-4.18919e-21
-9.40148e-21
-5.95227e-21
-3.78632e-21
7.47654e-22
-2.30665e-21
-3.78229e-21
-8.57877e-21
-1.4041e-20
-1.65058e-20
-1.57169e-20
-1.35921e-20
-1.68908e-20
-1.56437e-20
-1.55239e-20
-1.18588e-20
-1.61958e-20
-1.9168e-20
-1.54424e-20
-1.02047e-20
-1.0018e-20
-1.24276e-20
-8.09666e-21
-7.99528e-21
-1.08164e-20
-8.24726e-21
-8.3339e-21
-8.68323e-21
-1.08114e-20
-8.26708e-21
-8.57884e-21
-1.15291e-20
-7.34854e-21
-4.38792e-21
-5.46164e-21
-5.104e-21
-5.15986e-21
-7.23766e-21
-6.04892e-21
5.00772e-22
-3.83491e-21
-9.47363e-21
-6.7338e-21
-2.80285e-21
-1.4659e-21
-1.47919e-21
-2.17646e-21
-1.22982e-20
-1.58311e-20
-1.87985e-20
-1.43367e-20
-1.28276e-20
-1.5176e-20
-1.58108e-20
-1.80599e-20
-1.09108e-20
-1.42862e-20
-2.01355e-20
-1.59671e-20
-1.25166e-20
-1.21618e-20
-8.14436e-21
-8.88682e-21
-9.53837e-21
-6.89382e-21
-4.93556e-21
-8.7671e-21
-9.1602e-21
-1.35944e-20
-1.07523e-20
-1.16795e-20
-9.1516e-21
-7.83466e-21
-5.49538e-21
-7.78557e-21
-5.10501e-21
-3.0954e-21
-4.13659e-21
-4.93049e-21
-9.65877e-22
-2.43558e-21
-6.31176e-21
-9.7912e-21
-4.09279e-21
-3.1713e-21
-8.82826e-22
4.85841e-22
-1.15212e-20
-1.40748e-20
-1.62466e-20
-1.91073e-20
-1.61669e-20
-1.72559e-20
-1.56574e-20
-1.07222e-20
-1.19716e-20
-1.25873e-20
-1.79205e-20
-1.60883e-20
-1.06652e-20
-1.2659e-20
-1.11576e-20
-1.21891e-20
-8.48887e-21
-7.0506e-21
-2.81529e-21
-5.05896e-21
-8.11563e-21
-1.38204e-20
-1.07431e-20
-9.21166e-21
-1.00718e-20
-8.49785e-21
-5.06634e-21
-3.29476e-21
-7.82157e-21
-3.92979e-21
-1.8529e-21
-7.66487e-21
-5.43419e-21
-3.29466e-21
-5.63965e-21
-4.37548e-21
-4.63656e-21
-3.26768e-21
-1.23155e-21
-1.96932e-21
-9.71119e-21
-1.40416e-20
-1.60647e-20
-1.62567e-20
-1.5399e-20
-1.54223e-20
-1.4473e-20
-1.25977e-20
-1.25791e-20
-1.39282e-20
-1.81438e-20
-1.04378e-20
-1.11253e-20
-1.26643e-20
-1.07559e-20
-7.78351e-21
-9.26006e-21
-7.48547e-21
-7.11468e-21
-7.28415e-21
-8.61553e-21
-7.05273e-21
-1.02804e-20
-1.07988e-20
-7.55853e-21
-6.89015e-21
-7.36028e-21
-4.79386e-21
-5.71016e-21
-3.12083e-21
-4.24104e-21
-5.34213e-21
-6.96789e-21
-7.75072e-21
-5.7005e-21
-4.17513e-21
-3.98108e-21
-4.73818e-21
-1.53378e-21
-2.0012e-21
-1.26329e-20
-1.8432e-20
-1.50746e-20
-1.15992e-20
-1.91315e-20
-1.73136e-20
-1.42472e-20
-1.19482e-20
-1.20929e-20
-1.36952e-20
-1.48281e-20
-1.1347e-20
-1.30364e-20
-1.02743e-20
-1.44291e-20
-6.80047e-21
-7.33058e-21
-4.8472e-21
-7.43691e-21
-5.60473e-21
-9.87005e-21
-8.433e-21
-7.76895e-21
-9.33699e-21
-1.07264e-20
-4.77982e-21
-6.19802e-21
-6.82723e-21
-3.5097e-21
-5.46807e-21
-4.3727e-21
-5.0715e-21
-7.74571e-21
-5.17442e-21
-7.6198e-21
-3.84607e-21
-4.15749e-21
-6.08854e-21
-1.88891e-21
-1.61373e-23
-1.124e-20
-1.54099e-20
-1.67142e-20
-1.34813e-20
-1.54141e-20
-1.94279e-20
-1.60847e-20
-1.2124e-20
-1.11825e-20
-1.4342e-20
-1.29314e-20
-1.28178e-20
-1.385e-20
-1.08865e-20
-1.21976e-20
-9.29583e-21
-5.47956e-21
-1.05084e-20
-6.06931e-21
-4.66496e-21
-9.96098e-21
-9.49256e-21
-9.29939e-21
-9.46618e-21
-9.73491e-21
-7.1745e-21
-7.463e-21
-1.66187e-21
-4.1129e-21
-4.73277e-21
-4.66586e-21
-6.34647e-21
-4.53008e-21
-5.37643e-21
-6.26924e-21
-5.37594e-21
-4.5429e-21
-3.211e-21
-1.94493e-21
-8.74456e-22
-1.28732e-20
-1.32354e-20
-1.45787e-20
-1.55333e-20
-1.62538e-20
-1.50734e-20
-1.57815e-20
-1.35741e-20
-1.22545e-20
-1.30567e-20
-1.28915e-20
-1.13667e-20
-1.28429e-20
-1.3566e-20
-1.23936e-20
-1.0154e-20
-6.23474e-21
-7.19157e-21
-5.9682e-21
-8.26014e-21
-9.51442e-21
-9.20004e-21
-1.01952e-20
-1.17218e-20
-9.78714e-21
-6.97325e-21
-4.6291e-21
-5.14932e-21
-6.16304e-21
-3.61066e-21
-3.96354e-21
-4.44665e-21
-3.5639e-21
-3.65278e-21
-5.22298e-21
-6.67678e-21
-2.13516e-21
-2.88351e-21
-2.94287e-21
-1.68894e-21
-1.6517e-20
-1.39998e-20
-1.18785e-20
-1.44862e-20
-1.74359e-20
-1.76236e-20
-1.45199e-20
-1.32964e-20
-1.47109e-20
-1.28381e-20
-9.72127e-21
-1.24569e-20
-1.4741e-20
-1.20464e-20
-1.05844e-20
-1.1124e-20
-6.68504e-21
-5.56424e-21
-4.7275e-21
-8.42831e-21
-8.87147e-21
-1.13629e-20
-1.40473e-20
-1.03128e-20
-8.88067e-21
-9.50893e-21
-5.047e-21
-2.82833e-21
-2.85265e-21
-6.29211e-21
-4.99351e-21
-5.68628e-21
-1.71785e-21
-2.5799e-21
-6.8611e-21
-3.17475e-21
-2.39994e-21
-2.34436e-21
-3.40514e-21
-3.1897e-21
-1.04418e-20
-1.03636e-20
-1.22742e-20
-1.17103e-20
-1.85722e-20
-1.54355e-20
-1.36382e-20
-1.4186e-20
-1.40784e-20
-1.35653e-20
-1.25396e-20
-1.11278e-20
-1.30416e-20
-1.05012e-20
-7.88588e-21
-1.16511e-20
-8.43279e-21
-6.74389e-21
-6.59544e-21
-4.23418e-21
-9.19314e-21
-1.34437e-20
-1.18941e-20
-1.09516e-20
-1.1686e-20
-1.02641e-20
-1.85836e-21
-2.13788e-21
-5.53381e-21
-4.80304e-21
-4.85075e-21
-7.70763e-21
-1.82031e-21
9.47156e-22
-3.75833e-21
-2.59633e-21
-2.79367e-21
-5.72111e-21
-2.80699e-21
-1.32843e-21
-1.21918e-20
-1.22021e-20
-1.29285e-20
-1.54138e-20
-1.50946e-20
-1.12832e-20
-1.31092e-20
-1.18194e-20
-1.43827e-20
-1.14081e-20
-1.26662e-20
-1.49735e-20
-1.18958e-20
-7.91013e-21
-8.30124e-21
-1.20609e-20
-1.07496e-20
-6.99307e-21
-6.92201e-21
-6.99761e-21
-7.00508e-21
-8.77829e-21
-1.25286e-20
-1.18552e-20
-9.1672e-21
-8.58047e-21
-5.36455e-21
-4.01101e-21
-3.13708e-21
-5.16591e-21
-5.15833e-21
-5.17589e-21
-1.16541e-21
1.2349e-22
-6.34689e-22
-3.02887e-21
-1.49144e-21
6.95253e-22
-6.08943e-21
-3.9122e-21
-1.42303e-20
-1.11255e-20
-1.11091e-20
-1.14009e-20
-1.49066e-20
-1.70184e-20
-1.36136e-20
-1.35471e-20
-1.37084e-20
-1.16154e-20
-6.96804e-21
-1.23502e-20
-6.94229e-21
-6.98602e-21
-9.69327e-21
-1.20216e-20
-1.31819e-20
-6.4735e-21
-7.94182e-21
-9.69157e-21
-5.58331e-21
-9.0163e-21
-1.08017e-20
-9.72833e-21
-1.0624e-20
-7.16564e-21
-6.29582e-21
-9.46897e-21
-3.21995e-21
-4.24027e-21
-5.46662e-21
-4.71307e-21
-2.85463e-21
-1.89728e-21
-6.90849e-24
-7.33105e-22
-2.40343e-21
-3.68732e-22
1.39692e-22
-1.29964e-21
-8.68699e-21
-1.11662e-20
-1.3343e-20
-1.09301e-20
-1.21577e-20
-1.43923e-20
-1.14568e-20
-1.24469e-20
-1.30308e-20
-1.33593e-20
-1.02816e-20
-6.76552e-21
-9.3103e-21
-8.55046e-21
-9.58844e-21
-9.45419e-21
-8.92972e-21
-6.52093e-21
-7.32846e-21
-8.80911e-21
-6.27912e-21
-9.38912e-21
-1.17447e-20
-1.21863e-20
-9.56005e-21
-6.97686e-21
-3.97527e-21
-5.1912e-21
-5.52934e-21
-2.79675e-21
-5.19874e-21
-4.49046e-21
-2.88932e-21
-3.44409e-21
-3.26004e-21
-7.52689e-22
7.33656e-22
3.53622e-22
6.78742e-22
-2.01228e-21
-7.28162e-21
-9.75801e-21
-1.21017e-20
-1.33974e-20
-9.83051e-21
-1.19108e-20
-1.25892e-20
-1.08845e-20
-9.06129e-21
-1.1844e-20
-1.04896e-20
-8.10416e-21
-1.05453e-20
-7.99577e-21
-9.24314e-21
-9.30833e-21
-7.76039e-21
-2.01139e-21
-3.87177e-21
-1.08611e-20
-5.48445e-21
-1.17533e-20
-1.26282e-20
-1.08295e-20
-8.25454e-21
-8.26192e-21
-6.25682e-21
-4.34349e-21
-4.82976e-21
-1.32378e-21
-5.19855e-21
-4.14789e-21
-5.2923e-21
-2.5126e-21
-1.61073e-21
-3.10539e-22
1.4877e-21
-1.4053e-21
-1.26108e-21
-1.74425e-21
-5.07064e-21
-9.36143e-21
-1.20774e-20
-8.40779e-21
-8.53847e-21
-1.20036e-20
-1.05737e-20
-1.1244e-20
-9.74359e-21
-1.10341e-20
-7.16509e-21
-1.01298e-20
-9.31681e-21
-9.68256e-21
-8.06049e-21
-4.80406e-21
-4.63597e-21
-5.14398e-21
-4.12158e-21
-1.05358e-20
-7.61995e-21
-9.92883e-21
-1.29827e-20
-1.34005e-20
-4.5661e-21
-5.17349e-21
-6.88447e-21
-6.93424e-21
-3.67582e-21
-2.74206e-21
-4.3601e-21
-4.57555e-21
-6.0978e-21
-2.26388e-21
-1.59609e-21
-1.57553e-21
2.17537e-21
2.01193e-21
-8.11282e-22
-2.29759e-21
-6.0703e-21
-7.50681e-21
-9.83162e-21
-8.26309e-21
-6.22875e-21
-1.4342e-20
-1.04802e-20
-9.06249e-21
-9.66075e-21
-8.78502e-21
-7.19968e-21
-1.00404e-20
-7.94373e-21
-8.31406e-21
-8.77643e-21
-9.04704e-21
-1.40581e-21
-1.74285e-21
-5.63829e-21
-6.29351e-21
-3.74894e-21
-8.46414e-21
-1.26561e-20
-1.14799e-20
-6.65202e-21
-5.23223e-21
-6.02263e-21
-4.6971e-21
-3.51406e-21
-5.15446e-21
-3.3536e-21
-4.0729e-21
-3.4371e-21
-1.15438e-21
-1.17535e-21
-2.14824e-21
-7.3101e-22
-4.1183e-22
8.64738e-23
8.57431e-23
-6.53245e-21
-4.974e-21
-6.55053e-21
-3.49705e-21
-4.79203e-21
-3.39843e-21
-9.53869e-21
-5.54872e-21
-6.78286e-21
-6.24161e-21
-2.92171e-21
-3.37196e-21
-6.38891e-21
-5.90981e-21
-2.8614e-21
-5.13677e-21
-1.40579e-21
6.20812e-22
-5.94157e-21
-1.58423e-21
-4.28872e-21
-1.03475e-20
-7.89245e-21
-5.15122e-21
-2.46736e-21
-3.68386e-21
-4.11114e-21
-3.59532e-21
-2.84773e-21
-9.73471e-22
-2.43196e-21
-1.83248e-21
-3.0774e-21
-1.74869e-21
8.60295e-22
-2.21867e-21
-1.03017e-21
-9.92206e-22
-2.59873e-21
2.37381e-22
-5.5174e-21
-1.00697e-20
-1.49763e-20
-1.11627e-20
-9.11613e-21
-1.14679e-20
-9.03494e-21
-5.74304e-21
-1.28544e-20
-1.13187e-20
-7.48555e-21
-1.14175e-20
-1.23871e-20
-7.48601e-21
-8.65704e-21
-1.04997e-20
-7.26892e-21
-1.4855e-21
-3.20577e-21
-6.4805e-21
-4.87635e-21
-6.38483e-21
-7.17869e-21
-6.84534e-21
-3.73237e-21
-3.10908e-21
-2.6954e-21
-4.82924e-21
-5.05783e-21
-3.36603e-21
-2.84679e-21
-1.48872e-21
-4.27318e-21
-5.7912e-21
-5.78544e-21
-2.76862e-21
-1.01114e-21
-2.35473e-21
-9.1243e-22
-9.40176e-22
-1.11631e-20
-1.46267e-20
-1.8919e-20
-1.46369e-20
-1.35833e-20
-1.72386e-20
-1.55239e-20
-1.14823e-20
-1.15216e-20
-1.77648e-20
-1.66272e-20
-1.46331e-20
-1.41952e-20
-1.15533e-20
-1.23627e-20
-1.08457e-20
-9.14616e-21
-7.42957e-21
-9.23147e-21
-7.06808e-21
-6.34992e-21
-8.96134e-21
-1.06479e-20
-1.23778e-20
-6.2819e-21
-6.12428e-21
-7.80551e-21
-7.2461e-21
-7.52866e-21
-4.60004e-21
-3.51898e-21
-2.32845e-21
-5.40987e-21
-7.99289e-21
-5.307e-21
-1.12087e-21
4.20096e-22
1.75758e-21
7.65861e-22
6.61665e-22
-1.26014e-20
-1.4987e-20
-1.44587e-20
-1.60191e-20
-1.6685e-20
-2.04809e-20
-1.69731e-20
-1.60639e-20
-1.59388e-20
-1.57509e-20
-1.47468e-20
-1.33225e-20
-1.29577e-20
-1.22129e-20
-1.20048e-20
-9.31229e-21
-1.05199e-20
-8.66839e-21
-8.39621e-21
-7.17202e-21
-7.99814e-21
-7.40771e-21
-8.6919e-21
-1.01773e-20
-9.60353e-21
-6.72484e-21
-8.33369e-21
-1.15836e-20
-4.28713e-21
-5.64334e-21
-7.88508e-21
-3.18103e-21
-3.28678e-21
-5.57682e-21
-3.08143e-21
-1.05674e-21
2.65177e-22
-3.81569e-23
9.27963e-22
1.05648e-21
-1.76547e-20
-1.72329e-20
-1.80323e-20
-1.74071e-20
-1.74649e-20
-1.899e-20
-1.87443e-20
-1.28739e-20
-1.59472e-20
-1.62951e-20
-1.61907e-20
-1.68254e-20
-1.1587e-20
-1.27644e-20
-1.37714e-20
-1.14525e-20
-1.02016e-20
-1.10319e-20
-1.12197e-20
-5.39756e-21
-8.91853e-21
-1.19386e-20
-1.12286e-20
-1.02635e-20
-7.91958e-21
-6.90514e-21
-7.5449e-21
-7.16785e-21
-5.77632e-21
-8.96987e-21
-5.83783e-21
-1.35204e-21
-5.8444e-21
-4.32979e-21
-3.19678e-21
-1.60742e-21
4.05344e-22
-5.5794e-22
-2.56492e-22
-1.26743e-22
-1.87248e-20
-1.85658e-20
-1.63693e-20
-1.86597e-20
-2.07453e-20
-2.01385e-20
-1.81231e-20
-1.43943e-20
-1.52732e-20
-1.75693e-20
-1.67188e-20
-1.21681e-20
-1.22568e-20
-1.47164e-20
-1.76961e-20
-1.32606e-20
-1.052e-20
-1.16544e-20
-9.45537e-21
-7.21798e-21
-1.08582e-20
-1.19398e-20
-1.24059e-20
-1.01583e-20
-7.87739e-21
-5.36146e-21
-7.34222e-21
-7.44998e-21
-6.99977e-21
-6.98562e-21
-5.80633e-21
-4.90897e-21
-2.20197e-21
-2.43047e-21
-3.68991e-21
-2.63061e-21
1.72657e-22
-4.71417e-22
1.77051e-22
-1.24267e-21
-1.71327e-20
-1.91621e-20
-1.79014e-20
-1.87076e-20
-2.1095e-20
-2.28119e-20
-1.76461e-20
-1.83943e-20
-1.79042e-20
-1.68748e-20
-1.70196e-20
-1.45243e-20
-1.47311e-20
-1.25938e-20
-1.46851e-20
-1.31298e-20
-1.28032e-20
-9.78213e-21
-9.1686e-21
-8.08636e-21
-1.10783e-20
-1.39204e-20
-1.14665e-20
-9.79795e-21
-6.53017e-21
-5.62715e-21
-6.95365e-21
-7.18123e-21
-8.38945e-21
-7.71587e-21
-6.22756e-21
-3.2396e-21
-2.45125e-21
-2.1052e-21
-4.69106e-21
-2.91142e-21
1.46771e-22
1.03371e-21
2.32513e-21
-1.99069e-21
-1.99314e-20
-2.26532e-20
-1.84624e-20
-1.94806e-20
-2.19399e-20
-2.06372e-20
-1.80503e-20
-1.80168e-20
-2.13498e-20
-2.01677e-20
-1.39798e-20
-1.50492e-20
-1.47601e-20
-1.67173e-20
-1.48338e-20
-1.37023e-20
-1.1075e-20
-9.70629e-21
-9.7141e-21
-1.00524e-20
-1.12605e-20
-1.31957e-20
-1.13923e-20
-1.09032e-20
-7.81671e-21
-6.92259e-21
-7.19085e-21
-6.89126e-21
-6.51807e-21
-6.6417e-21
-6.98171e-21
-4.19098e-21
-2.02089e-22
-5.99778e-22
-4.64106e-21
-4.66525e-21
-5.37247e-22
-1.17827e-21
-6.89665e-23
-2.23045e-21
-1.82978e-20
-2.03611e-20
-1.89096e-20
-1.95919e-20
-2.30511e-20
-2.33007e-20
-1.70996e-20
-2.02989e-20
-2.21605e-20
-1.78057e-20
-1.65347e-20
-1.66936e-20
-1.51694e-20
-1.441e-20
-1.49237e-20
-1.57282e-20
-1.38779e-20
-9.65336e-21
-5.21432e-21
-6.83321e-21
-1.07386e-20
-1.29646e-20
-1.21751e-20
-1.25044e-20
-1.03474e-20
-7.61149e-21
-6.71007e-21
-8.05661e-21
-4.59171e-21
-5.68417e-21
-7.50659e-21
-3.71731e-21
-3.64112e-21
-4.41754e-21
-2.91167e-21
-1.07367e-21
8.99551e-22
4.37886e-23
-2.34168e-21
-7.65898e-22
-2.01243e-20
-2.39462e-20
-2.24708e-20
-2.24649e-20
-2.14345e-20
-2.07215e-20
-1.96356e-20
-2.0329e-20
-2.04912e-20
-1.94447e-20
-1.59294e-20
-1.88417e-20
-1.49805e-20
-1.37408e-20
-1.45385e-20
-1.41536e-20
-1.42755e-20
-8.78856e-21
-9.50469e-21
-1.02894e-20
-9.21944e-21
-1.31267e-20
-1.31765e-20
-1.30979e-20
-8.64467e-21
-8.44178e-21
-7.04904e-21
-7.04706e-21
-2.69502e-21
-8.24536e-21
-6.8904e-21
-5.0345e-21
-3.14394e-21
-3.51576e-21
-2.97847e-21
-1.41331e-21
-4.59002e-22
-3.3889e-22
-2.43018e-21
-1.98879e-21
-1.81682e-20
-2.02565e-20
-2.02508e-20
-2.40234e-20
-2.43539e-20
-2.15648e-20
-2.46286e-20
-2.0712e-20
-1.76336e-20
-1.79983e-20
-1.77907e-20
-1.56869e-20
-1.57327e-20
-1.46682e-20
-1.61599e-20
-1.4271e-20
-1.23679e-20
-9.15376e-21
-8.85403e-21
-6.99813e-21
-1.12581e-20
-1.63678e-20
-1.60027e-20
-1.44228e-20
-9.31865e-21
-7.1564e-21
-4.32663e-21
-6.2568e-21
-6.6679e-21
-7.61684e-21
-3.66566e-21
-4.4957e-21
-5.77715e-21
-3.55553e-21
-2.93398e-21
-1.90593e-21
-4.34107e-22
3.88733e-22
-2.12749e-21
-1.08457e-21
-2.41405e-20
-2.51378e-20
-2.22861e-20
-2.2922e-20
-2.18432e-20
-2.26236e-20
-2.26449e-20
-2.3276e-20
-2.3113e-20
-1.86209e-20
-1.46529e-20
-1.24456e-20
-1.53737e-20
-1.27062e-20
-1.56193e-20
-1.57688e-20
-1.28103e-20
-9.78239e-21
-8.84814e-21
-1.02447e-20
-1.49224e-20
-1.49287e-20
-1.56134e-20
-1.54706e-20
-9.22157e-21
-4.85261e-21
-6.46138e-21
-1.04642e-20
-6.4189e-21
-5.86977e-21
-3.09105e-21
-4.49011e-21
-4.53755e-21
-3.56197e-21
-3.3677e-21
-1.62895e-21
-1.63928e-21
-2.23139e-21
-2.13928e-21
-2.7614e-21
-2.43724e-20
-2.56511e-20
-2.0787e-20
-2.14692e-20
-2.37249e-20
-2.38432e-20
-2.44179e-20
-2.26338e-20
-1.94131e-20
-2.1208e-20
-1.59059e-20
-1.22314e-20
-1.65029e-20
-1.34894e-20
-1.42832e-20
-1.69015e-20
-1.67305e-20
-8.13155e-21
-7.6855e-21
-8.63855e-21
-1.67958e-20
-1.66445e-20
-1.41139e-20
-1.35628e-20
-1.04416e-20
-9.23652e-21
-8.33577e-21
-7.94071e-21
-4.25956e-21
-6.15105e-21
-3.94501e-21
-4.49844e-21
-4.05913e-21
-3.8571e-21
-3.68827e-21
-2.93799e-21
6.24887e-22
-1.50001e-21
-2.52828e-21
6.18901e-22
-2.60191e-20
-2.4025e-20
-2.20364e-20
-2.42313e-20
-2.41437e-20
-2.57703e-20
-2.24509e-20
-2.18736e-20
-2.03273e-20
-1.9488e-20
-1.56977e-20
-1.57552e-20
-1.7906e-20
-1.52045e-20
-1.51846e-20
-1.51436e-20
-1.21424e-20
-8.18238e-21
-1.0934e-20
-1.34054e-20
-1.03021e-20
-1.50571e-20
-1.51044e-20
-1.50437e-20
-1.07141e-20
-8.1083e-21
-9.24742e-21
-6.84585e-21
-5.90344e-21
-4.02245e-21
-4.76128e-21
-5.4949e-21
-3.53536e-21
-3.91511e-21
-7.75783e-21
-1.8118e-21
2.74328e-22
-1.35957e-21
-3.10809e-21
-5.81858e-23
-2.54784e-20
-2.4871e-20
-2.33348e-20
-2.45214e-20
-2.39616e-20
-2.28045e-20
-2.34041e-20
-2.13522e-20
-2.01247e-20
-2.13152e-20
-1.75539e-20
-1.74482e-20
-1.88439e-20
-1.32911e-20
-1.49516e-20
-1.58683e-20
-1.76781e-20
-1.06675e-20
-7.38342e-21
-7.75877e-21
-1.37631e-20
-1.58455e-20
-1.39096e-20
-1.69811e-20
-1.00977e-20
-8.4368e-21
-6.75739e-21
-6.13724e-21
-7.08524e-21
-5.2955e-21
-6.11868e-21
-5.26749e-21
-2.98663e-21
-4.76598e-21
-6.12576e-21
-1.44351e-21
6.24593e-22
1.06486e-21
-1.89917e-21
-1.67814e-21
-2.89276e-20
-2.59636e-20
-2.30024e-20
-2.24925e-20
-2.50119e-20
-2.22047e-20
-2.32212e-20
-2.13063e-20
-2.161e-20
-1.86997e-20
-1.74327e-20
-1.91096e-20
-2.02038e-20
-1.61332e-20
-1.50315e-20
-1.47842e-20
-1.34877e-20
-1.10284e-20
-1.00667e-20
-1.1519e-20
-1.2904e-20
-1.48745e-20
-1.54519e-20
-1.33956e-20
-9.91457e-21
-9.24744e-21
-8.04812e-21
-6.29119e-21
-6.3592e-21
-4.43639e-21
-6.20764e-21
-5.3276e-21
-4.11252e-21
-3.26806e-21
-6.03838e-21
-2.40998e-21
2.97229e-21
-1.65207e-21
-8.92507e-22
-2.19403e-22
-2.56441e-20
-2.64859e-20
-2.48618e-20
-2.346e-20
-2.37012e-20
-2.34967e-20
-2.28848e-20
-2.20399e-20
-2.09908e-20
-1.78171e-20
-1.92948e-20
-2.02445e-20
-2.05921e-20
-1.65581e-20
-1.45095e-20
-1.45167e-20
-1.45464e-20
-1.19037e-20
-8.98253e-21
-9.37648e-21
-1.45943e-20
-1.50599e-20
-1.53093e-20
-1.12516e-20
-1.0142e-20
-9.69241e-21
-8.18931e-21
-6.64418e-21
-6.49209e-21
-5.329e-21
-5.09693e-21
-4.61791e-21
-3.7271e-21
-4.1647e-21
-5.1756e-21
-1.81217e-21
1.02669e-21
-1.62401e-21
-1.61066e-21
-1.37953e-21
-2.23169e-20
-2.34374e-20
-2.4198e-20
-2.13508e-20
-2.64423e-20
-2.39711e-20
-2.38202e-20
-2.42975e-20
-2.35188e-20
-1.77262e-20
-1.75524e-20
-1.95587e-20
-1.87807e-20
-1.84802e-20
-1.59979e-20
-1.38935e-20
-1.43543e-20
-1.1591e-20
-1.31583e-20
-1.1951e-20
-1.53307e-20
-1.16716e-20
-1.12717e-20
-9.73705e-21
-9.93691e-21
-8.75282e-21
-8.49237e-21