/*--------------------------------*- C++ -*----------------------------------*\
| =========                 |                                                 |
| \\      /  F ield         | OpenFOAM: The Open Source CFD Toolbox           |
|  \\    /   O peration     | Version:  v2012                                 |
|   \\  /    A nd           | Website:  www.openfoam.com                      |
|    \\/     M anipulation  |                                                 |
\*---------------------------------------------------------------------------*/
FoamFile
{
    version     2.0;
    format      ascii;
    class       surfaceScalarField;
    location    "49";
    object      phi;
}
// * * * * * * * * * * * * * * * * * * * * * * * * * * * * * * * * * * * * * //

dimensions      [0 3 -1 0 0 0 0];
oriented        oriented;


internalField   nonuniform List<scalar> 
187200
(
1.875e-06
2.71518e-22
1.72251e-22
1.875e-06
3.32497e-22
3.56736e-22
1.875e-06
3.98675e-22
5.41572e-22
1.875e-06
3.24708e-22
4.37345e-22
1.875e-06
3.51204e-22
2.86551e-22
1.875e-06
4.81387e-22
4.24872e-22
1.875e-06
4.27209e-22
3.74093e-22
1.875e-06
3.51766e-22
3.07729e-22
1.875e-06
2.75811e-22
4.26375e-22
1.875e-06
4.59535e-22
3.82825e-22
1.875e-06
4.78306e-22
3.38653e-22
1.875e-06
3.69357e-22
3.39224e-22
1.875e-06
2.8468e-22
4.2059e-22
1.875e-06
2.36289e-22
2.26134e-22
1.875e-06
2.37823e-22
2.8616e-22
1.875e-06
2.2659e-22
3.66095e-22
1.875e-06
2.95544e-22
3.05049e-22
1.875e-06
1.75003e-22
1.593e-22
1.875e-06
1.78591e-22
1.40901e-22
1.875e-06
1.25187e-22
2.3132e-22
1.875e-06
8.24467e-23
2.23038e-22
1.875e-06
1.93244e-22
2.57611e-22
1.875e-06
3.24806e-22
2.4104e-22
1.875e-06
3.81384e-22
2.36755e-22
1.875e-06
2.87547e-22
1.86383e-22
1.875e-06
2.08657e-22
1.93647e-22
1.875e-06
2.39032e-22
2.01963e-22
1.875e-06
1.54221e-22
9.39136e-23
1.875e-06
1.5669e-22
1.6432e-22
1.875e-06
1.28784e-22
1.34662e-22
1.875e-06
4.29443e-23
1.4938e-22
1.875e-06
9.7623e-23
8.38094e-23
1.875e-06
1.76384e-22
1.22492e-22
1.875e-06
1.42638e-22
1.71903e-22
1.875e-06
-5.48258e-23
1.60669e-22
1.875e-06
-1.0302e-22
-1.9933e-23
1.875e-06
-4.39228e-23
5.17572e-23
1.875e-06
-9.11249e-24
1.39748e-22
1.875e-06
-2.20899e-23
1.1643e-22
-1.31458e-23
1.31465e-22
1.875e-06
-2.83717e-24
2.28286e-22
1.875e-06
9.6019e-23
5.95573e-22
1.875e-06
3.26028e-22
8.26885e-22
1.875e-06
3.38639e-22
7.506e-22
1.875e-06
2.27966e-22
6.72717e-22
1.875e-06
4.4878e-22
7.91442e-22
1.875e-06
5.04632e-22
8.4279e-22
1.875e-06
4.14498e-22
7.7934e-22
1.875e-06
4.12865e-22
8.10859e-22
1.875e-06
2.7276e-22
7.53321e-22
1.875e-06
2.79458e-22
7.64743e-22
1.875e-06
2.89171e-22
6.89313e-22
1.875e-06
2.6785e-22
7.60817e-22
1.875e-06
2.01943e-22
6.45234e-22
1.875e-06
1.39407e-22
6.48247e-22
1.875e-06
1.22467e-22
6.45656e-22
1.875e-06
3.18923e-22
5.36942e-22
1.875e-06
3.81579e-22
6.07795e-22
1.875e-06
2.0363e-22
5.55329e-22
1.875e-06
1.12454e-22
4.76137e-22
1.875e-06
2.33571e-22
5.24232e-22
1.875e-06
3.48449e-22
5.44869e-22
1.875e-06
2.67664e-22
4.56014e-22
1.875e-06
1.39434e-22
3.80796e-22
1.875e-06
1.65244e-22
3.48364e-22
1.875e-06
2.07334e-22
3.98175e-22
1.875e-06
1.69522e-22
4.56266e-22
1.875e-06
1.46912e-22
3.75737e-22
1.875e-06
1.09009e-22
3.91593e-22
1.875e-06
1.06838e-22
3.07703e-22
1.875e-06
1.22419e-22
3.20894e-22
1.875e-06
5.20757e-23
1.73655e-22
1.875e-06
1.87788e-24
1.24228e-22
1.875e-06
-3.99518e-23
2.28916e-22
1.875e-06
8.08443e-23
2.92144e-22
1.875e-06
-1.05883e-23
9.18317e-23
1.875e-06
-7.03265e-24
4.66017e-23
1.875e-06
-2.69544e-23
3.02285e-23
1.875e-06
-7.9037e-23
2.85508e-23
-1.09782e-22
6.47304e-24
1.875e-06
1.97545e-22
4.2481e-22
1.875e-06
2.34212e-22
7.72058e-22
1.875e-06
1.04315e-22
7.22228e-22
1.875e-06
3.08597e-22
8.50423e-22
1.875e-06
3.86396e-22
9.60923e-22
1.875e-06
3.63928e-22
9.21694e-22
1.875e-06
3.65633e-22
9.36585e-22
1.875e-06
2.55114e-22
1.05704e-21
1.875e-06
3.02028e-22
1.04438e-21
1.875e-06
2.82097e-22
9.23525e-22
1.875e-06
2.34611e-22
8.63192e-22
1.875e-06
2.35328e-22
7.47085e-22
1.875e-06
2.39795e-22
7.77537e-22
1.875e-06
2.47429e-22
7.96102e-22
1.875e-06
2.59933e-22
8.09485e-22
1.875e-06
3.28048e-22
7.79411e-22
1.875e-06
1.32432e-22
6.10713e-22
1.875e-06
2.80023e-22
6.24587e-22
1.875e-06
2.01316e-22
6.57458e-22
1.875e-06
1.85795e-22
6.30663e-22
1.875e-06
2.23914e-22
6.40003e-22
1.875e-06
1.64006e-22
4.51215e-22
1.875e-06
2.42966e-22
3.60364e-22
1.875e-06
2.21218e-22
4.53525e-22
1.875e-06
2.6413e-22
5.30844e-22
1.875e-06
6.37026e-23
4.77089e-22
1.875e-06
8.57116e-23
5.23197e-22
1.875e-06
5.5926e-23
5.40139e-22
1.875e-06
1.40476e-22
4.04257e-22
1.875e-06
1.62263e-22
4.25604e-22
1.875e-06
1.05042e-22
5.00564e-22
1.875e-06
7.55815e-23
3.01185e-22
1.875e-06
-3.43501e-23
1.90517e-22
1.875e-06
-2.75091e-23
2.38074e-22
1.875e-06
3.82368e-23
1.66545e-22
1.875e-06
4.06065e-23
7.47143e-23
1.875e-06
5.02615e-23
2.85194e-23
1.875e-06
4.81997e-24
1.05559e-22
1.875e-06
8.23172e-24
4.02576e-23
-1.35427e-23
-2.83324e-23
1.875e-06
2.46922e-22
4.85171e-22
1.875e-06
2.16258e-22
8.42231e-22
1.875e-06
1.11548e-22
9.25872e-22
1.875e-06
1.52163e-22
9.03547e-22
1.875e-06
2.35433e-22
9.67803e-22
1.875e-06
2.1356e-22
9.28801e-22
1.875e-06
1.8054e-22
9.86529e-22
1.875e-06
3.24865e-22
1.07584e-21
1.875e-06
2.68188e-22
1.12111e-21
1.875e-06
3.34046e-22
1.02212e-21
1.875e-06
3.27314e-22
9.62364e-22
1.875e-06
1.07255e-22
9.03187e-22
1.875e-06
1.67946e-22
7.86468e-22
1.875e-06
1.87855e-22
8.28352e-22
1.875e-06
2.97238e-22
8.67143e-22
1.875e-06
4.17799e-22
7.98244e-22
1.875e-06
2.34292e-22
7.11875e-22
1.875e-06
9.60589e-23
7.0883e-22
1.875e-06
2.0461e-22
8.29942e-22
1.875e-06
2.09748e-22
7.17215e-22
1.875e-06
1.97284e-22
6.81042e-22
1.875e-06
2.17952e-22
6.32107e-22
1.875e-06
1.46189e-22
4.25091e-22
1.875e-06
1.4495e-22
4.7311e-22
1.875e-06
6.23595e-23
4.19334e-22
1.875e-06
1.42215e-22
5.5395e-22
1.875e-06
9.97495e-23
5.09086e-22
1.875e-06
1.42379e-22
4.5358e-22
1.875e-06
1.30116e-22
3.83677e-22
1.875e-06
6e-23
4.75941e-22
1.875e-06
1.06069e-22
4.4314e-22
1.875e-06
1.57135e-23
2.89776e-22
1.875e-06
-6.7082e-23
3.25115e-22
1.875e-06
-3.29736e-23
2.66841e-22
1.875e-06
5.82665e-23
1.60295e-22
1.875e-06
7.93663e-23
7.36788e-23
1.875e-06
8.55068e-24
-5.74143e-24
1.875e-06
3.91857e-23
8.41742e-23
1.875e-06
-7.59356e-23
1.24633e-23
3.38761e-23
1.19277e-23
1.875e-06
-1.74169e-23
3.57762e-22
1.875e-06
1.13079e-22
8.77877e-22
1.875e-06
1.21319e-22
9.27699e-22
1.875e-06
1.35375e-22
1.00742e-21
1.875e-06
1.42208e-22
1.10159e-21
1.875e-06
9.13873e-23
1.02908e-21
1.875e-06
8.3155e-23
1.07495e-21
1.875e-06
3.24308e-22
1.09327e-21
1.875e-06
4.21213e-22
1.14765e-21
1.875e-06
2.66283e-22
1.05105e-21
1.875e-06
1.94277e-22
9.55886e-22
1.875e-06
2.41296e-22
9.15656e-22
1.875e-06
2.57713e-22
8.77279e-22
1.875e-06
2.12941e-22
9.47093e-22
1.875e-06
1.71332e-22
9.48375e-22
1.875e-06
1.52626e-22
7.28109e-22
1.875e-06
1.14402e-22
7.36709e-22
1.875e-06
5.33338e-23
7.86334e-22
1.875e-06
8.57284e-23
7.8494e-22
1.875e-06
2.37553e-22
7.6921e-22
1.875e-06
1.82644e-22
7.80808e-22
1.875e-06
2.22497e-22
6.55018e-22
1.875e-06
1.37123e-22
5.44752e-22
1.875e-06
1.36641e-22
5.54627e-22
1.875e-06
1.90134e-22
4.83964e-22
1.875e-06
7.95732e-23
5.00263e-22
1.875e-06
9.53176e-23
4.77974e-22
1.875e-06
1.64869e-23
3.85321e-22
1.875e-06
3.33422e-23
3.67391e-22
1.875e-06
6.20195e-23
4.42043e-22
1.875e-06
1.34108e-22
4.14604e-22
1.875e-06
1.58077e-22
3.893e-22
1.875e-06
3.15929e-23
2.90494e-22
1.875e-06
-5.4183e-23
2.50731e-22
1.875e-06
-1.07102e-23
1.36031e-22
1.875e-06
-7.99486e-23
4.01958e-23
1.875e-06
2.69821e-23
2.11708e-23
1.875e-06
3.87878e-23
4.08679e-23
1.875e-06
8.53327e-23
5.4806e-23
-3.72059e-23
1.06758e-23
1.875e-06
3.59278e-23
4.16259e-22
1.875e-06
1.62054e-22
8.42596e-22
1.875e-06
8.64054e-23
9.94322e-22
1.875e-06
2.76151e-23
1.05001e-21
1.875e-06
1.16362e-22
1.221e-21
1.875e-06
1.4842e-22
1.25921e-21
1.875e-06
1.54797e-22
1.20255e-21
1.875e-06
2.18064e-22
1.12375e-21
1.875e-06
3.14965e-22
1.12248e-21
1.875e-06
2.28023e-22
1.03509e-21
1.875e-06
2.099e-22
1.03621e-21
1.875e-06
2.63259e-22
9.90029e-22
1.875e-06
2.22586e-22
9.3077e-22
1.875e-06
2.40699e-22
9.08402e-22
1.875e-06
1.26489e-22
8.9468e-22
1.875e-06
9.7308e-23
7.82214e-22
1.875e-06
1.2859e-22
8.73762e-22
1.875e-06
3.09182e-23
8.19343e-22
1.875e-06
9.90573e-23
7.97095e-22
1.875e-06
1.37576e-22
7.39253e-22
1.875e-06
1.92891e-22
8.17957e-22
1.875e-06
1.6335e-22
6.90624e-22
1.875e-06
1.74542e-22
5.95619e-22
1.875e-06
1.16214e-22
5.14692e-22
1.875e-06
4.91232e-23
4.00199e-22
1.875e-06
2.51311e-22
5.30744e-22
1.875e-06
1.35949e-22
5.08947e-22
1.875e-06
4.63811e-23
4.50058e-22
1.875e-06
-1.86274e-23
3.82909e-22
1.875e-06
-1.75299e-24
4.35471e-22
1.875e-06
1.16196e-22
3.62771e-22
1.875e-06
1.15654e-22
2.56771e-22
1.875e-06
-6.30793e-23
2.71629e-22
1.875e-06
3.95776e-23
2.6557e-22
1.875e-06
-1.99072e-24
2.03137e-22
1.875e-06
3.72674e-23
9.3452e-23
1.875e-06
-2.30719e-23
-5.45374e-24
1.875e-06
4.72435e-23
-1.21703e-23
1.875e-06
1.19438e-22
-4.96784e-23
8.82765e-23
7.27185e-23
1.875e-06
6.55512e-23
4.63143e-22
1.875e-06
8.12178e-23
8.56949e-22
1.875e-06
1.52272e-22
1.04972e-21
1.875e-06
7.76279e-23
1.15544e-21
1.875e-06
1.18635e-22
1.29733e-21
1.875e-06
8.20074e-23
1.2753e-21
1.875e-06
2.29504e-22
1.26124e-21
1.875e-06
3.58499e-22
1.18677e-21
1.875e-06
2.77695e-22
1.23117e-21
1.875e-06
2.20464e-22
1.21574e-21
1.875e-06
1.25572e-22
9.88743e-22
1.875e-06
1.08439e-22
9.55853e-22
1.875e-06
1.39911e-22
9.31943e-22
1.875e-06
1.90089e-22
9.99997e-22
1.875e-06
1.46479e-22
9.71438e-22
1.875e-06
1.30891e-22
8.54791e-22
1.875e-06
1.26788e-22
8.68882e-22
1.875e-06
1.52258e-22
8.77614e-22
1.875e-06
1.74472e-22
8.1643e-22
1.875e-06
6.05571e-23
7.66922e-22
1.875e-06
4.89307e-23
7.71251e-22
1.875e-06
1.01501e-22
6.4889e-22
1.875e-06
7.75563e-23
5.71534e-22
1.875e-06
5.32195e-23
6.0091e-22
1.875e-06
9.85253e-23
5.51002e-22
1.875e-06
1.45827e-22
4.472e-22
1.875e-06
1.54005e-22
4.88792e-22
1.875e-06
1.61096e-22
4.90895e-22
1.875e-06
5.21882e-23
3.81316e-22
1.875e-06
8.38458e-23
4.04818e-22
1.875e-06
6.84117e-24
3.32419e-22
1.875e-06
-1.32582e-23
1.77523e-22
1.875e-06
9.93621e-23
2.18271e-22
1.875e-06
6.92307e-23
2.10201e-22
1.875e-06
8.12311e-23
2.05438e-22
1.875e-06
4.14905e-23
1.34495e-22
1.875e-06
2.57638e-23
8.04841e-24
1.875e-06
7.04571e-23
-2.0948e-23
1.875e-06
1.41779e-23
-5.22821e-23
4.49741e-23
4.9028e-23
1.875e-06
1.37922e-22
3.6162e-22
1.875e-06
1.09672e-22
7.51741e-22
1.875e-06
4.37335e-23
1.01752e-21
1.875e-06
1.46403e-22
1.24625e-21
1.875e-06
1.53555e-22
1.40199e-21
1.875e-06
2.6675e-22
1.43723e-21
1.875e-06
2.14629e-22
1.23082e-21
1.875e-06
4.85749e-23
1.17272e-21
1.875e-06
9.07828e-23
1.22891e-21
1.875e-06
2.38862e-22
1.15499e-21
1.875e-06
8.88221e-23
1.11331e-21
1.875e-06
9.21105e-23
1.06105e-21
1.875e-06
2.02834e-22
9.55931e-22
1.875e-06
1.17461e-22
9.26727e-22
1.875e-06
1.75051e-22
9.68146e-22
1.875e-06
1.35146e-22
8.91862e-22
1.875e-06
8.05124e-23
9.97808e-22
1.875e-06
5.96985e-23
8.76045e-22
1.875e-06
1.3242e-22
6.6974e-22
1.875e-06
2.36145e-22
7.58246e-22
1.875e-06
1.37114e-22
8.32483e-22
1.875e-06
1.44119e-23
5.90768e-22
1.875e-06
1.7967e-22
6.39809e-22
1.875e-06
1.47837e-22
7.98415e-22
1.875e-06
6.58508e-23
6.87241e-22
1.875e-06
6.89028e-23
4.96827e-22
1.875e-06
1.52207e-22
4.71076e-22
1.875e-06
9.70036e-23
4.3045e-22
1.875e-06
9.12687e-23
3.58126e-22
1.875e-06
1.2015e-22
3.35391e-22
1.875e-06
-2.09968e-24
3.68502e-22
1.875e-06
-2.89235e-23
2.0147e-22
1.875e-06
4.93005e-23
2.42569e-22
1.875e-06
5.90431e-23
2.30676e-22
1.875e-06
6.25309e-23
1.21866e-22
1.875e-06
7.85481e-23
2.21074e-23
1.875e-06
7.11926e-23
-9.51947e-23
1.875e-06
-5.82281e-23
-1.28631e-22
1.875e-06
-5.01827e-23
-7.24027e-24
-4.25922e-23
-5.28315e-23
1.875e-06
-2.03943e-22
2.73332e-22
1.875e-06
-1.15405e-22
8.21749e-22
1.875e-06
9.4446e-23
1.14497e-21
1.875e-06
1.30502e-22
1.28211e-21
1.875e-06
1.93507e-22
1.31746e-21
1.875e-06
2.10177e-22
1.31498e-21
1.875e-06
1.59778e-22
1.34237e-21
1.875e-06
1.49958e-22
1.3492e-21
1.875e-06
5.40172e-23
1.29631e-21
1.875e-06
9.36053e-23
1.14095e-21
1.875e-06
2.20665e-22
1.16234e-21
1.875e-06
9.1537e-23
1.16499e-21
1.875e-06
3.39251e-23
9.24154e-22
1.875e-06
1.04189e-22
9.2565e-22
1.875e-06
1.74463e-22
9.55999e-22
1.875e-06
1.15008e-22
9.2775e-22
1.875e-06
1.5893e-22
1.01631e-21
1.875e-06
1.89448e-22
9.27038e-22
1.875e-06
7.09972e-24
7.5073e-22
1.875e-06
1.58171e-23
7.15053e-22
1.875e-06
2.22305e-22
8.5191e-22
1.875e-06
2.49317e-22
7.32322e-22
1.875e-06
1.75539e-22
6.28483e-22
1.875e-06
2.09065e-22
7.267e-22
1.875e-06
2.56323e-22
7.1639e-22
1.875e-06
1.11499e-22
6.01883e-22
1.875e-06
1.08675e-23
4.17691e-22
1.875e-06
4.92841e-23
3.67463e-22
1.875e-06
1.36734e-22
3.08619e-22
1.875e-06
5.10263e-23
3.62219e-22
1.875e-06
-2.1895e-23
3.46333e-22
1.875e-06
-7.20707e-25
2.80614e-22
1.875e-06
7.88658e-23
2.41252e-22
1.875e-06
4.31256e-23
2.09389e-22
1.875e-06
2.47218e-23
2.12676e-23
1.875e-06
1.53828e-22
-8.88725e-23
1.875e-06
8.51303e-23
-1.38411e-22
1.875e-06
-2.4353e-23
-1.37762e-22
1.875e-06
-6.00998e-23
-1.04822e-22
-5.35516e-23
-7.37472e-23
1.875e-06
6.26808e-24
5.1513e-22
1.875e-06
8.0759e-23
8.45416e-22
1.875e-06
1.69734e-22
1.09305e-21
1.875e-06
2.35254e-22
1.34933e-21
1.875e-06
8.74071e-23
1.39768e-21
1.875e-06
8.0233e-23
1.33412e-21
1.875e-06
2.56738e-22
1.51131e-21
1.875e-06
1.15046e-22
1.42662e-21
1.875e-06
1.43753e-22
1.29991e-21
1.875e-06
1.04694e-22
1.0936e-21
1.875e-06
9.63719e-23
1.08894e-21
1.875e-06
8.16778e-23
1.10894e-21
1.875e-06
5.60404e-23
1.02685e-21
1.875e-06
7.78672e-23
9.67617e-22
1.875e-06
1.33561e-22
9.68866e-22
1.875e-06
2.09191e-22
9.48055e-22
1.875e-06
8.52771e-23
9.46068e-22
1.875e-06
7.69147e-23
8.50164e-22
1.875e-06
8.36501e-24
8.23709e-22
1.875e-06
1.47024e-22
7.46851e-22
1.875e-06
2.27178e-22
7.88008e-22
1.875e-06
2.97697e-22
8.18757e-22
1.875e-06
1.32184e-22
7.15016e-22
1.875e-06
1.19388e-22
7.44817e-22
1.875e-06
1.67159e-22
6.19833e-22
1.875e-06
1.4669e-22
5.4794e-22
1.875e-06
-1.84017e-23
4.1422e-22
1.875e-06
4.00863e-24
3.7151e-22
1.875e-06
1.72931e-23
3.34296e-22
1.875e-06
1.05261e-22
3.69315e-22
1.875e-06
5.2882e-23
2.88759e-22
1.875e-06
5.86355e-23
2.68093e-22
1.875e-06
2.6199e-23
2.93338e-22
1.875e-06
1.29123e-23
1.67226e-22
1.875e-06
-2.83884e-23
-2.5225e-23
1.875e-06
-1.5836e-23
-2.30306e-22
1.875e-06
1.4628e-23
-2.67657e-22
1.875e-06
4.531e-23
-2.1644e-22
1.875e-06
1.71306e-23
-1.53025e-22
2.57905e-23
-1.29086e-22
1.875e-06
1.01513e-22
6.88255e-22
1.875e-06
1.51792e-22
1.02452e-21
1.875e-06
1.10599e-22
1.1088e-21
1.875e-06
8.10224e-23
1.25951e-21
1.875e-06
1.63601e-22
1.41114e-21
1.875e-06
1.61287e-22
1.39622e-21
1.875e-06
1.00099e-23
1.35717e-21
1.875e-06
2.25328e-22
1.49138e-21
1.875e-06
3.33708e-23
1.41802e-21
1.875e-06
3.70182e-23
1.14506e-21
1.875e-06
1.96631e-22
1.02087e-21
1.875e-06
1.23616e-22
1.02114e-21
1.875e-06
3.22065e-23
1.02219e-21
1.875e-06
1.24691e-22
9.05564e-22
1.875e-06
5.17102e-23
9.58668e-22
1.875e-06
1.17067e-22
9.46844e-22
1.875e-06
1.95579e-22
9.78999e-22
1.875e-06
1.11595e-22
9.39579e-22
1.875e-06
1.75683e-22
9.22782e-22
1.875e-06
1.19237e-23
8.02282e-22
1.875e-06
9.05175e-23
8.27554e-22
1.875e-06
1.43521e-22
7.08017e-22
1.875e-06
1.14385e-22
7.28559e-22
1.875e-06
1.59374e-22
7.59763e-22
1.875e-06
1.60715e-22
5.71163e-22
1.875e-06
2.63991e-23
4.09406e-22
1.875e-06
1.08698e-22
5.1917e-22
1.875e-06
5.98684e-23
5.3392e-22
1.875e-06
-3.45083e-24
3.61365e-22
1.875e-06
-1.08194e-22
2.61077e-22
1.875e-06
6.18627e-24
2.51186e-22
1.875e-06
6.0508e-23
2.43632e-22
1.875e-06
6.54008e-23
2.79089e-22
1.875e-06
2.39332e-23
1.5989e-22
1.875e-06
4.70515e-23
5.25297e-23
1.875e-06
-5.56425e-23
-2.38461e-22
1.875e-06
-1.33185e-22
-2.97896e-22
1.875e-06
-5.057e-23
-1.44662e-22
1.875e-06
5.99703e-23
-2.04743e-22
9.64726e-23
-1.95975e-22
1.875e-06
2.45762e-22
6.74491e-22
1.875e-06
1.29095e-22
9.84534e-22
1.875e-06
9.08219e-23
1.10663e-21
1.875e-06
1.21091e-22
1.29e-21
1.875e-06
1.24416e-22
1.44629e-21
1.875e-06
7.69447e-23
1.41143e-21
1.875e-06
2.04629e-22
1.4869e-21
1.875e-06
1.4575e-22
1.35606e-21
1.875e-06
1.10603e-22
1.36545e-21
1.875e-06
6.75863e-23
1.25772e-21
1.875e-06
7.37147e-23
9.89571e-22
1.875e-06
1.93693e-22
1.02061e-21
1.875e-06
1.96587e-22
1.17577e-21
1.875e-06
1.70201e-22
9.13177e-22
1.875e-06
1.14508e-22
9.939e-22
1.875e-06
1.11319e-22
1.0099e-21
1.875e-06
1.00262e-22
1.03288e-21
1.875e-06
1.04413e-22
9.02915e-22
1.875e-06
1.07169e-22
8.39573e-22
1.875e-06
1.16959e-22
8.33574e-22
1.875e-06
4.20922e-23
9.26965e-22
1.875e-06
9.14534e-23
7.27646e-22
1.875e-06
9.55202e-23
6.92723e-22
1.875e-06
1.36172e-22
6.78478e-22
1.875e-06
-7.83439e-23
5.0831e-22
1.875e-06
1.55187e-23
5.62529e-22
1.875e-06
4.31511e-23
4.99725e-22
1.875e-06
1.0619e-23
4.8818e-22
1.875e-06
3.99661e-23
3.33835e-22
1.875e-06
-5.26582e-23
3.50851e-22
1.875e-06
4.60931e-23
3.03159e-22
1.875e-06
1.55117e-23
2.54974e-22
1.875e-06
-4.13508e-23
2.40481e-22
1.875e-06
9.29929e-23
1.02299e-22
1.875e-06
1.44086e-22
-3.28931e-23
1.875e-06
-1.80635e-23
-2.04142e-22
1.875e-06
-7.07852e-23
-2.81464e-22
1.875e-06
-5.93642e-23
-2.05566e-22
1.875e-06
-5.02126e-23
-2.50102e-22
-1.14503e-22
-4.2701e-22
1.875e-06
1.72357e-23
4.69004e-22
1.875e-06
1.78642e-22
9.61325e-22
1.875e-06
1.54939e-22
1.17132e-21
1.875e-06
1.52297e-22
1.37727e-21
1.875e-06
2.27064e-23
1.45109e-21
1.875e-06
-4.67593e-23
1.46388e-21
1.875e-06
4.62344e-23
1.34453e-21
1.875e-06
1.46242e-22
1.27269e-21
1.875e-06
1.51003e-22
1.3452e-21
1.875e-06
1.53383e-22
1.19006e-21
1.875e-06
6.10119e-23
9.73496e-22
1.875e-06
1.68012e-22
1.08262e-21
1.875e-06
1.99546e-22
1.20308e-21
1.875e-06
1.3759e-22
1.03164e-21
1.875e-06
9.90165e-23
1.04164e-21
1.875e-06
6.60563e-23
9.0691e-22
1.875e-06
1.22576e-22
8.99105e-22
1.875e-06
7.29877e-23
8.93851e-22
1.875e-06
5.41098e-23
9.57241e-22
1.875e-06
2.03718e-22
9.66573e-22
1.875e-06
1.44462e-22
7.92742e-22
1.875e-06
-1.68683e-23
6.85739e-22
1.875e-06
6.16957e-23
7.33064e-22
1.875e-06
8.73138e-25
6.88615e-22
1.875e-06
6.37757e-23
5.87669e-22
1.875e-06
6.76019e-25
5.1516e-22
1.875e-06
-1.15505e-22
5.30681e-22
1.875e-06
-2.34186e-23
4.50538e-22
1.875e-06
-1.51072e-23
3.58671e-22
1.875e-06
-4.58325e-23
3.11826e-22
1.875e-06
-9.40584e-23
2.54927e-22
1.875e-06
6.26911e-23
2.76644e-22
1.875e-06
5.90186e-23
2.71519e-22
1.875e-06
-2.2753e-23
3.5515e-23
1.875e-06
1.23399e-23
-8.89301e-23
1.875e-06
6.18783e-23
-2.44782e-22
1.875e-06
-4.53192e-23
-2.50993e-22
1.875e-06
-1.38173e-22
-2.6813e-22
1.875e-06
-2.25596e-22
-2.27246e-22
-7.59561e-23
-3.14093e-22
1.875e-06
-1.75435e-22
4.64096e-22
1.875e-06
-7.55394e-24
8.66199e-22
1.875e-06
1.50217e-22
1.17779e-21
1.875e-06
2.99462e-23
1.32464e-21
1.875e-06
2.88138e-23
1.47948e-21
1.875e-06
8.04438e-23
1.49185e-21
1.875e-06
6.33752e-23
1.37308e-21
1.875e-06
5.79567e-23
1.21642e-21
1.875e-06
1.32966e-22
1.26159e-21
1.875e-06
-1.83666e-23
1.11288e-21
1.875e-06
8.98031e-24
1.08144e-21
1.875e-06
2.05536e-22
1.10176e-21
1.875e-06
1.84456e-22
1.16959e-21
1.875e-06
8.70688e-23
9.93053e-22
1.875e-06
9.59709e-23
1.04242e-21
1.875e-06
7.85311e-23
9.77933e-22
1.875e-06
1.10565e-22
1.04561e-21
1.875e-06
2.49405e-22
1.02811e-21
1.875e-06
2.2163e-22
9.31621e-22
1.875e-06
6.8102e-23
6.82585e-22
1.875e-06
1.35573e-22
7.76298e-22
1.875e-06
3.44141e-23
8.14048e-22
1.875e-06
-1.16991e-23
7.0655e-22
1.875e-06
-2.35019e-23
7.12595e-22
1.875e-06
-7.1896e-23
5.51431e-22
1.875e-06
1.98435e-23
5.82299e-22
1.875e-06
1.2973e-22
6.00127e-22
1.875e-06
1.83398e-23
4.51123e-22
1.875e-06
-6.33099e-23
3.56161e-22
1.875e-06
-5.31419e-23
3.55079e-22
1.875e-06
-1.0334e-22
3.61831e-22
1.875e-06
-1.22435e-22
2.20928e-22
1.875e-06
-2.66343e-23
2.04304e-22
1.875e-06
-1.99694e-23
1.1578e-22
1.875e-06
-5.10451e-23
-1.50695e-22
1.875e-06
-1.2393e-22
-4.17566e-22
1.875e-06
-5.59737e-23
-3.16431e-22
1.875e-06
8.2611e-23
-2.94794e-22
1.875e-06
2.01429e-24
-1.70816e-22
-1.76419e-22
-2.77792e-22
1.875e-06
-4.17987e-23
7.30999e-22
1.875e-06
-1.2783e-22
9.31889e-22
1.875e-06
-1.07917e-22
1.14623e-21
1.875e-06
-3.61019e-23
1.31966e-21
1.875e-06
5.42544e-23
1.47548e-21
1.875e-06
7.15757e-23
1.4161e-21
1.875e-06
-4.53441e-23
1.31738e-21
1.875e-06
-4.7491e-23
1.218e-21
1.875e-06
5.05537e-23
1.23605e-21
1.875e-06
3.50395e-23
1.13556e-21
1.875e-06
1.49456e-22
1.17746e-21
1.875e-06
7.48806e-23
1.14493e-21
1.875e-06
9.01525e-23
1.15019e-21
1.875e-06
6.53426e-23
1.09572e-21
1.875e-06
1.70579e-22
1.02131e-21
1.875e-06
1.25808e-22
9.7633e-22
1.875e-06
1.09419e-22
9.20334e-22
1.875e-06
1.05471e-22
8.95179e-22
1.875e-06
4.21394e-23
8.87665e-22
1.875e-06
1.3154e-22
8.15256e-22
1.875e-06
1.30295e-22
7.63474e-22
1.875e-06
1.55677e-22
7.95837e-22
1.875e-06
3.44748e-23
7.87326e-22
1.875e-06
-1.7865e-22
5.88103e-22
1.875e-06
-1.44673e-22
5.51766e-22
1.875e-06
-5.31129e-24
5.83512e-22
1.875e-06
7.09309e-23
5.47425e-22
1.875e-06
3.36888e-23
4.37888e-22
1.875e-06
-1.05478e-23
3.95938e-22
1.875e-06
-5.88299e-24
3.29476e-22
1.875e-06
-3.11555e-23
3.99623e-22
1.875e-06
-9.04208e-23
3.07516e-22
1.875e-06
-1.42689e-23
2.3585e-22
1.875e-06
-2.85519e-23
1.17722e-22
1.875e-06
-3.95802e-23
-1.05264e-22
1.875e-06
-4.43272e-24
-3.19527e-22
1.875e-06
-4.77932e-23
-3.6903e-22
1.875e-06
-1.11309e-22
-2.49272e-22
1.875e-06
-5.83504e-23
-3.05474e-22
-7.79428e-23
-3.15756e-22
1.875e-06
-7.23356e-23
6.64517e-22
1.875e-06
-1.84859e-22
1.04604e-21
1.875e-06
-6.34268e-23
1.27713e-21
1.875e-06
-1.17954e-22
1.36249e-21
1.875e-06
-8.39181e-23
1.42403e-21
1.875e-06
1.91854e-23
1.40667e-21
1.875e-06
5.77464e-23
1.3947e-21
1.875e-06
6.52437e-23
1.30995e-21
1.875e-06
6.48104e-23
1.25768e-21
1.875e-06
9.60461e-23
1.17152e-21
1.875e-06
-1.61662e-23
1.17371e-21
1.875e-06
5.52493e-23
1.16317e-21
1.875e-06
-1.18264e-22
1.14686e-21
1.875e-06
2.97634e-23
1.10947e-21
1.875e-06
1.50637e-22
9.428e-22
1.875e-06
1.41802e-22
9.60404e-22
1.875e-06
1.26276e-22
9.35977e-22
1.875e-06
1.65768e-22
9.07489e-22
1.875e-06
2.2638e-22
8.83004e-22
1.875e-06
1.10786e-22
7.85787e-22
1.875e-06
1.12041e-22
7.75673e-22
1.875e-06
-3.92746e-23
7.03508e-22
1.875e-06
-7.46904e-23
6.81227e-22
1.875e-06
-1.00689e-22
6.527e-22
1.875e-06
-1.36e-23
6.39928e-22
1.875e-06
-1.46269e-22
5.95638e-22
1.875e-06
-2.96782e-24
4.77696e-22
1.875e-06
1.65961e-22
4.24479e-22
1.875e-06
-3.05425e-23
4.24374e-22
1.875e-06
3.32605e-23
3.59725e-22
1.875e-06
4.56241e-23
3.6591e-22
1.875e-06
-2.71106e-23
2.95481e-22
1.875e-06
3.85241e-24
2.1171e-22
1.875e-06
-8.02426e-23
1.76753e-22
1.875e-06
-2.0775e-22
-1.15418e-22
1.875e-06
-1.17074e-22
-3.33602e-22
1.875e-06
1.08355e-22
-2.91643e-22
1.875e-06
4.32578e-23
-9.60465e-23
1.875e-06
-4.40831e-23
-1.83576e-22
-9.59147e-23
-2.52494e-22
1.875e-06
-1.66463e-22
5.85223e-22
1.875e-06
-1.09006e-22
1.06214e-21
1.875e-06
-3.39032e-23
1.27226e-21
1.875e-06
-6.18584e-23
1.42088e-21
1.875e-06
-6.28114e-23
1.56394e-21
1.875e-06
3.04431e-23
1.40849e-21
1.875e-06
-7.50304e-23
1.38976e-21
1.875e-06
-9.11744e-23
1.335e-21
1.875e-06
1.85076e-23
1.37689e-21
1.875e-06
1.24898e-22
1.1596e-21
1.875e-06
1.25678e-22
1.17549e-21
1.875e-06
-4.90449e-23
1.14527e-21
1.875e-06
4.82576e-23
1.2498e-21
1.875e-06
3.98258e-23
1.21939e-21
1.875e-06
1.67901e-22
9.90253e-22
1.875e-06
1.14288e-22
8.74766e-22
1.875e-06
5.73829e-23
8.49972e-22
1.875e-06
-1.88492e-23
8.58267e-22
1.875e-06
1.17479e-22
8.89207e-22
1.875e-06
2.43626e-22
8.58777e-22
1.875e-06
1.98135e-22
7.96137e-22
1.875e-06
-6.15204e-23
6.96589e-22
1.875e-06
-2.32279e-22
5.51423e-22
1.875e-06
-5.51359e-23
5.91964e-22
1.875e-06
-3.72278e-23
5.89392e-22
1.875e-06
6.81963e-23
6.73785e-22
1.875e-06
4.19114e-23
4.94909e-22
1.875e-06
1.57513e-24
3.96415e-22
1.875e-06
1.29624e-22
5.34824e-22
1.875e-06
6.20988e-23
3.76734e-22
1.875e-06
3.86946e-23
3.02122e-22
1.875e-06
-8.52474e-23
2.82588e-22
1.875e-06
-1.8946e-22
1.9495e-22
1.875e-06
-6.76806e-23
2.75157e-22
1.875e-06
-1.06413e-22
9.33286e-23
1.875e-06
-7.77603e-23
-1.87773e-22
1.875e-06
-2.88126e-23
-3.15617e-22
1.875e-06
4.57894e-23
-1.36953e-22
1.875e-06
-3.02401e-24
-1.74086e-22
3.22286e-23
-2.7294e-22
1.875e-06
-8.14259e-23
6.71031e-22
1.875e-06
-1.7054e-22
1.04245e-21
1.875e-06
-1.90265e-22
1.22294e-21
1.875e-06
-2.09038e-23
1.45031e-21
1.875e-06
6.09717e-23
1.49019e-21
1.875e-06
-1.08323e-22
1.38049e-21
1.875e-06
-8.95173e-23
1.39128e-21
1.875e-06
-1.66232e-22
1.37283e-21
1.875e-06
-5.52447e-24
1.40285e-21
1.875e-06
7.39157e-23
1.33733e-21
1.875e-06
3.47255e-23
1.22195e-21
1.875e-06
1.04071e-22
1.1619e-21
1.875e-06
8.10181e-23
1.21631e-21
1.875e-06
5.70334e-23
1.23905e-21
1.875e-06
3.87895e-23
9.91135e-22
1.875e-06
8.47795e-23
9.26322e-22
1.875e-06
5.6418e-23
8.8466e-22
1.875e-06
2.08285e-22
9.38885e-22
1.875e-06
2.71586e-22
8.07277e-22
1.875e-06
1.62277e-22
6.82163e-22
1.875e-06
-8.02383e-23
6.21745e-22
1.875e-06
-1.9203e-22
7.83653e-22
1.875e-06
-4.68552e-23
6.51028e-22
1.875e-06
-4.82722e-23
6.12293e-22
1.875e-06
-6.71929e-23
6.4117e-22
1.875e-06
-4.76366e-24
5.98717e-22
1.875e-06
7.5933e-23
5.09626e-22
1.875e-06
1.44462e-23
3.1873e-22
1.875e-06
2.35498e-23
4.51268e-22
1.875e-06
7.25349e-23
3.46451e-22
1.875e-06
7.27606e-23
2.92379e-22
1.875e-06
-1.13957e-23
2.56971e-22
1.875e-06
-8.96562e-23
2.4903e-22
1.875e-06
-4.74898e-23
2.27939e-22
1.875e-06
-2.80632e-23
1.15447e-22
1.875e-06
-3.72752e-23
-1.61165e-23
1.875e-06
-7.95263e-23
-1.51814e-22
1.875e-06
-5.16712e-23
-2.19085e-22
1.875e-06
1.55129e-22
-1.33083e-22
2.19557e-22
-2.6011e-22
1.875e-06
-7.40566e-23
8.21634e-22
1.875e-06
-4.01381e-24
1.14964e-21
1.875e-06
-3.23435e-23
1.26171e-21
1.875e-06
-1.43115e-22
1.45534e-21
1.875e-06
-7.1507e-23
1.45455e-21
1.875e-06
-1.4806e-22
1.44354e-21
1.875e-06
-1.71465e-22
1.45373e-21
1.875e-06
1.65083e-23
1.54146e-21
1.875e-06
7.02328e-23
1.39936e-21
1.875e-06
4.67829e-24
1.24653e-21
1.875e-06
6.6667e-23
1.26514e-21
1.875e-06
5.33506e-23
1.23001e-21
1.875e-06
1.39113e-22
1.24483e-21
1.875e-06
1.84291e-22
1.2377e-21
1.875e-06
2.10721e-23
1.02392e-21
1.875e-06
-8.06714e-23
9.33492e-22
1.875e-06
-6.61423e-23
8.84846e-22
1.875e-06
-7.13659e-24
8.04632e-22
1.875e-06
1.52586e-22
6.83485e-22
1.875e-06
2.81283e-23
6.44508e-22
1.875e-06
-7.0343e-23
6.17208e-22
1.875e-06
3.42807e-23
8.15681e-22
1.875e-06
-1.84572e-23
7.71874e-22
1.875e-06
3.78056e-24
7.20218e-22
1.875e-06
-2.61129e-23
6.45747e-22
1.875e-06
-5.78252e-23
5.74355e-22
1.875e-06
9.77814e-23
4.86938e-22
1.875e-06
1.17531e-22
4.4015e-22
1.875e-06
1.2895e-22
3.95202e-22
1.875e-06
-6.9929e-23
3.03005e-22
1.875e-06
-7.32965e-23
2.20747e-22
1.875e-06
-3.4977e-23
1.71162e-22
1.875e-06
3.7441e-23
2.56979e-22
1.875e-06
1.36499e-23
3.26014e-22
1.875e-06
2.041e-23
1.62705e-22
1.875e-06
4.39015e-23
5.74556e-24
1.875e-06
9.27796e-23
9.49033e-24
1.875e-06
7.78867e-24
-1.45369e-22
1.875e-06
3.06709e-23
-2.11673e-22
4.10922e-23
-2.70422e-22
1.875e-06
1.17663e-22
8.93468e-22
1.875e-06
-3.22645e-24
1.19806e-21
1.875e-06
-7.74943e-24
1.13055e-21
1.875e-06
-8.15397e-23
1.37511e-21
1.875e-06
-1.56765e-22
1.38292e-21
1.875e-06
-1.33363e-22
1.52906e-21
1.875e-06
-6.89819e-24
1.55907e-21
1.875e-06
-3.63281e-23
1.49463e-21
1.875e-06
-1.0191e-22
1.32046e-21
1.875e-06
3.08237e-23
1.44339e-21
1.875e-06
-2.04162e-22
1.27736e-21
1.875e-06
4.63994e-22
1.29948e-21
1.875e-06
7.24989e-23
1.15679e-21
1.875e-06
1.86529e-22
1.21139e-21
1.875e-06
3.87084e-23
1.16167e-21
1.875e-06
-1.58452e-22
9.88952e-22
1.875e-06
-1.32037e-22
8.56832e-22
1.875e-06
-1.1653e-22
7.18046e-22
1.875e-06
-1.16187e-22
6.91888e-22
1.875e-06
-6.35421e-24
6.80609e-22
1.875e-06
-6.50481e-23
6.28758e-22
1.875e-06
-1.09603e-22
7.46535e-22
1.875e-06
-2.06879e-23
9.31701e-22
1.875e-06
8.60675e-23
6.76428e-22
1.875e-06
1.74944e-22
6.06785e-22
1.875e-06
7.20237e-23
5.67742e-22
1.875e-06
-5.2442e-23
4.82511e-22
1.875e-06
-2.48173e-23
3.50563e-22
1.875e-06
-2.01487e-22
3.43705e-22
1.875e-06
2.26013e-22
3.86424e-22
1.875e-06
2.9015e-23
3.06059e-22
1.875e-06
6.04913e-23
2.09807e-22
1.875e-06
1.20331e-22
1.96755e-22
1.875e-06
-1.37839e-22
2.47517e-22
1.875e-06
6.50606e-23
2.72423e-22
1.875e-06
1.11508e-22
1.33433e-22
1.875e-06
-7.70572e-23
-5.83203e-23
1.875e-06
3.03022e-23
-2.21719e-22
1.875e-06
-5.93026e-23
-4.01833e-22
-1.48314e-23
-2.52239e-22
1.875e-06
1.76531e-22
7.25531e-22
1.875e-06
1.56618e-22
1.08573e-21
1.875e-06
-1.85634e-23
1.08982e-21
1.875e-06
-8.28397e-24
1.35766e-21
1.875e-06
3.85077e-23
1.40839e-21
1.875e-06
-3.42074e-23
1.4813e-21
1.875e-06
-5.59709e-23
1.48314e-21
1.875e-06
-4.73333e-23
1.44999e-21
1.875e-06
-1.33525e-22
1.39081e-21
1.875e-06
-2.7255e-23
1.50491e-21
1.875e-06
1.45049e-24
1.3734e-21
1.875e-06
5.00168e-23
1.31353e-21
1.875e-06
2.40997e-22
1.29294e-21
1.875e-06
3.08608e-23
1.0369e-21
1.875e-06
-1.18361e-22
1.0263e-21
1.875e-06
-1.29759e-22
1.05029e-21
1.875e-06
-1.46483e-22
8.91144e-22
1.875e-06
-1.81831e-23
7.68119e-22
1.875e-06
1.93533e-24
8.24748e-22
1.875e-06
-7.96762e-23
7.5774e-22
1.875e-06
-9.17216e-23
6.86208e-22
1.875e-06
-1.03321e-22
8.13097e-22
1.875e-06
6.99091e-24
8.83374e-22
1.875e-06
3.96244e-23
6.3269e-22
1.875e-06
6.79455e-23
5.26019e-22
1.875e-06
1.29493e-22
5.93331e-22
1.875e-06
3.03188e-24
4.63061e-22
1.875e-06
6.47806e-23
3.79016e-22
1.875e-06
6.30674e-24
4.2532e-22
1.875e-06
-6.13493e-23
4.05322e-22
1.875e-06
-2.62428e-23
3.06724e-22
1.875e-06
6.50971e-23
1.52598e-22
1.875e-06
-1.87328e-23
1.60834e-22
1.875e-06
7.32644e-23
3.36898e-22
1.875e-06
1.40464e-22
2.54779e-22
1.875e-06
1.27721e-22
1.29667e-22
1.875e-06
8.78726e-23
-5.49048e-23
1.875e-06
-1.65958e-23
-3.11649e-22
1.875e-06
-8.77384e-23
-3.54421e-22
-1.36813e-22
-1.92466e-22
1.875e-06
1.0107e-22
5.61915e-22
1.875e-06
1.95091e-22
1.03476e-21
1.875e-06
5.33213e-23
1.18362e-21
1.875e-06
9.01607e-23
1.33361e-21
1.875e-06
-3.81021e-23
1.32705e-21
1.875e-06
9.93262e-23
1.49861e-21
1.875e-06
2.4413e-23
1.44353e-21
1.875e-06
-1.22705e-22
1.39709e-21
1.875e-06
-9.04473e-23
1.50406e-21
1.875e-06
-1.20173e-22
1.5152e-21
1.875e-06
-7.75447e-24
1.457e-21
1.875e-06
-3.98499e-23
1.2657e-21
1.875e-06
-1.42788e-22
1.19216e-21
1.875e-06
-1.71308e-22
1.10138e-21
1.875e-06
-9.76827e-23
1.06055e-21
1.875e-06
-5.19428e-23
1.05087e-21
1.875e-06
-6.45156e-23
8.86896e-22
1.875e-06
-1.74535e-22
7.60296e-22
1.875e-06
-2.53187e-22
7.34965e-22