/*--------------------------------*- C++ -*----------------------------------*\
| =========                 |                                                 |
| \\      /  F ield         | OpenFOAM: The Open Source CFD Toolbox           |
|  \\    /   O peration     | Version:  v2012                                 |
|   \\  /    A nd           | Website:  www.openfoam.com                      |
|    \\/     M anipulation  |                                                 |
\*---------------------------------------------------------------------------*/
FoamFile
{
    version     2.0;
    format      ascii;
    class       volVectorField;
    location    "49";
    object      U;
}
// * * * * * * * * * * * * * * * * * * * * * * * * * * * * * * * * * * * * * //

dimensions      [0 1 -1 0 0 0 0];


internalField   nonuniform List<vector> 
64000
(
(0.003 3.05568e-19 2.63166e-19)
(0.003 5.17209e-19 4.81267e-19)
(0.003 5.32251e-19 6.2242e-19)
(0.003 5.26894e-19 6.49379e-19)
(0.003 6.36641e-19 5.92043e-19)
(0.003 6.14918e-19 5.44027e-19)
(0.003 5.79176e-19 5.54022e-19)
(0.003 4.48602e-19 5.09173e-19)
(0.003 4.37282e-19 5.8578e-19)
(0.003 6.83308e-19 5.28104e-19)
(0.003 6.76658e-19 4.5732e-19)
(0.003 5.90102e-19 6.1191e-19)
(0.003 5.34553e-19 6.03197e-19)
(0.003 5.05892e-19 4.53846e-19)
(0.003 4.57e-19 5.39241e-19)
(0.003 4.15456e-19 5.58755e-19)
(0.003 3.52588e-19 3.93693e-19)
(0.003 2.13199e-19 2.4308e-19)
(0.003 2.0654e-19 2.2122e-19)
(0.003 2.32072e-19 3.20011e-19)
(0.003 1.47849e-19 3.00514e-19)
(0.003 2.89351e-19 3.50664e-19)
(0.003 4.64933e-19 3.89679e-19)
(0.003 5.3244e-19 3.25721e-19)
(0.003 4.33688e-19 2.25415e-19)
(0.003 2.95395e-19 2.0846e-19)
(0.003 2.11825e-19 2.12094e-19)
(0.003 3.15309e-19 2.94959e-19)
(0.003 3.00021e-19 2.64871e-19)
(0.003 1.55892e-19 2.45506e-19)
(0.003 5.58779e-20 2.08285e-19)
(0.003 1.16074e-19 1.58178e-19)
(0.003 2.48452e-19 2.26239e-19)
(0.003 2.05003e-19 2.69737e-19)
(0.003 9.56463e-20 2.28697e-19)
(0.003 4.76072e-20 1.4478e-19)
(0.003 -5.05189e-20 9.78868e-20)
(0.003 -6.15255e-20 1.60425e-19)
(0.003 -6.3933e-20 1.98848e-19)
(0.003 -4.5442e-20 1.38773e-19)
(0.003 2.19336e-19 4.81843e-19)
(0.003 3.72019e-19 9.55628e-19)
(0.003 6.54728e-19 1.19722e-18)
(0.003 6.09114e-19 1.14216e-18)
(0.003 5.21818e-19 1.13692e-18)
(0.003 7.62487e-19 1.25261e-18)
(0.003 7.99626e-19 1.25963e-18)
(0.003 6.95224e-19 1.043e-18)
(0.003 6.11148e-19 9.60781e-19)
(0.003 6.24739e-19 1.23151e-18)
(0.003 6.32902e-19 1.25591e-18)
(0.003 5.56729e-19 1.11663e-18)
(0.003 4.5353e-19 1.02941e-18)
(0.003 4.14811e-19 9.70408e-19)
(0.003 3.21395e-19 9.76101e-19)
(0.003 2.54682e-19 9.16229e-19)
(0.003 5.0822e-19 8.22503e-19)
(0.003 5.05952e-19 6.98883e-19)
(0.003 3.37177e-19 6.84719e-19)
(0.003 1.79817e-19 6.01428e-19)
(0.003 2.63971e-19 5.60448e-19)
(0.003 4.28509e-19 6.83945e-19)
(0.003 4.70475e-19 7.40919e-19)
(0.003 4.66937e-19 7.63045e-19)
(0.003 3.96197e-19 6.30603e-19)
(0.003 3.50447e-19 5.26143e-19)
(0.003 3.85124e-19 5.2969e-19)
(0.003 2.73699e-19 5.93572e-19)
(0.003 2.13184e-19 5.68506e-19)
(0.003 2.039e-19 4.34198e-19)
(0.003 1.52268e-19 3.13971e-19)
(0.003 1.44273e-19 2.85206e-19)
(0.003 1.62287e-19 4.10217e-19)
(0.003 1.02377e-19 4.64868e-19)
(0.003 1.79308e-20 3.55918e-19)
(0.003 -1.07258e-19 1.5887e-19)
(0.003 -4.60749e-20 4.27618e-20)
(0.003 -3.54346e-20 3.83695e-20)
(0.003 -7.47155e-20 8.98478e-20)
(0.003 -1.00727e-19 7.99296e-20)
(0.003 1.4604e-19 5.79258e-19)
(0.003 1.60322e-19 1.02367e-18)
(0.003 2.84614e-19 1.26055e-18)
(0.003 4.98749e-19 1.34018e-18)
(0.003 4.71772e-19 1.33036e-18)
(0.003 6.57147e-19 1.45086e-18)
(0.003 7.19045e-19 1.54027e-18)
(0.003 5.61056e-19 1.46092e-18)
(0.003 5.78671e-19 1.3843e-18)
(0.003 4.33357e-19 1.35246e-18)
(0.003 4.04448e-19 1.31996e-18)
(0.003 4.09503e-19 1.20708e-18)
(0.003 4.084e-19 1.1104e-18)
(0.003 3.39997e-19 1.10812e-18)
(0.003 3.1124e-19 1.05547e-18)
(0.003 2.99908e-19 9.48555e-19)
(0.003 3.60789e-19 9.81223e-19)
(0.003 5.33104e-19 9.02163e-19)
(0.003 3.47086e-19 7.6429e-19)
(0.003 2.39631e-19 6.60132e-19)
(0.003 3.56671e-19 7.33634e-19)
(0.003 3.95812e-19 8.4194e-19)
(0.003 4.21294e-19 8.206e-19)
(0.003 3.06296e-19 7.98341e-19)
(0.003 3.38728e-19 6.9746e-19)
(0.003 2.5375e-19 6.56624e-19)
(0.003 2.15099e-19 6.53222e-19)
(0.003 1.22298e-19 7.27668e-19)
(0.003 1.80607e-19 5.99957e-19)
(0.003 2.52325e-19 5.69984e-19)
(0.003 2.47082e-19 5.15455e-19)
(0.003 1.23904e-19 3.84816e-19)
(0.003 -2.60868e-20 3.75516e-19)
(0.003 -5.02006e-20 3.79994e-19)
(0.003 3.55901e-20 3.32912e-19)
(0.003 5.1203e-20 2.0712e-19)
(0.003 4.72618e-20 3.60888e-20)
(0.003 -1.81524e-20 1.98887e-20)
(0.003 -7.18654e-20 8.15574e-20)
(0.003 -1.08546e-19 3.48056e-20)
(0.003 3.84664e-19 7.1315e-19)
(0.003 3.16149e-19 1.18257e-18)
(0.003 1.53292e-19 1.38101e-18)
(0.003 3.57661e-19 1.50219e-18)
(0.003 5.06833e-19 1.50257e-18)
(0.003 5.17952e-19 1.60365e-18)
(0.003 4.78139e-19 1.62937e-18)
(0.003 4.58159e-19 1.43536e-18)
(0.003 4.059e-19 1.41937e-18)
(0.003 4.61955e-19 1.45838e-18)
(0.003 4.48277e-19 1.43073e-18)
(0.003 2.96549e-19 1.38909e-18)
(0.003 3.14383e-19 1.23262e-18)
(0.003 3.22381e-19 1.16601e-18)
(0.003 4.90102e-19 1.1611e-18)
(0.003 6.25653e-19 1.05041e-18)
(0.003 3.03499e-19 9.77494e-19)
(0.003 2.75164e-19 1.03714e-18)
(0.003 3.23946e-19 8.94324e-19)
(0.003 2.88487e-19 7.29597e-19)
(0.003 3.10173e-19 8.39408e-19)
(0.003 3.19353e-19 9.43513e-19)
(0.003 3.21158e-19 9.47219e-19)
(0.003 2.99951e-19 9.04471e-19)
(0.003 3.06259e-19 8.14653e-19)
(0.003 1.72075e-19 6.55683e-19)
(0.003 1.2978e-19 5.94073e-19)
(0.003 1.36581e-19 5.93868e-19)
(0.003 2.1616e-19 6.20768e-19)
(0.003 1.72974e-19 6.39991e-19)
(0.003 1.50813e-19 5.16625e-19)
(0.003 5.1313e-20 3.83144e-19)
(0.003 -6.79893e-20 4.31594e-19)
(0.003 -5.50091e-20 3.87307e-19)
(0.003 7.21104e-20 2.81007e-19)
(0.003 9.93237e-20 2.29432e-19)
(0.003 6.90485e-20 1.23945e-19)
(0.003 4.52211e-20 7.17882e-20)
(0.003 -1.54777e-20 6.30373e-20)
(0.003 1.45342e-20 5.55173e-20)
(0.003 1.52209e-19 7.37586e-19)
(0.003 2.10029e-19 1.28546e-18)
(0.003 1.53545e-19 1.42741e-18)
(0.003 2.26058e-19 1.60367e-18)
(0.003 3.03113e-19 1.6733e-18)
(0.003 2.17425e-19 1.69783e-18)
(0.003 1.59785e-19 1.65446e-18)
(0.003 4.94261e-19 1.49809e-18)
(0.003 5.85503e-19 1.41592e-18)
(0.003 5.12955e-19 1.56892e-18)
(0.003 3.99011e-19 1.51788e-18)
(0.003 2.53948e-19 1.27677e-18)
(0.003 3.31953e-19 1.25705e-18)
(0.003 3.09253e-19 1.29383e-18)
(0.003 3.67151e-19 1.34519e-18)
(0.003 4.74043e-19 1.21169e-18)
(0.003 2.85607e-19 1.02866e-18)
(0.003 1.30304e-19 9.76552e-19)
(0.003 2.50048e-19 9.41125e-19)
(0.003 3.89453e-19 8.04823e-19)
(0.003 3.44712e-19 8.52545e-19)
(0.003 3.0273e-19 1.01963e-18)
(0.003 2.15295e-19 1.06708e-18)
(0.003 2.37209e-19 9.68928e-19)
(0.003 1.76675e-19 8.26701e-19)
(0.003 1.56378e-19 6.77459e-19)
(0.003 1.52955e-19 5.89805e-19)
(0.003 1.39952e-19 6.3902e-19)
(0.003 1.64989e-19 6.61882e-19)
(0.003 8.8792e-20 5.48367e-19)
(0.003 1.33597e-19 4.75443e-19)
(0.003 1.46126e-19 4.53703e-19)
(0.003 -4.3728e-20 3.59338e-19)
(0.003 -9.09488e-20 2.92517e-19)
(0.003 2.14471e-20 2.82174e-19)
(0.003 -1.53757e-20 2.65978e-19)
(0.003 2.20942e-20 1.73972e-19)
(0.003 6.78145e-20 2.93669e-20)
(0.003 -2.70922e-20 2.13364e-20)
(0.003 -2.95426e-20 1.32024e-19)
(0.003 2.09426e-20 7.72662e-19)
(0.003 2.15102e-19 1.28397e-18)
(0.003 1.49699e-19 1.45185e-18)
(0.003 8.80362e-20 1.66264e-18)
(0.003 1.81449e-19 1.79707e-18)
(0.003 1.88087e-19 1.81156e-18)
(0.003 1.83512e-19 1.69324e-18)
(0.003 4.19379e-19 1.68054e-18)
(0.003 5.67915e-19 1.61533e-18)
(0.003 3.99507e-19 1.49696e-18)
(0.003 3.61529e-19 1.4459e-18)
(0.003 4.3705e-19 1.42625e-18)
(0.003 3.99437e-19 1.38409e-18)
(0.003 3.74519e-19 1.22331e-18)
(0.003 2.11172e-19 1.31585e-18)
(0.003 1.80493e-19 1.30052e-18)
(0.003 1.77937e-19 1.10955e-18)
(0.003 8.58894e-21 9.71425e-19)
(0.003 1.10325e-19 9.09305e-19)
(0.003 3.15273e-19 8.53078e-19)
(0.003 3.55906e-19 9.34444e-19)
(0.003 3.89269e-19 1.08652e-18)
(0.003 3.05022e-19 1.06923e-18)
(0.003 2.32102e-19 9.70353e-19)
(0.003 1.63372e-19 8.01681e-19)
(0.003 2.44755e-19 6.55953e-19)
(0.003 2.17585e-19 6.68922e-19)
(0.003 5.17719e-20 6.25309e-19)
(0.003 -5.82476e-20 6.39438e-19)
(0.003 1.61717e-20 6.56399e-19)
(0.003 2.36777e-19 5.60936e-19)
(0.003 2.55956e-19 4.24103e-19)
(0.003 -3.08676e-20 3.06243e-19)
(0.003 -4.87953e-20 3.09815e-19)
(0.003 -3.61242e-20 3.56597e-19)
(0.003 -2.44945e-20 1.79846e-19)
(0.003 -2.53981e-21 1.07744e-19)
(0.003 8.81398e-20 3.5262e-20)
(0.003 1.66976e-19 -1.71743e-20)
(0.003 9.7473e-20 9.95338e-20)
(0.003 6.21978e-20 8.94374e-19)
(0.003 1.93926e-19 1.48274e-18)
(0.003 2.09438e-19 1.4891e-18)
(0.003 1.03478e-19 1.621e-18)
(0.003 1.80356e-19 1.82209e-18)
(0.003 1.81619e-19 1.88513e-18)
(0.003 2.65071e-19 1.75251e-18)
(0.003 4.90513e-19 1.67547e-18)
(0.003 5.26927e-19 1.73226e-18)
(0.003 3.71732e-19 1.67069e-18)
(0.003 2.49381e-19 1.53825e-18)
(0.003 2.75792e-19 1.41697e-18)
(0.003 2.91443e-19 1.39989e-18)
(0.003 3.36849e-19 1.3922e-18)
(0.003 2.17815e-19 1.35005e-18)
(0.003 1.84483e-19 1.31063e-18)
(0.003 2.08299e-19 1.10698e-18)
(0.003 1.73695e-19 9.10345e-19)
(0.003 1.80006e-19 8.75905e-19)
(0.003 1.28024e-19 9.08758e-19)
(0.003 1.888e-19 1.0223e-18)
(0.003 2.28211e-19 1.124e-18)
(0.003 2.34626e-19 1.08527e-18)
(0.003 1.75586e-19 1.03366e-18)
(0.003 1.13808e-19 8.3239e-19)
(0.003 2.8684e-19 7.68391e-19)
(0.003 2.16633e-19 7.33073e-19)
(0.003 1.59229e-19 5.93034e-19)
(0.003 5.51461e-20 5.70078e-19)
(0.003 5.68933e-20 5.74624e-19)
(0.003 9.10652e-20 5.92838e-19)
(0.003 6.239e-20 4.44674e-19)
(0.003 6.4091e-20 2.12442e-19)
(0.003 1.31021e-19 2.2471e-19)
(0.003 6.65737e-20 3.07225e-19)
(0.003 5.42406e-20 2.7187e-19)
(0.003 6.92749e-21 1.32844e-19)
(0.003 7.53477e-20 4.49999e-20)
(0.003 1.32832e-19 2.80537e-20)
(0.003 1.20874e-19 8.85071e-20)
(0.003 1.73427e-19 7.88757e-19)
(0.003 1.86566e-19 1.33967e-18)
(0.003 1.79663e-19 1.51546e-18)
(0.003 1.99146e-19 1.71269e-18)
(0.003 2.11605e-19 1.9324e-18)
(0.003 2.53077e-19 1.93236e-18)
(0.003 3.56981e-19 1.76777e-18)
(0.003 3.23291e-19 1.82748e-18)
(0.003 2.9508e-19 1.82965e-18)
(0.003 3.52475e-19 1.73491e-18)
(0.003 1.77132e-19 1.62337e-18)
(0.003 1.55028e-19 1.4833e-18)
(0.003 2.61595e-19 1.36692e-18)
(0.003 2.49874e-19 1.34946e-18)
(0.003 2.51499e-19 1.37022e-18)
(0.003 2.08543e-19 1.3892e-18)
(0.003 1.26065e-19 1.21568e-18)
(0.003 1.71682e-19 9.40708e-19)
(0.003 3.0072e-19 8.25468e-19)
(0.003 2.76555e-19 7.94625e-19)
(0.003 1.3225e-19 9.41508e-19)
(0.003 6.41937e-20 1.11446e-18)
(0.003 1.35309e-19 1.15342e-18)
(0.003 1.15646e-19 1.11911e-18)
(0.003 1.41619e-19 9.40809e-19)
(0.003 2.17529e-19 8.49573e-19)
(0.003 2.9044e-19 7.3427e-19)
(0.003 2.60267e-19 6.17522e-19)
(0.003 1.49038e-19 4.9414e-19)
(0.003 1.59749e-19 5.05758e-19)
(0.003 2.31824e-20 5.87834e-19)
(0.003 -1.93665e-20 4.75894e-19)
(0.003 7.76602e-20 3.42581e-19)
(0.003 1.03243e-19 3.58324e-19)
(0.003 1.64845e-19 3.10488e-19)
(0.003 7.34015e-20 1.39063e-19)
(0.003 1.49188e-20 -3.12919e-20)
(0.003 3.91478e-20 1.49031e-20)
(0.003 -4.45534e-21 5.4016e-20)
(0.003 -1.41099e-20 3.25415e-20)
(0.003 -6.48306e-20 7.91532e-19)
(0.003 -4.14697e-20 1.54462e-18)
(0.003 1.0584e-19 1.652e-18)
(0.003 1.64737e-19 1.79232e-18)
(0.003 2.56164e-19 1.90319e-18)
(0.003 4.15033e-19 1.96493e-18)
(0.003 3.54843e-19 1.90646e-18)
(0.003 1.26646e-19 1.82839e-18)
(0.003 8.10771e-20 1.83295e-18)
(0.003 2.69001e-19 1.83275e-18)
(0.003 2.33139e-19 1.61037e-18)
(0.003 1.34302e-19 1.49133e-18)
(0.003 1.98741e-19 1.46056e-18)
(0.003 1.72036e-19 1.37524e-18)
(0.003 2.61712e-19 1.36295e-18)
(0.003 1.97721e-19 1.36617e-18)
(0.003 2.27417e-19 1.22384e-18)
(0.003 2.17617e-19 9.36488e-19)
(0.003 1.05624e-19 9.60568e-19)
(0.003 2.06149e-19 9.75942e-19)
(0.003 2.54823e-19 9.42326e-19)
(0.003 2.23495e-19 1.10898e-18)
(0.003 2.69929e-19 1.21467e-18)
(0.003 2.32198e-19 1.15652e-18)
(0.003 2.58173e-19 9.02416e-19)
(0.003 1.71298e-19 8.07029e-19)
(0.003 1.35281e-19 7.66953e-19)
(0.003 1.65775e-19 6.52625e-19)
(0.003 1.98756e-19 4.94971e-19)
(0.003 1.64323e-19 5.57973e-19)
(0.003 -3.55688e-20 5.81153e-19)
(0.003 -4.89065e-20 4.79926e-19)
(0.003 1.12578e-19 3.38916e-19)
(0.003 1.1692e-19 3.17683e-19)
(0.003 1.13637e-19 1.92259e-19)
(0.003 1.49186e-19 -4.45436e-21)
(0.003 1.14561e-19 -3.6939e-20)
(0.003 -6.3839e-20 -4.87585e-20)
(0.003 -1.33659e-19 -1.75224e-19)
(0.003 -1.02167e-19 -1.03396e-19)
(0.003 -1.90009e-19 8.60672e-19)
(0.003 -3.28e-20 1.38739e-18)
(0.003 1.74696e-19 1.60627e-18)
(0.003 2.89687e-19 1.85609e-18)
(0.003 2.15638e-19 2.02921e-18)
(0.003 1.99807e-19 2.03155e-18)
(0.003 3.23336e-19 2.01181e-18)
(0.003 2.40919e-19 1.94953e-18)
(0.003 1.7887e-19 1.7987e-18)
(0.003 1.34788e-19 1.76348e-18)
(0.003 2.74547e-19 1.6341e-18)
(0.003 1.49855e-19 1.45853e-18)
(0.003 3.53729e-20 1.4264e-18)
(0.003 1.29495e-19 1.37091e-18)
(0.003 2.4653e-19 1.42193e-18)
(0.003 2.38304e-19 1.40677e-18)
(0.003 2.09538e-19 1.22886e-18)
(0.003 2.05848e-19 9.89048e-19)
(0.003 1.02533e-20 8.8294e-19)
(0.003 1.19462e-19 8.71247e-19)
(0.003 3.50764e-19 1.01993e-18)
(0.003 4.35266e-19 1.22189e-18)
(0.003 2.61254e-19 1.27657e-18)
(0.003 2.89168e-19 1.21683e-18)
(0.003 4.1557e-19 1.03662e-18)
(0.003 2.10345e-19 8.05455e-19)
(0.003 -6.45988e-20 6.05148e-19)
(0.003 -2.94857e-20 6.31859e-19)
(0.003 1.23841e-19 6.52256e-19)
(0.003 1.55933e-19 5.57571e-19)
(0.003 3.92581e-20 4.08572e-19)
(0.003 3.16404e-20 4.89094e-19)
(0.003 9.55298e-20 4.76505e-19)
(0.003 3.92826e-20 3.20755e-19)
(0.003 -5.86811e-20 1.51927e-19)
(0.003 1.71029e-19 -9.58148e-20)
(0.003 1.86531e-19 -2.71361e-19)
(0.003 -1.63551e-22 -2.74308e-19)
(0.003 -3.83665e-20 -1.81803e-19)
(0.003 -1.75413e-20 -1.74845e-19)
(0.003 6.70546e-20 1.02844e-18)
(0.003 1.83024e-19 1.56714e-18)
(0.003 2.47582e-19 1.71825e-18)
(0.003 2.67099e-19 1.90796e-18)
(0.003 1.99053e-19 1.9484e-18)
(0.003 1.78836e-19 2.0169e-18)
(0.003 1.9097e-19 2.09943e-18)
(0.003 2.43046e-19 2.03328e-18)
(0.003 1.65111e-19 1.94007e-18)
(0.003 1.75289e-19 1.77743e-18)
(0.003 2.34767e-19 1.54476e-18)
(0.003 1.50796e-19 1.37492e-18)
(0.003 6.60011e-20 1.35954e-18)
(0.003 1.54047e-19 1.26567e-18)
(0.003 1.67341e-19 1.40933e-18)
(0.003 3.1136e-19 1.47063e-18)
(0.003 2.52031e-19 1.23199e-18)
(0.003 1.37616e-19 9.74014e-19)
(0.003 9.24098e-20 8.98316e-19)
(0.003 9.27538e-20 9.9742e-19)
(0.003 2.82881e-19 1.15541e-18)
(0.003 3.83296e-19 1.31198e-18)
(0.003 2.48612e-19 1.3073e-18)
(0.003 2.37443e-19 1.23472e-18)
(0.003 2.49895e-19 9.83999e-19)
(0.003 1.36766e-19 6.99379e-19)
(0.003 8.43029e-20 6.7053e-19)
(0.003 6.72888e-20 7.16406e-19)
(0.003 2.55087e-20 6.16629e-19)
(0.003 2.8306e-20 6.37871e-19)
(0.003 2.85821e-20 5.22471e-19)
(0.003 6.71981e-20 5.38944e-19)
(0.003 1.15494e-19 4.23742e-19)
(0.003 1.92753e-20 2.54422e-19)
(0.003 -3.6808e-20 1.91086e-19)
(0.003 -4.87266e-20 -1.06523e-19)
(0.003 -1.08563e-19 -4.23411e-19)
(0.003 -2.74275e-20 -2.64503e-19)
(0.003 5.70651e-20 -2.3691e-19)
(0.003 8.2663e-20 -2.52384e-19)
(0.003 2.48179e-19 1.0632e-18)
(0.003 2.21603e-19 1.63805e-18)
(0.003 1.42937e-19 1.75501e-18)
(0.003 1.57963e-19 1.82696e-18)
(0.003 2.66846e-19 2.02732e-18)
(0.003 2.25395e-19 2.13332e-18)
(0.003 1.87056e-19 2.05529e-18)
(0.003 3.00585e-19 2.00743e-18)
(0.003 1.35705e-19 1.84893e-18)
(0.003 9.16055e-20 1.82847e-18)
(0.003 2.29151e-19 1.62295e-18)
(0.003 2.56583e-19 1.38734e-18)
(0.003 1.94444e-19 1.41401e-18)
(0.003 2.38919e-19 1.29038e-18)
(0.003 1.37728e-19 1.33265e-18)
(0.003 1.43055e-19 1.43539e-18)
(0.003 2.03386e-19 1.32763e-18)
(0.003 2.02804e-19 1.06101e-18)
(0.003 2.87059e-19 9.41847e-19)
(0.003 1.94613e-19 9.24472e-19)
(0.003 1.09883e-19 1.18881e-18)
(0.003 1.26872e-19 1.34569e-18)
(0.003 1.30563e-19 1.21267e-18)
(0.003 2.09401e-19 1.1658e-18)
(0.003 5.77873e-20 1.08255e-18)
(0.003 3.15854e-20 8.51562e-19)
(0.003 1.12443e-19 7.2759e-19)
(0.003 5.65245e-20 7.15415e-19)
(0.003 2.36794e-20 5.62962e-19)
(0.003 -1.49524e-19 6.06014e-19)
(0.003 2.91006e-20 5.63975e-19)
(0.003 1.2452e-19 5.02298e-19)
(0.003 -9.62847e-21 3.91329e-19)
(0.003 9.15189e-20 2.33025e-19)
(0.003 1.98095e-19 8.01519e-20)
(0.003 -6.97989e-20 -1.66437e-19)
(0.003 -2.18565e-19 -4.06746e-19)
(0.003 -9.27236e-20 -3.05126e-19)
(0.003 2.57027e-20 -3.20144e-19)
(0.003 5.09661e-20 -4.56241e-19)
(0.003 2.39846e-19 1.06984e-18)
(0.003 2.75867e-19 1.63601e-18)
(0.003 2.2e-19 1.78782e-18)
(0.003 2.4886e-19 1.97138e-18)
(0.003 1.2983e-19 2.14405e-18)
(0.003 5.82464e-20 2.1256e-18)
(0.003 1.81305e-19 2.03107e-18)
(0.003 2.05307e-19 1.98999e-18)
(0.003 2.27335e-19 1.81553e-18)
(0.003 1.48142e-19 1.71699e-18)
(0.003 8.29078e-20 1.60176e-18)
(0.003 2.69207e-19 1.50997e-18)
(0.003 3.34118e-19 1.48555e-18)
(0.003 2.89131e-19 1.4415e-18)
(0.003 2.30994e-19 1.39402e-18)
(0.003 1.64197e-19 1.37205e-18)
(0.003 1.66168e-19 1.1958e-18)
(0.003 1.08175e-19 9.90137e-19)
(0.003 1.19811e-19 1.01578e-18)
(0.003 2.57914e-19 1.0888e-18)
(0.003 1.86813e-19 1.10199e-18)
(0.003 7.10772e-20 1.25882e-18)
(0.003 1.33303e-19 1.2327e-18)
(0.003 9.54122e-20 1.19756e-18)
(0.003 -7.55835e-20 9.88661e-19)
(0.003 -6.45204e-20 8.07132e-19)
(0.003 -9.7439e-20 7.77755e-19)
(0.003 -2.06661e-20 6.9881e-19)
(0.003 1.1468e-20 6.28093e-19)
(0.003 -9.20589e-20 5.65678e-19)
(0.003 1.50691e-20 5.5659e-19)
(0.003 1.03688e-19 5.13542e-19)
(0.003 1.03613e-20 3.58103e-19)
(0.003 8.64338e-20 2.99002e-19)
(0.003 1.67158e-19 1.15704e-19)
(0.003 2.06355e-20 -2.96075e-19)
(0.003 -6.24785e-20 -4.34377e-19)
(0.003 -1.41559e-19 -2.88518e-19)
(0.003 -2.2137e-19 -2.12342e-19)
(0.003 -1.68355e-19 -3.68173e-19)
(0.003 -3.60626e-20 1.07393e-18)
(0.003 1.91288e-19 1.71292e-18)
(0.003 2.81138e-19 1.84587e-18)
(0.003 1.37695e-19 2.00334e-18)
(0.003 1.08219e-20 2.0855e-18)
(0.003 1.21321e-20 2.10173e-18)
(0.003 1.06287e-19 2.02567e-18)
(0.003 1.58867e-19 1.89173e-18)
(0.003 1.6798e-19 1.81192e-18)
(0.003 7.55864e-20 1.79003e-18)
(0.003 3.85716e-20 1.64891e-18)
(0.003 2.85423e-19 1.539e-18)
(0.003 3.27472e-19 1.58458e-18)
(0.003 1.88803e-19 1.45904e-18)
(0.003 1.46345e-19 1.39297e-18)
(0.003 1.18063e-19 1.36403e-18)
(0.003 2.17734e-19 1.30871e-18)
(0.003 2.86385e-19 1.08798e-18)
(0.003 2.27375e-19 9.23041e-19)
(0.003 1.57752e-19 1.02027e-18)
(0.003 2.11149e-19 1.1408e-18)
(0.003 6.37985e-20 1.24622e-18)
(0.003 3.72628e-20 1.22053e-18)
(0.003 -1.3702e-20 1.22797e-18)
(0.003 -1.12976e-20 1.06025e-18)
(0.003 1.42133e-21 8.35044e-19)
(0.003 2.84509e-21 6.30832e-19)
(0.003 1.07217e-20 6.69409e-19)
(0.003 -5.63251e-20 6.5357e-19)
(0.003 -7.64761e-20 5.56198e-19)
(0.003 -1.99908e-19 5.964e-19)
(0.003 -1.0126e-19 5.63766e-19)
(0.003 5.38133e-20 4.03306e-19)
(0.003 -3.41381e-20 2.85902e-19)
(0.003 -5.10159e-20 7.3037e-20)
(0.003 -2.70867e-20 -3.58265e-19)
(0.003 -7.6369e-20 -5.33879e-19)
(0.003 -5.01062e-20 -4.35773e-19)
(0.003 -1.29441e-19 -3.46462e-19)
(0.003 -2.50687e-19 -3.76173e-19)
(0.003 -1.95985e-19 1.15452e-18)
(0.003 -1.31104e-19 1.74716e-18)
(0.003 1.14142e-19 1.91996e-18)
(0.003 5.1799e-20 1.94114e-18)
(0.003 3.90905e-20 2.07789e-18)
(0.003 6.67273e-20 2.11182e-18)
(0.003 2.87381e-20 2.04587e-18)
(0.003 5.50246e-20 1.94796e-18)
(0.003 1.1662e-19 1.85342e-18)
(0.003 -1.02613e-20 1.77882e-18)
(0.003 1.17947e-19 1.6721e-18)
(0.003 2.66952e-19 1.67135e-18)
(0.003 2.22702e-19 1.65773e-18)
(0.003 9.87762e-20 1.47811e-18)
(0.003 1.31973e-19 1.33456e-18)
(0.003 1.34934e-19 1.39262e-18)
(0.003 1.90041e-19 1.24787e-18)
(0.003 3.05686e-19 1.07954e-18)
(0.003 2.4386e-19 1.03187e-18)
(0.003 1.81363e-19 1.05206e-18)
(0.003 2.2543e-19 1.16326e-18)
(0.003 1.15999e-19 1.2008e-18)
(0.003 -1.43845e-20 1.24736e-18)
(0.003 -1.89112e-19 1.17664e-18)
(0.003 -1.72832e-19 9.83521e-19)
(0.003 4.76671e-20 8.45969e-19)
(0.003 1.94624e-19 7.00792e-19)
(0.003 3.92429e-20 7.12346e-19)
(0.003 -1.04525e-19 6.56817e-19)
(0.003 -7.35058e-20 5.20622e-19)
(0.003 -8.11414e-20 5.14501e-19)
(0.003 -1.61711e-19 5.38582e-19)
(0.003 -4.96686e-20 4.74975e-19)
(0.003 -1.56657e-20 2.72534e-19)
(0.003 -4.48492e-20 8.23357e-20)
(0.003 -1.35057e-20 -2.63154e-19)
(0.003 -9.5443e-20 -5.00379e-19)
(0.003 -7.48373e-20 -4.1077e-19)
(0.003 -1.20225e-19 -3.94881e-19)
(0.003 -2.54768e-19 -4.44147e-19)
(0.003 -8.2907e-20 1.08996e-18)
(0.003 -2.5978e-19 1.75355e-18)
(0.003 -1.92511e-19 2.02348e-18)
(0.003 -1.48557e-19 2.02829e-18)
(0.003 -8.9228e-21 2.11797e-18)
(0.003 6.29336e-20 2.13361e-18)
(0.003 2.39372e-21 2.01804e-18)
(0.003 8.313e-21 1.95815e-18)
(0.003 8.58766e-20 1.87865e-18)
(0.003 1.04014e-19 1.71201e-18)
(0.003 1.10485e-19 1.73208e-18)
(0.003 1.02117e-19 1.74759e-18)
(0.003 -1.29612e-20 1.71232e-18)
(0.003 6.27649e-20 1.50552e-18)
(0.003 2.37608e-19 1.38583e-18)
(0.003 2.30829e-19 1.3969e-18)
(0.003 2.01987e-19 1.28275e-18)
(0.003 2.3428e-19 1.09047e-18)
(0.003 2.41e-19 9.80232e-19)
(0.003 1.75501e-19 1.04712e-18)
(0.003 1.66963e-19 1.18024e-18)
(0.003 1.29452e-19 1.25734e-18)
(0.003 6.73122e-23 1.2294e-18)
(0.003 -2.20662e-19 1.04078e-18)
(0.003 -1.38229e-19 9.07277e-19)
(0.003 -9.69268e-20 9.0903e-19)
(0.003 4.21158e-20 7.48999e-19)
(0.003 1.09612e-19 6.32514e-19)
(0.003 -2.46681e-20 6.31365e-19)
(0.003 2.31207e-20 5.33651e-19)
(0.003 1.03758e-20 4.91192e-19)
(0.003 -6.95579e-20 5.10514e-19)
(0.003 -5.0029e-20 4.81221e-19)
(0.003 -9.12746e-20 3.34731e-19)
(0.003 -1.53942e-19 9.70284e-20)
(0.003 -9.1253e-20 -2.59071e-19)
(0.003 2.24391e-20 -3.6538e-19)
(0.003 -8.40349e-20 -2.18674e-19)
(0.003 -1.26091e-19 -2.69635e-19)
(0.003 -1.13313e-19 -3.82774e-19)
(0.003 -1.81903e-19 9.99224e-19)
(0.003 -1.66199e-19 1.67625e-18)
(0.003 -8.38595e-20 1.96594e-18)
(0.003 -1.75937e-19 2.01547e-18)
(0.003 -1.42897e-19 2.13801e-18)
(0.003 1.01655e-20 2.13446e-18)
(0.003 -8.31372e-21 2.12668e-18)
(0.003 -9.15977e-21 2.10725e-18)
(0.003 8.44654e-20 2.02103e-18)
(0.003 2.05357e-19 1.78697e-18)
(0.003 1.15931e-19 1.69602e-18)
(0.003 5.31902e-21 1.7297e-18)
(0.003 -8.95264e-20 1.65781e-18)
(0.003 3.37528e-20 1.60095e-18)
(0.003 2.95754e-19 1.44592e-18)
(0.003 2.61359e-19 1.37422e-18)
(0.003 1.24636e-19 1.2295e-18)
(0.003 6.14655e-20 1.1365e-18)
(0.003 2.23015e-19 1.11451e-18)
(0.003 2.78048e-19 1.05171e-18)
(0.003 2.74126e-19 1.21217e-18)
(0.003 -2.79511e-20 1.12338e-18)
(0.003 -2.54137e-19 1.08436e-18)
(0.003 -1.68501e-19 9.41319e-19)
(0.003 -1.20953e-20 8.73629e-19)
(0.003 -2.88376e-20 8.58394e-19)
(0.003 5.52955e-20 7.58901e-19)
(0.003 1.22802e-19 7.93637e-19)
(0.003 8.46239e-20 6.66243e-19)
(0.003 1.1027e-19 5.38156e-19)
(0.003 7.50673e-20 4.87393e-19)
(0.003 -9.24098e-20 4.51027e-19)
(0.003 -1.61823e-19 4.52762e-19)
(0.003 -1.98535e-19 4.67613e-19)
(0.003 -3.47726e-19 2.8635e-19)
(0.003 -1.97977e-19 -1.13565e-19)
(0.003 9.51295e-20 -3.27227e-19)
(0.003 1.08997e-19 -1.79405e-19)
(0.003 -4.62766e-21 -3.28877e-19)
(0.003 -3.5535e-20 -4.97025e-19)
(0.003 -2.05572e-19 9.24734e-19)
(0.003 -2.12948e-19 1.69988e-18)
(0.003 -1.79752e-19 2.06092e-18)
(0.003 -4.45952e-20 2.05725e-18)
(0.003 3.88734e-20 2.03043e-18)
(0.003 -3.28858e-20 2.1344e-18)
(0.003 -1.58567e-19 2.09601e-18)
(0.003 -2.11684e-19 2.072e-18)
(0.003 4.29891e-21 2.06297e-18)
(0.003 1.4042e-19 1.92874e-18)
(0.003 1.27022e-19 1.75303e-18)
(0.003 5.80861e-20 1.70108e-18)
(0.003 9.72181e-20 1.66912e-18)
(0.003 9.02623e-20 1.58149e-18)
(0.003 1.57269e-19 1.56388e-18)
(0.003 1.46348e-19 1.46178e-18)
(0.003 9.21876e-20 1.25059e-18)
(0.003 1.71864e-19 1.01373e-18)
(0.003 2.8927e-19 1.02602e-18)
(0.003 2.92371e-19 1.07918e-18)
(0.003 3.69947e-20 1.1973e-18)
(0.003 -2.3159e-19 1.20033e-18)
(0.003 -2.16391e-19 1.0102e-18)
(0.003 -6.68725e-20 9.02465e-19)
(0.003 -7.32386e-20 8.99148e-19)
(0.003 4.78257e-20 9.22446e-19)
(0.003 1.20692e-19 8.71891e-19)
(0.003 4.68022e-20 7.00894e-19)
(0.003 1.08004e-19 6.34116e-19)
(0.003 9.1204e-20 5.60674e-19)
(0.003 1.01907e-19 4.63775e-19)
(0.003 -1.03744e-19 3.69639e-19)
(0.003 -2.14682e-19 4.02067e-19)
(0.003 -9.08455e-20 4.47378e-19)
(0.003 -1.5038e-19 2.73109e-19)
(0.003 -1.46551e-19 8.69384e-20)
(0.003 -9.99194e-20 -9.17575e-20)
(0.003 1.95796e-20 -1.03461e-19)
(0.003 1.74415e-19 -2.92339e-19)
(0.003 2.19839e-19 -4.03011e-19)
(0.003 -1.25352e-19 9.86879e-19)
(0.003 -2.0072e-19 1.64759e-18)
(0.003 -2.18047e-19 1.90717e-18)
(0.003 -7.88985e-20 2.08084e-18)
(0.003 4.81221e-21 2.16551e-18)
(0.003 -1.80617e-19 2.13458e-18)
(0.003 -2.2977e-19 2.11418e-18)
(0.003 -1.26324e-19 2.15046e-18)
(0.003 4.92852e-20 2.06886e-18)
(0.003 5.80931e-20 1.88586e-18)
(0.003 5.05175e-20 1.78273e-18)
(0.003 1.17901e-19 1.75027e-18)
(0.003 1.48887e-19 1.68893e-18)
(0.003 1.91263e-19 1.59473e-18)
(0.003 6.08242e-20 1.5778e-18)
(0.003 -1.69854e-20 1.49824e-18)
(0.003 4.08156e-20 1.31823e-18)
(0.003 2.19759e-19 1.09977e-18)
(0.003 3.49847e-19 1.08105e-18)
(0.003 1.42421e-19 1.06307e-18)
(0.003 -1.34443e-19 1.10943e-18)
(0.003 -1.75313e-19 1.07671e-18)
(0.003 -7.00707e-20 1.08822e-18)
(0.003 -1.09876e-20 1.0071e-18)
(0.003 -1.0333e-19 8.39483e-19)
(0.003 -7.75295e-20 8.27133e-19)
(0.003 1.17535e-19 8.61094e-19)
(0.003 1.58851e-19 7.37231e-19)
(0.003 1.47303e-19 5.67509e-19)
(0.003 1.29536e-20 5.27031e-19)
(0.003 -3.99221e-20 5.02647e-19)
(0.003 -3.89373e-20 3.14372e-19)
(0.003 -2.29145e-20 3.31535e-19)
(0.003 -3.07113e-20 4.92344e-19)
(0.003 1.77679e-20 3.25905e-19)
(0.003 1.13468e-20 1.78244e-19)
(0.003 1.63592e-20 4.8521e-20)
(0.003 1.40197e-21 -5.52912e-20)
(0.003 1.50393e-19 -1.92984e-19)
(0.003 2.46245e-19 -2.4357e-19)
(0.003 4.33315e-20 9.86973e-19)
(0.003 2.21292e-20 1.68956e-18)
(0.003 -5.56542e-20 1.85998e-18)
(0.003 -2.00031e-19 1.91479e-18)
(0.003 -2.39471e-19 2.10582e-18)
(0.003 -2.50797e-19 2.13022e-18)
(0.003 -9.80794e-20 2.10718e-18)
(0.003 4.63149e-21 2.14755e-18)
(0.003 -3.60149e-20 2.1381e-18)
(0.003 4.09194e-20 2.01709e-18)
(0.003 1.70739e-19 1.8433e-18)
(0.003 1.39087e-19 1.78931e-18)
(0.003 1.89768e-19 1.6469e-18)
(0.003 2.60125e-19 1.66959e-18)
(0.003 3.12115e-20 1.64944e-18)
(0.003 -1.53485e-19 1.51456e-18)
(0.003 -1.83544e-19 1.27671e-18)
(0.003 -1.45958e-19 1.07599e-18)
(0.003 6.10559e-20 1.13928e-18)
(0.003 3.33209e-20 1.0553e-18)
(0.003 -1.02884e-19 1.03761e-18)
(0.003 -7.83635e-20 1.1127e-18)
(0.003 -2.57871e-20 1.19085e-18)
(0.003 1.02707e-19 1.04286e-18)
(0.003 1.35588e-19 7.79279e-19)
(0.003 -2.18464e-20 7.33297e-19)
(0.003 1.81422e-20 8.80019e-19)
(0.003 9.04897e-20 8.56771e-19)
(0.003 8.73095e-20 6.7436e-19)
(0.003 -1.7646e-20 4.55091e-19)
(0.003 -6.35985e-20 4.69681e-19)
(0.003 -1.66379e-20 3.26489e-19)
(0.003 5.85796e-20 3.26045e-19)
(0.003 3.03304e-20 4.24069e-19)
(0.003 1.1165e-19 3.68447e-19)
(0.003 1.37799e-19 2.8031e-19)
(0.003 5.6578e-20 1.05197e-19)
(0.003 -2.80292e-20 -1.93796e-19)
(0.003 -3.13036e-20 -4.00051e-19)
(0.003 2.43757e-20 -3.49014e-19)
(0.003 2.48769e-19 9.50573e-19)
(0.003 1.68656e-19 1.57689e-18)
(0.003 -1.25191e-20 1.7438e-18)
(0.003 -1.13124e-19 1.85485e-18)
(0.003 -9.78574e-20 2.06628e-18)
(0.003 -9.75749e-20 2.09674e-18)
(0.003 -4.11695e-20 2.06473e-18)
(0.003 -8.81607e-20 2.07947e-18)
(0.003 -1.64117e-19 2.09876e-18)
(0.003 -2.82607e-20 2.14167e-18)
(0.003 1.38707e-19 2.02894e-18)
(0.003 1.4758e-19 1.90361e-18)
(0.003 2.14793e-19 1.75408e-18)
(0.003 2.41568e-19 1.65452e-18)
(0.003 -3.44645e-20 1.6077e-18)
(0.003 -2.41767e-19 1.44972e-18)
(0.003 -2.09453e-19 1.20785e-18)
(0.003 -1.24877e-19 1.03799e-18)
(0.003 -1.55504e-19 1.16832e-18)
(0.003 -9.12414e-20 1.15867e-18)
(0.003 -1.12707e-19 1.07693e-18)
(0.003 -1.74151e-19 1.06689e-18)
(0.003 -4.81508e-20 1.10466e-18)
(0.003 6.35639e-20 1.04276e-18)
(0.003 2.23865e-19 9.06928e-19)
(0.003 2.08084e-19 7.54711e-19)
(0.003 -4.92945e-20 7.48638e-19)
(0.003 -2.86762e-20 7.72631e-19)
(0.003 -6.0674e-21 7.07312e-19)
(0.003 -2.26592e-20 5.21016e-19)
(0.003 -2.29127e-21 4.85832e-19)
(0.003 9.92295e-20 3.41844e-19)
(0.003 3.09744e-20 3.22921e-19)
(0.003 3.17197e-20 4.16795e-19)
(0.003 1.82175e-19 4.22411e-19)
(0.003 2.01687e-19 3.49596e-19)
(0.003 2.60782e-20 -1.4436e-20)
(0.003 -4.35377e-20 -3.24747e-19)
(0.003 -1.15093e-19 -3.65729e-19)
(0.003 -1.76515e-19 -2.16644e-19)
(0.003 2.93016e-19 9.19607e-19)
(0.003 3.18553e-19 1.60495e-18)
(0.003 4.55685e-20 1.80308e-18)
(0.003 4.86157e-20 1.82909e-18)
(0.003 5.95563e-20 2.02181e-18)
(0.003 6.63798e-20 2.06978e-18)
(0.003 -3.27539e-20 1.97692e-18)
(0.003 -1.2346e-19 2.0273e-18)
(0.003 -1.54217e-19 2.08943e-18)
(0.003 -1.62042e-19 2.14917e-18)
(0.003 -4.73362e-20 2.11195e-18)
(0.003 6.43472e-20 1.91281e-18)
(0.003 9.17341e-20 1.84628e-18)
(0.003 -9.85179e-20 1.77916e-18)
(0.003 -1.86341e-19 1.55063e-18)
(0.003 -1.83474e-19 1.40133e-18)
(0.003 -2.19639e-19 1.18559e-18)
(0.003 -1.92035e-19 1.04297e-18)
(0.003 -2.30617e-19 1.20522e-18)
(0.003 -8.27421e-20 1.1481e-18)
(0.003 -1.81267e-20 1.11015e-18)
(0.003 1.24753e-20 1.07323e-18)
(0.003 5.47999e-20 1.06795e-18)
(0.003 5.62056e-20 9.68879e-19)
(0.003 1.06985e-19 8.61512e-19)
(0.003 2.3137e-19 7.9614e-19)
(0.003 4.08591e-20 7.62021e-19)
(0.003 1.68447e-20 8.21651e-19)
(0.003 -3.13667e-20 7.281e-19)
(0.003 -5.72516e-20 5.13758e-19)
(0.003 4.05802e-20 4.55667e-19)
(0.003 1.40834e-19 3.99726e-19)
(0.003 -4.77662e-21 2.91616e-19)
(0.003 1.17228e-20 3.37763e-19)
(0.003 2.36047e-19 4.87625e-19)
(0.003 1.79205e-19 2.80017e-19)
(0.003 1.74271e-19 -2.17111e-19)
(0.003 6.21473e-20 -3.87733e-19)
(0.003 1.20582e-21 -2.26084e-19)
(0.003 1.46084e-20 -1.04674e-19)
(0.003 -2.78639e-20 1.02926e-18)
(0.003 3.81067e-20 1.69077e-18)
(0.003 1.54599e-19 1.80195e-18)
(0.003 1.35863e-19 1.8223e-18)
(0.003 -3.65142e-20 1.91813e-18)
(0.003 8.93941e-20 2.08568e-18)
(0.003 8.57247e-20 2.00017e-18)
(0.003 2.80199e-21 1.87402e-18)
(0.003 -1.24496e-19 2.01359e-18)
(0.003 -1.85122e-19 2.09462e-18)
(0.003 -1.27325e-19 2.10994e-18)
(0.003 -1.24987e-19 1.97831e-18)
(0.003 -2.77768e-19 1.86867e-18)
(0.003 -2.53119e-19 1.61529e-18)
(0.003 -1.03057e-19 1.41844e-18)
(0.003 -1.20597e-19 1.30786e-18)
(0.003 -1.87895e-19 1.18235e-18)
(0.003 -2.30151e-19 1.07967e-18)
(0.003 -2.46102e-19 1.16913e-18)
(0.003 -1.77372e-19 1.1959e-18)
(0.003 -7.19036e-20 1.18852e-18)
(0.003 1.59859e-19 1.08445e-18)
(0.003 1.11761e-19 1.0518e-18)
(0.003 1.73075e-20 9.69214e-19)
(0.003 1.23373e-19 9.41242e-19)
(0.003 8.07915e-20 9.1629e-19)
(0.003 3.99422e-20 7.96371e-19)