/*--------------------------------*- C++ -*----------------------------------*\
| =========                 |                                                 |
| \\      /  F ield         | OpenFOAM: The Open Source CFD Toolbox           |
|  \\    /   O peration     | Version:  v2012                                 |
|   \\  /    A nd           | Website:  www.openfoam.com                      |
|    \\/     M anipulation  |                                                 |
\*---------------------------------------------------------------------------*/
FoamFile
{
    version     2.0;
    format      ascii;
    class       surfaceScalarField;
    location    "640/topAir";
    object      phi;
}
// * * * * * * * * * * * * * * * * * * * * * * * * * * * * * * * * * * * * * //

dimensions      [1 0 -1 0 0 0 0];
oriented        oriented;


internalField   nonuniform List<scalar> 
3140
(
9.5044006e-06
-3.0802912e-07
7.2608297e-08
9.6904842e-06
-2.6876462e-07
8.2688263e-08
9.8673752e-06
-2.4879069e-07
7.1910013e-08
1.0009245e-05
-1.9615175e-07
5.429346e-08
1.0110201e-05
-1.3214473e-07
3.1199293e-08
1.0180012e-05
-7.3392053e-08
3.5863329e-09
1.0253302e-05
-2.6063459e-08
-4.72313e-08
1.0352839e-05
1.5716241e-08
-1.1525697e-07
1.0486637e-05
8.0642172e-08
-2.1445261e-07
1.0678141e-05
1.6532486e-07
-3.5685069e-07
1.0923904e-05
3.1177742e-07
-5.5756614e-07
1.1197106e-05
5.5638822e-07
-8.2960997e-07
1.1444937e-05
9.2878699e-07
-1.1766213e-06
1.1677797e-05
1.3663855e-06
-1.5992441e-06
1.1860799e-05
1.8608162e-06
-2.043772e-06
1.197217e-05
2.347609e-06
-2.4588492e-06
1.1996099e-05
2.7817972e-06
-2.8054726e-06
1.1933751e-05
3.1327977e-06
-3.0700534e-06
1.1811337e-05
3.3799312e-06
-3.2569691e-06
1.1672168e-05
3.5165652e-06
-3.3767041e-06
1.1556571e-05
3.5559334e-06
-3.439513e-06
1.1487875e-05
3.5235325e-06
-3.4539069e-06
1.1471366e-05
3.4441145e-06
-3.4266034e-06
1.1499219e-05
3.3360743e-06
-3.3628917e-06
1.1552926e-05
3.2126699e-06
-3.2653567e-06
1.1594219e-05
3.0893709e-06
-3.1297292e-06
1.1541915e-05
2.9938967e-06
-2.9408501e-06
1.1229203e-05
2.9835687e-06
-2.6704915e-06
1.0308964e-05
3.1923234e-06
-2.2723771e-06
3.9524732e-06
-1.6850103e-06
9.1112639e-06
-2.3002388e-07
7.96991e-08
9.0829497e-06
-3.44054e-07
1.0360286e-07
9.0870483e-06
-3.6250092e-07
1.0961134e-07
9.137231e-06
-3.572518e-07
1.1091746e-07
9.2320584e-06
-3.3395862e-07
1.0698627e-07
9.3657534e-06
-3.0275162e-07
9.5662666e-08
9.541741e-06
-2.7676127e-07
7.4702923e-08
9.7761334e-06
-2.6009333e-07
4.1329819e-08
1.0094265e-05
-2.2956947e-07
-7.9458211e-09
1.0528692e-05
-1.691097e-07
-9.9662591e-08
1.1104476e-05
-2.9948471e-08
-2.3310935e-07
1.1812541e-05
2.7448779e-07
-4.2492719e-07
1.256004e-05
8.6976023e-07
-6.8738666e-07
1.3221558e-05
1.7006387e-06
-9.9512459e-07
1.3719787e-05
2.6520138e-06
-1.2891792e-06
1.398808e-05
3.5902278e-06
-1.5108598e-06
1.401454e-05
4.3998292e-06
-1.6444335e-06
1.3846532e-05
5.0323245e-06
-1.7313228e-06
1.3569539e-05
5.4730482e-06
-1.8157261e-06
1.3275698e-05
5.7271333e-06
-1.9161124e-06
1.3025493e-05
5.8199272e-06
-2.0129659e-06
1.2840249e-05
5.7898179e-06
-2.0800406e-06
1.2717787e-05
5.6706136e-06
-2.1029022e-06
1.2644798e-05
5.4856758e-06
-2.0754071e-06
1.2602107e-05
5.2469001e-06
-1.9903394e-06
1.2553241e-05
4.9698426e-06
-1.8305169e-06
1.2421402e-05
4.69353e-06
-1.5669838e-06
1.2061164e-05
4.5088108e-06
-1.164805e-06
1.1232178e-05
4.6041814e-06
-5.8381971e-07
5.2081948e-06
2.5154235e-07
9.1679382e-06
-2.1076892e-07
8.1766485e-08
8.9965877e-06
-2.8048718e-07
1.0778262e-07
8.8110118e-06
-2.9386786e-07
1.1694163e-07
8.6235141e-06
-2.9328911e-07
1.2353394e-07
8.4465599e-06
-2.8563139e-07
1.286258e-07
8.2854224e-06
-2.7335773e-07
1.3174242e-07
8.1369953e-06
-2.6197725e-07
1.3364144e-07
7.9977418e-06
-2.5736499e-07
1.3652341e-07
7.8861704e-06
-2.6169948e-07
1.4370523e-07
7.8451219e-06
-2.8253605e-07
1.5449941e-07
7.990378e-06
-3.3546764e-07
1.6032623e-07
8.4871436e-06
-3.6046896e-07
1.3851529e-07
9.401182e-06
-1.1344476e-07
6.9175486e-08
1.0613635e-05
5.0960837e-07
-2.2124778e-08
1.1706434e-05
1.606333e-06
-4.8513221e-08
1.2507244e-05
2.7362723e-06
5.114703e-08
1.2923072e-05
3.6131537e-06
3.6876909e-07
1.302553e-05
4.2491833e-06
6.7886661e-07
1.2941616e-05
4.6741769e-06
8.8138377e-07
1.2799817e-05
4.9142151e-06
9.5375158e-07
1.2675805e-05
4.9911677e-06
9.5218343e-07
1.2581575e-05
4.928904e-06
9.548453e-07
1.2504518e-05
4.7640646e-06
9.8350571e-07
1.2421268e-05
4.5302926e-06
1.0386436e-06
1.2319618e-05
4.2540484e-06
1.0945455e-06
1.2186972e-05
3.9555573e-06
1.1469316e-06
1.1997624e-05
3.666685e-06
1.2160445e-06
1.1717676e-05
3.4593255e-06
1.3289334e-06
1.1259632e-05
3.5085455e-06
1.5524014e-06
4.1759971e-06
1.8468297e-06
8.9783106e-06
7.9871968e-08
8.5931542e-06
1.0466824e-07
8.1865933e-06
1.1269208e-07
7.7757094e-06
1.1759372e-07
7.3692917e-06
1.2078535e-07
6.9737162e-06
1.2221667e-07
6.5886991e-06
1.2303889e-07
6.2058961e-06
1.2543684e-07
5.8112168e-06
1.3297909e-07
5.3781425e-06
1.5053778e-07
4.85445e-06
1.8822398e-07
4.2294626e-06
2.6450503e-07
3.717321e-06
3.9854809e-07
3.6403469e-06
5.8528238e-07
4.3438656e-06
9.0001637e-07
5.5273189e-06
1.5495321e-06
6.5368754e-06
2.6005063e-06
7.3244979e-06
3.4590062e-06
7.9691547e-06
4.0276074e-06
8.5385563e-06
4.3434891e-06
9.0498453e-06
4.4790252e-06
9.4965525e-06
4.4816886e-06
9.851556e-06
4.408792e-06
1.0094831e-05
4.286899e-06
1.0222438e-05
4.1264008e-06
1.0252702e-05
3.9252595e-06
1.0223709e-05
3.6955741e-06
1.0251652e-05
3.4310711e-06
1.0637281e-05
3.1220967e-06
2.4660583e-06
9.6165216e-06
-3.0769148e-07
3.2757791e-08
9.9180626e-06
-2.6986212e-07
5.1016086e-08
1.0198483e-05
-2.6256254e-07
5.4060859e-08
1.0431097e-05
-2.2757572e-07
4.9263958e-08
1.060926e-05
-1.8578689e-07
3.8832466e-08
1.0745412e-05
-1.5414685e-07
2.1585154e-08
1.0844252e-05
-1.4043496e-07
-5.6432665e-09
1.0913667e-05
-1.4844328e-07
-3.6254035e-08
1.0964047e-05
-1.838422e-07
-8.1043649e-08
1.1003905e-05
-2.534284e-07
-1.4337839e-07
1.1043348e-05
-3.6836495e-07
-2.2879341e-07
1.1095504e-05
-5.4041307e-07
-3.4155079e-07
1.1181603e-05
-7.8232692e-07
-4.8065331e-07
1.1385496e-05
-1.1614437e-06
-6.420564e-07
1.1698335e-05
-1.5631805e-06
-7.9386186e-07
1.2065831e-05
-1.8991837e-06
-9.275828e-07
1.2391057e-05
-2.0706455e-06
-1.0603981e-06
1.2600574e-05
-2.0676254e-06
-1.2121538e-06
1.2680713e-05
-1.9549896e-06
-1.3821504e-06
1.2671889e-05
-1.8150023e-06
-1.5527241e-06
1.2628088e-05
-1.6939002e-06
-1.7014925e-06
1.2587162e-05
-1.5966353e-06
-1.815896e-06
1.2565149e-05
-1.5156258e-06
-1.8884232e-06
1.2566321e-05
-1.4465493e-06
-1.9169221e-06
1.2596752e-05
-1.3911467e-06
-1.9040345e-06
1.266078e-05
-1.3437275e-06
-1.8494854e-06
1.2746617e-05
-1.2848207e-06
-1.7415581e-06
1.280403e-05
-1.1588159e-06
-1.5694181e-06
1.2704631e-05
-8.187063e-07
-1.3558533e-06
1.5667266e-07
-1.1224402e-06
9.2363532e-06
-2.3156426e-07
3.61868e-08
9.3552399e-06
-3.4811261e-07
6.2965947e-08
9.4999127e-06
-3.7183686e-07
7.4212381e-08
9.6838625e-06
-3.7730121e-07
7.6692811e-08
9.9030444e-06
-3.7107577e-07
7.3092563e-08
1.0145282e-05
-3.6301309e-07
6.2289271e-08
1.0402354e-05
-3.6483567e-07
4.2026489e-08
1.0672039e-05
-3.8679167e-07
9.9803543e-09
1.0960591e-05
-4.3992543e-07
-4.0435103e-08
1.1264213e-05
-5.4355186e-07
-1.1318906e-07
1.1597742e-05
-7.2020587e-07
-2.1482588e-07
1.1981098e-05
-9.9950093e-07
-3.4922912e-07
1.2443524e-05
-1.4219989e-06
-5.1019047e-07
1.2966849e-05
-2.0116283e-06
-6.6835223e-07
1.3524575e-05
-2.6194466e-06
-7.9073829e-07
1.4010783e-05
-2.9892456e-06
-9.0705548e-07
1.4319895e-05
-2.9443974e-06
-1.0798065e-06
1.441455e-05
-2.5788718e-06
-1.3147171e-06
1.4329774e-05
-2.1092731e-06
-1.5766216e-06
1.4152135e-05
-1.726058e-06
-1.8273285e-06
1.3957049e-05
-1.4743287e-06
-2.0372861e-06
1.3761926e-05
-1.295884e-06
-2.1853802e-06
1.356555e-05
-1.1680483e-06
-2.2536362e-06
1.3370584e-05
-1.0886962e-06
-2.2375896e-06
1.3210291e-05
-1.0814088e-06
-2.1387442e-06
1.3146435e-05
-1.1544759e-06
-1.9543752e-06
1.3275729e-05
-1.309344e-06
-1.669505e-06
1.3834029e-05
-1.5613491e-06
-1.3172505e-06
1.553836e-05
-1.9614945e-06
-1.1404191e-06
-2.3040194e-06
-1.32125e-06
9.2954599e-06
-2.131663e-07
3.6868285e-08
9.2745112e-06
-2.8422328e-07
6.4840924e-08
9.2408772e-06
-2.9949041e-07
7.8228011e-08
9.2066349e-06
-3.0318455e-07
8.365849e-08
9.1824554e-06
-3.0234843e-07
8.4076731e-08
9.1716217e-06
-2.9935842e-07
7.8920092e-08
9.173743e-06
-3.0019005e-07
6.6872899e-08
9.1886193e-06
-3.1198278e-07
4.6836151e-08
9.2166629e-06
-3.4327052e-07
1.9004251e-08
9.2642218e-06
-4.1006773e-07
-2.6545111e-08
9.3462808e-06
-5.4089193e-07
-1.0104554e-07
9.4771179e-06
-7.8290943e-07
-2.0889929e-07
9.6799333e-06
-1.2043296e-06
-3.5126157e-07
9.9757759e-06
-1.8436688e-06
-4.8590452e-07
1.0305334e-05
-2.4670169e-06
-5.3042377e-07
1.0571931e-05
-2.7183474e-06
-4.860127e-07
1.0803279e-05
-2.4132106e-06
-3.9353431e-07
1.0914329e-05
-1.7173903e-06
-2.9357733e-07
1.0924633e-05
-9.4993809e-07
-2.8824659e-07
1.085709e-05
-2.9685189e-07
-4.0795655e-07
1.0793098e-05
5.2082272e-08
-5.1023048e-07
1.0760831e-05
1.8600395e-07
-4.9465954e-07
1.0750933e-05
1.8247401e-07
-3.5691809e-07
1.0724661e-05
9.5691249e-08
-1.1921663e-07
1.0662409e-05
-4.9246659e-08
1.2523766e-07
1.0543401e-05
-2.5948487e-07
3.7218816e-07
1.0452833e-05
-6.1558911e-07
6.1461999e-07
1.0521533e-05
-1.0022913e-06
7.0338791e-07
1.1227814e-05
-1.4283576e-06
3.1545017e-07
-1.7931586e-06
-8.045827e-07
9.0998236e-06
3.5833517e-08
8.8576751e-06
6.2592413e-08
8.5958218e-06
7.5054015e-08
8.3305619e-06
7.9668035e-08
8.0697528e-06
7.9245029e-08
7.8193635e-06
7.3246456e-08
7.581775e-06
6.0436381e-08
7.3555016e-06
3.9726304e-08
7.1337677e-06
1.1441328e-08
6.9141389e-06
-3.9902443e-08
6.6792336e-06
-1.1776401e-07
6.3996513e-06
-2.3882489e-07
6.0417025e-06
-4.4783642e-07
5.5809381e-06
-7.9755044e-07
5.1262661e-06
-1.1120329e-06
4.8953521e-06
-9.3804951e-07
4.9181838e-06
1.6333753e-07
4.9695642e-06
1.6890093e-06
5.1358145e-06
2.9106858e-06
5.5476413e-06
3.6345711e-06
6.0639477e-06
4.0148545e-06
6.5667111e-06
4.1651903e-06
6.9807029e-06
4.1777483e-06
7.2783491e-06
4.0856504e-06
7.4690385e-06
3.887127e-06
7.588856e-06
3.5465253e-06
7.6156123e-06
3.05368e-06
7.6937653e-06
2.3508979e-06
8.4393464e-06
9.4823127e-07
-1.4315015e-06
9.5938713e-06
-3.0961855e-07
1.7484354e-08
9.8862311e-06
-2.7031324e-07
2.8975265e-08
1.016582e-05
-2.5930219e-07
3.3782241e-08
1.040074e-05
-2.1970034e-07
3.4053403e-08
1.0581348e-05
-1.7318119e-07
3.1414097e-08
1.0713319e-05
-1.3684363e-07
2.6466349e-08
1.0803202e-05
-1.1490692e-07
1.9388395e-08
1.0863391e-05
-1.0663012e-07
1.0187685e-08
1.089951e-05
-1.147038e-07
-2.482411e-09
1.0917164e-05
-1.457363e-07
-1.5358856e-08
1.092775e-05
-2.1000474e-07
-2.9502016e-08
1.095077e-05
-3.2515375e-07
-3.9652379e-08
1.1022792e-05
-5.1812449e-07
-3.4935605e-08
1.1239765e-05
-8.6033584e-07
8.9127278e-10
1.1525573e-05
-1.1859865e-06
1.0630119e-07
1.1780468e-05
-1.4179192e-06
2.3611681e-07
1.1942447e-05
-1.574645e-06
3.536965e-07
1.2015977e-05
-1.7248346e-06
4.4119481e-07
1.2024437e-05
-1.8873794e-06
4.9922389e-07
1.1992408e-05
-2.0547419e-06
5.3670314e-07
1.1948324e-05
-2.2214601e-06
5.6670403e-07
1.1904256e-05
-2.3718721e-06
6.0252564e-07
1.1849937e-05
-2.4844381e-06
6.5254406e-07
1.1771021e-05
-2.5508641e-06
7.1477285e-07
1.166925e-05
-2.5833459e-06
7.8274911e-07
1.157867e-05
-2.6117124e-06
8.5430307e-07
1.1583976e-05
-2.6624191e-06
9.168966e-07
1.1805033e-05
-2.6933362e-06
9.03911e-07
1.2163601e-05
-2.3564023e-06
6.4251601e-07
-1.1418108e-06
-3.5358229e-08
9.2082226e-06
-2.3140749e-07
1.8721281e-08
9.3143915e-06
-3.4719719e-07
3.3680171e-08
9.4564881e-06
-3.687404e-07
4.1553596e-08
9.6406342e-06
-3.7050755e-07
4.3353843e-08
9.8594015e-06
-3.5906132e-07
4.020526e-08
1.0097116e-05
-3.4405821e-07
3.1788749e-08
1.0343137e-05
-3.3569796e-07
1.6794079e-08
1.0594502e-05
-3.4151013e-07
-6.5104646e-09
1.0849891e-05
-3.7071568e-07
-3.9827791e-08
1.1114649e-05
-4.3743232e-07
-8.6284508e-08
1.1403734e-05
-5.6808447e-07
-1.4589756e-07
1.1751394e-05
-8.1028163e-07
-2.1188647e-07
1.221576e-05
-1.232173e-06
-2.6071088e-07
1.2748575e-05
-1.815214e-06
-2.4643065e-07
1.318985e-05
-2.2269271e-06
-1.9091685e-07
1.3386807e-05
-2.322715e-06
-1.9880077e-07
1.3328905e-05
-2.2820747e-06
-3.1398142e-07
1.3117483e-05
-2.3033032e-06
-5.2438823e-07
1.2803401e-05
-2.3487706e-06
-8.0080319e-07
1.242795e-05
-2.4082776e-06
-1.0980842e-06
1.2021163e-05
-2.494635e-06
-1.3571076e-06
1.1581667e-05
-2.5857106e-06
-1.5317924e-06
1.1089983e-05
-2.6431841e-06
-1.6028128e-06
1.0539298e-05
-2.6631644e-06
-1.5739199e-06
9.9437942e-06
-2.6824198e-06
-1.4429358e-06
9.3829641e-06
-2.7967063e-06
-1.2064194e-06
9.1246945e-06
-3.1055336e-06
-9.6460147e-07
9.6168061e-06
-3.5891113e-06
-9.0806853e-07
1.1255643e-05
-3.7812728e-06
-1.3466787e-06
-3.1325294e-06
-2.2433319e-06
9.2683431e-06
-2.1284522e-07
1.8922536e-08
9.2353482e-06
-2.8355713e-07
3.4194736e-08
9.1997457e-06
-2.9772583e-07
4.2814796e-08
9.1672446e-06
-2.9983012e-07
4.5481086e-08
9.1461716e-06
-2.9689605e-07
4.2983217e-08
9.1374594e-06
-2.9105656e-07
3.4629502e-08
9.1377394e-06
-2.87694e-07
1.8587593e-08
9.1438648e-06
-2.929933e-07
-7.8078671e-09
9.1551323e-06
-3.1461408e-07
-4.8367753e-08
9.1679407e-06
-3.6747495e-07
-1.0931578e-07
9.178936e-06
-4.837339e-07
-1.9640104e-07
9.1983684e-06
-7.2816677e-07
-3.1046518e-07
9.2801246e-06
-1.2330065e-06
-4.3219024e-07
9.4365854e-06
-1.9878974e-06
-4.6934102e-07
9.3168136e-06
-2.2618903e-06
-3.7487303e-07
8.8461092e-06
-1.956456e-06
-3.8100427e-07
8.1665609e-06
-1.4447848e-06
-5.5142378e-07
7.678899e-06
-1.3321052e-06
-7.777655e-07
7.2151375e-06
-1.0862347e-06
-1.0877719e-06
6.6977765e-06
-8.7923446e-07
-1.4203857e-06
6.13659e-06
-7.9909277e-07
-1.6452047e-06
5.5649213e-06
-8.4102339e-07
-1.6680047e-06
5.0137021e-06
-9.5554638e-07
-1.4932127e-06
4.5455464e-06
-1.1216224e-06
-1.1917498e-06
4.1527242e-06
-1.3582241e-06
-8.041197e-07
3.8983249e-06
-1.7191128e-06
-4.478824e-07
4.0531996e-06
-2.2503998e-06
-3.9143537e-07
4.757364e-06
-2.9857668e-06
-5.9905019e-07
6.0733651e-06
-3.2966113e-06
-1.4762367e-06
-2.4194051e-06
-3.1286561e-06
9.0734746e-06
1.846516e-08
8.8193383e-06
3.3170573e-08
8.5553923e-06
4.1273152e-08
8.291766e-06
4.3463233e-08
8.0336531e-06
4.0460857e-08
7.7843876e-06
3.1454385e-08
7.5429402e-06
1.4188727e-08
7.3042282e-06
-1.4556028e-08
7.0620219e-06
-6.0967552e-08
6.7918352e-06
-1.3719193e-07
6.4520782e-06
-2.6174173e-07
5.9574605e-06
-4.7236685e-07
5.1270212e-06
-8.5025895e-07
3.7958479e-06
-1.4526414e-06
2.3007388e-06
-1.8753431e-06
1.1500237e-06
-1.7416638e-06
1.2342765e-06
-1.365125e-06
1.5839259e-06
5.779032e-09
2.015038e-06
1.3935977e-06
2.5290088e-06
2.2425601e-06
3.0664324e-06
2.6798072e-06
3.5294923e-06
2.8625971e-06
3.8603629e-06
2.8928334e-06
4.0026141e-06
2.8233755e-06
3.8585587e-06
2.674592e-06
3.4738465e-06
2.2138154e-06
3.0207613e-06
1.258236e-06
2.5335137e-06
-1.4592744e-07
2.0483753e-06
-1.8559821e-06
-4.3975031e-06
9.588381e-06
-3.0989858e-07
7.981322e-09
9.8733803e-06
-2.6982644e-07
1.3807468e-08
1.0147097e-05
-2.5698386e-07
1.7057084e-08
1.0377242e-05
-2.1434398e-07
1.8260206e-08
1.0553576e-05
-1.6287398e-07
1.7963586e-08
1.0682253e-05
-1.1862869e-07
1.642705e-08
1.0772593e-05
-8.4612696e-08
1.3670674e-08
1.0833038e-05
-6.0021651e-08
9.7658059e-09
1.0870863e-05
-4.5439494e-08
5.130997e-09
1.0898763e-05
-4.3681131e-08
4.1063036e-10
1.0938812e-05
-6.4487341e-08
-5.1241372e-09
1.103315e-05
-1.2995113e-07
-4.2060644e-09
1.1249998e-05
-2.6585881e-07
1.3756325e-08
1.1621311e-05
-4.4063739e-07
7.0034986e-08
1.198458e-05
-4.054578e-07
1.4872855e-07
1.2230704e-05
-2.3850708e-07
2.293001e-07
1.2363802e-05
-9.5401462e-08
3.1730251e-07
1.2436808e-05
-5.3359135e-08
4.2324859e-07
1.2487738e-05
-1.023513e-07
5.5276981e-07
1.2547287e-05
-2.3018424e-07
7.0991419e-07
1.262925e-05
-4.1020222e-07
8.9794564e-07
1.2717095e-05
-5.9899806e-07
1.1170012e-06
1.2776771e-05
-7.6779501e-07
1.3640671e-06
1.279446e-05
-9.2253187e-07
1.6228181e-06
1.2788376e-05
-1.0696253e-06
1.8612342e-06
1.2767187e-05
-1.1514466e-06
2.0291959e-06
1.264822e-05
-1.0257157e-06
2.0633754e-06
1.2217033e-05
-5.6329174e-07
1.8996425e-06
1.0967664e-05
4.148353e-07
1.4759834e-06
2.5867289e-06
7.2676367e-07
9.2006983e-06
-2.3124014e-07
8.3326568e-09
9.2954963e-06
-3.4662566e-07
1.5680684e-08
9.4268186e-06
-3.670703e-07
2.0317256e-08
9.6003774e-06
-3.6664989e-07
2.2100852e-08
9.8077115e-06
-3.5124116e-07
2.1238393e-08
1.0032823e-05
-3.2955608e-07
1.7604862e-08
1.0264834e-05
-3.105669e-07
1.0736294e-08
1.049837e-05
-3.0067398e-07
6.0322005e-10
1.0736983e-05
-3.0739884e-07
-1.6492544e-08
1.0992036e-05
-3.4684518e-07
-3.8203412e-08
1.1297634e-05
-4.5338189e-07
-6.2673547e-08
1.1728686e-05
-6.9374723e-07
-7.9301092e-08
1.2406741e-05
-1.1379521e-06
-6.6917194e-08
1.3197363e-05
-1.4696372e-06
-8.0397059e-09
1.3775584e-05
-1.2423995e-06
6.8084179e-08
1.4135048e-05
-8.7130129e-07
7.4954296e-08
1.430768e-05
-6.3330308e-07
5.1802772e-08
1.4329648e-05
-6.0603599e-07
6.890966e-09
1.4220576e-05
-7.3424933e-07
-5.917561e-08
1.4010197e-05
-9.7297374e-07
-1.4413376e-07
1.3714041e-05
-1.23627e-06
-2.3400922e-07
1.3320783e-05
-1.4456843e-06
-2.9110135e-07
1.2794477e-05
-1.5711654e-06
-2.7294087e-07
1.2151912e-05
-1.6708291e-06
-1.8397991e-07
1.1519465e-05
-1.8228797e-06
-5.9842626e-08
1.1134774e-05
-2.0033906e-06
2.5451701e-08
1.1094705e-05
-1.9127786e-06
-4.4561607e-08
1.1253645e-05
-1.241165e-06
-3.9779866e-07
1.1352919e-05
-4.1535818e-08
-9.9502843e-07
1.8296243e-06
-1.7604256e-06
9.2611595e-06
-2.1283431e-07
8.3168461e-09
9.2166225e-06
-2.8356692e-07
1.5671931e-08
9.1693007e-06
-2.9738608e-07
2.045117e-08
9.1243943e-06
-2.9861807e-07
2.2354653e-08
9.0889271e-06
-2.9413209e-07
2.1340164e-08
9.0627478e-06
-2.8573411e-07
1.6985753e-08
9.0406754e-06
-2.7844141e-07
8.533302e-09
9.0168818e-06
-2.7866384e-07
-6.0258958e-09
8.9862707e-06
-2.9511158e-07
-3.0046566e-08
8.9429291e-06
-3.4708979e-07
-6.5735002e-08
8.8899546e-06
-4.8064369e-07
-1.1617747e-07
8.8713773e-06
-8.1127728e-07
-1.7438324e-07
9.085688e-06
-1.5856347e-06
-1.987627e-07
9.4830562e-06
-2.1971365e-06
-1.3826406e-07
9.3261735e-06
-1.3938011e-06
-6.6237324e-08
8.8565053e-06
-7.0093343e-07
-8.224719e-08
8.2224897e-06
-3.6340125e-07
-1.8856519e-07
7.4525861e-06
-2.3859831e-07
-3.7681419e-07
6.6418006e-06
-3.8804417e-07
-6.2468852e-07
5.7896885e-06
-6.2063504e-07
-9.2192152e-07
4.9380046e-06
-8.6996305e-07
-1.1608753e-06
4.1388873e-06
-1.1187962e-06
-1.1968025e-06
3.4059537e-06
-1.3341164e-06
-9.9870944e-07
2.7782627e-06
-1.5575734e-06
-6.7842185e-07
2.4280125e-06
-1.8709219e-06
-4.0550824e-07
2.7068686e-06
-2.3200038e-06
-4.0830576e-07
3.6661144e-06
-2.393019e-06
-8.6702697e-07
4.9707809e-06
-1.5551895e-06
-1.5857327e-06
5.9132313e-06
-8.1313847e-08
-2.3752999e-06
1.3463819e-06
-3.1112924e-06
9.0665097e-06
8.0725406e-09
8.8010315e-06
1.5080915e-08
8.5254339e-06
1.9483676e-08
8.2493168e-06
2.0961221e-08
7.9762354e-06
1.9409218e-08
7.7076285e-06
1.4326114e-08
7.4384011e-06
4.9736904e-09
7.1583137e-06
-1.3133474e-08
6.8458764e-06
-4.3642942e-08
6.4568193e-06
-9.5225626e-08
5.9000885e-06
-1.8565437e-07
4.9701993e-06
-3.5372917e-07
3.2371723e-06
-7.0241528e-07
8.6648716e-07
-1.2744186e-06
-1.1740608e-06
-1.2245165e-06
-2.5754008e-06
-1.0417412e-06
-3.4539699e-06
-8.5072281e-07
-3.2179062e-06
-4.6907996e-07
-2.4224543e-06
2.116556e-07
-1.5260418e-06
7.2796189e-07
-7.559806e-07
1.0424495e-06
-2.1269522e-07
1.203085e-06
8.9663788e-08
1.2579888e-06
1.0460649e-07
1.2532174e-06
-3.2074477e-07
1.2329998e-06
-1.2066423e-06
7.8441784e-07
-1.7839777e-06
-5.4913849e-07
-1.390905e-06
-2.0835816e-06
-1.3908756e-07
-3.1848092e-06
-3.9549762e-06
9.585574e-06
-3.1036482e-07
1.7515347e-09
9.8668578e-06
-2.7047045e-07
2.9983681e-09
1.0137336e-05
-2.5759677e-07
4.1813721e-09
1.0364872e-05
-2.1471235e-07
5.4435457e-09
1.0538791e-05
-1.6279608e-07
6.8480001e-09
1.0664793e-05
-1.1804606e-07
8.4774671e-09
1.0751694e-05
-8.3696457e-08
1.0471887e-08
1.0807795e-05
-5.9214321e-08
1.288397e-08
1.0842513e-05
-4.5406233e-08
1.5809363e-08
1.0871658e-05
-4.8068756e-08
1.928391e-08
1.0926276e-05
-8.2756038e-08
2.2885277e-08
1.1074986e-05
-1.7861445e-07
2.5418846e-08
1.140476e-05
-3.3927854e-07
2.2859888e-08
1.1847279e-05
-3.869227e-07
1.4225469e-08
1.2213479e-05
-2.2343164e-07
6.0934008e-09
1.2470162e-05
-2.595728e-08
-9.1642642e-10
1.2655133e-05
1.393653e-07
-6.5064338e-09
1.2797374e-05
2.9057915e-07
-8.9968449e-09
1.2934924e-05
4.2473955e-07
-8.8769307e-09
1.3099356e-05
5.5133165e-07
-5.1255214e-09
1.3301985e-05
6.9315958e-07
2.957928e-09
1.351642e-05
8.9125103e-07
1.2161104e-08
1.3683141e-05
1.1764183e-06
2.1742146e-08
1.375491e-05
1.5214075e-06
3.0278756e-08
1.3690304e-05
1.8850352e-06
4.1050357e-08
1.3422807e-05
2.2438167e-06
5.2481569e-08
1.2800407e-05
2.6240947e-06
6.0525209e-08
1.1557903e-05
3.0795031e-06
6.0933854e-08
9.2902512e-06
3.6956846e-06
4.6348207e-08
4.8554605e-06
1.1760909e-08
9.1965721e-06
-2.3136546e-07
1.7293909e-09
9.2855044e-06
-3.468786e-07
3.1557114e-09
9.4108348e-06
-3.672762e-07
4.6658174e-09
9.5784396e-06
-3.6663227e-07
6.4157914e-09
9.7791852e-06
-3.5079879e-07
8.4955188e-09
9.9962492e-06
-3.2855085e-07
1.1045636e-08
1.0218085e-05
-3.0912892e-07
1.4331492e-08
1.0440579e-05
-2.994307e-07
1.8321664e-08
1.0665229e-05
-3.0958929e-07
2.302992e-08
1.09114e-05
-3.6116512e-07
2.8690889e-08
1.1234471e-05
-5.0279752e-07
3.4214159e-08
1.1763868e-05
-8.2290614e-07
3.5412077e-08
1.2655695e-05
-1.3242412e-06
2.5997634e-08
1.3396957e-05
-1.1423223e-06
6.0637894e-09
1.3948576e-05
-6.9676972e-07
-1.0105377e-08
1.4369066e-05
-3.6062755e-07
-1.0664861e-08
1.4694762e-05
-1.2668889e-07
-6.7116191e-09
1.493037e-05
6.3306509e-08
7.4835513e-10
1.5131024e-05
1.5506866e-07
1.3718502e-08
1.5356508e-05
1.6080428e-07
2.7366251e-08
1.5642961e-05
1.4111081e-07
4.1629004e-08
1.595905e-05
2.4757081e-07
5.086582e-08
1.6165811e-05
6.6363299e-07
5.1723054e-08
1.6232604e-05
1.2411927e-06
5.1416246e-08
1.612249e-05
1.9051895e-06
5.4001879e-08
1.5769944e-05
2.5830396e-06
6.3105159e-08
1.4961381e-05
3.3378458e-06
7.3849478e-08
1.3429828e-05
4.1621451e-06
7.2840118e-08
1.0907864e-05
5.1874291e-06
5.3698387e-08
6.5986956e-06
1.6230222e-08
9.2570482e-06
-2.1286203e-07
1.7249206e-09
9.2063572e-06
-2.8366726e-07
3.1504474e-09
9.1522807e-06
-2.9744897e-07
4.6993076e-09
9.0999766e-06
-2.9853015e-07
6.5555624e-09
9.0554981e-06
-2.9384377e-07
8.8625446e-09
9.0173944e-06
-2.8531931e-07
1.1856865e-08
8.9792197e-06
-2.7828899e-07
1.5866951e-08
8.9322989e-06
-2.7960489e-07
2.1067843e-08
8.8657089e-06
-3.0113451e-07
2.8086431e-08
8.7703457e-06
-3.6944379e-07
3.7902206e-08
8.6539652e-06
-5.5351003e-07
5.0902958e-08
8.6373357e-06
-1.0439779e-06
6.3299337e-08
9.279943e-06
-2.2162869e-06
5.0888144e-08
9.4011456e-06
-1.4163249e-06
1.4797016e-08
9.2110099e-06
-5.7117398e-07
-2.0155959e-09
8.9517734e-06
-1.9962493e-07
1.5305851e-08
8.5093194e-06
7.9458183e-08
4.7024138e-08
7.9208325e-06
1.9532909e-07
7.9331152e-08
7.235813e-06
1.0020577e-07
1.1578001e-07
6.4192628e-06
-1.0756166e-07
1.6442983e-07
5.5818744e-06
-3.805375e-07
2.0026724e-07
5.1662241e-06
-7.2884957e-07
1.965951e-07
5.5515029e-06
-8.7992347e-07
1.5863542e-07
6.7469305e-06
-7.556988e-07
1.2195188e-07
8.3169628e-06
-1.8134346e-07
1.1271257e-07
9.773177e-06
6.2599192e-07
1.0102106e-07
1.0362089e-05
1.8004587e-06
9.5090157e-08
1.0097456e-05
2.7739106e-06
8.390113e-08
8.8593247e-06
4.0127459e-06
5.4920631e-08
5.5668353e-06
2.9619852e-08
9.0624695e-06
1.6924625e-09
8.7908043e-06
3.0778082e-09
8.5082469e-06
4.591188e-09
8.2242455e-06
6.4314128e-09
7.9410282e-06
8.7817633e-09
7.6580522e-06
1.1981796e-08
7.3683268e-06
1.6409129e-08
7.0530755e-06
2.2512013e-08
6.6765235e-06
3.1773673e-08
6.1649852e-06
4.686823e-08
5.3530016e-06
7.2821877e-08
3.8362336e-06
1.191254e-07
7.2155404e-07
1.9702731e-07
-2.173634e-06
2.1257069e-07
-4.0634593e-06
9.4361077e-08
-5.3939862e-06
8.8827343e-08
-6.2698009e-06
1.044516e-07
-6.6513472e-06
1.0794422e-07
-6.4062391e-06
6.6669058e-08
-5.767856e-06
-1.6989302e-08
-5.0145978e-06
-9.0110686e-08
-4.3785101e-06
-1.6085592e-07
-3.7865642e-06
-2.1341808e-07
-3.0582316e-06
-2.3081606e-07
-1.8225063e-06
-1.8464308e-07
-3.538561e-07
-6.0249712e-08
9.8480138e-07
-8.2349999e-08
1.7379032e-06
-5.962471e-08
2.5072286e-06
6.1921761e-08
4.6828518e-07
9.5857631e-06
-3.1039723e-07
-4.634915e-09
9.8672921e-06
-2.704801e-07
-8.0469737e-09
1.0138099e-05
-2.5759823e-07
-9.0222676e-09
1.0366097e-05
-2.1470312e-07
-7.8456975e-09
1.0540693e-05
-1.6274942e-07
-4.99406e-09
1.0667834e-05
-1.1787823e-07
-7.8254527e-10
1.0756227e-05
-8.3196068e-08
5.277084e-09
1.0814329e-05
-5.8114104e-08
1.2900733e-08
1.0851241e-05
-4.3303995e-08
2.2211581e-08
1.0881025e-05
-4.3513378e-08
3.3041465e-08
1.0932018e-05
-7.1900953e-08
4.3872767e-08
1.1063375e-05
-1.5554659e-07
4.9804368e-08
1.1358412e-05
-3.0985905e-07
3.7998745e-08
1.1798118e-05
-4.1524465e-07
-1.0111914e-08
1.2179201e-05
-2.8785723e-07
-8.7422235e-08
1.2444349e-05
-9.0545123e-08
-1.7624415e-07
1.2629444e-05
7.3288077e-08
-2.6561823e-07
1.2775081e-05
2.0912601e-07
-3.6450722e-07
1.2922153e-05
3.2511832e-07
-4.818489e-07
1.3105682e-05
4.3494017e-07
-6.2442952e-07
1.3331195e-05
5.7769004e-07
-8.0115541e-07
1.35673e-05
7.9379889e-07
-1.0187711e-06
1.3754455e-05
1.1038636e-06
-1.2704982e-06
1.384389e-05
1.4762206e-06
-1.5368636e-06
1.3792432e-05
1.872344e-06
-1.7816622e-06
1.3528854e-05
2.2671532e-06
-1.9533194e-06
1.2893227e-05
2.6842922e-06
-1.9908314e-06
1.1615679e-05
3.1656766e-06
-1.8303823e-06
9.2885054e-06
3.7817442e-06
-1.4127736e-06
4.8952733e-06
-7.0435319e-07
9.1967293e-06
-2.313685e-07
-5.0604578e-09
9.2859863e-06
-3.4686876e-07
-9.713504e-09
9.4118123e-06
-3.672298e-07
-1.1529118e-08
9.5801719e-06
-3.6652828e-07
-1.0118887e-08
9.782146e-06
-3.5057601e-07
-5.6518294e-09
1.0001496e-05
-3.2801788e-07
1.8354908e-09
1.0226111e-05
-3.0796749e-07
1.4489716e-08
1.0451817e-05
-2.9704207e-07
3.1545767e-08
1.0681095e-05
-3.0421689e-07
5.4673331e-08
1.0930814e-05
-3.4873819e-07
8.42193e-08
1.1249242e-05
-4.7362204e-07
1.1756943e-07
1.1744703e-05
-7.6013063e-07
1.446796e-07
1.2564758e-05
-1.2436822e-06
1.3996608e-07
1.3355745e-05
-1.2685554e-06
6.8348291e-08
1.3913269e-05
-8.4032078e-07
-1.536933e-08
1.4324214e-05
-4.6934315e-07
-4.3140412e-08
1.4651127e-05
-2.3880248e-07
-2.2971271e-08
1.4917813e-05
-9.3016745e-08
3.3051963e-08
1.514701e-05
-4.9948312e-09
1.0923749e-07
1.540481e-05
-1.651741e-08
2.1209844e-07
1.570984e-05
-1.4436734e-08
3.1573596e-07
1.6029058e-05
1.3106544e-07
3.7755314e-07
1.6243705e-05
5.6259502e-07
3.5821239e-07
1.6327059e-05
1.1544185e-06
2.6807542e-07
1.622712e-05
1.8536621e-06
1.5127676e-07
1.5869634e-05
2.5790867e-06
8.9792726e-08
1.502127e-05
3.4107576e-06
1.8017497e-07
1.3406846e-05
4.2901514e-06
5.5130573e-07
1.0724452e-05
5.3319927e-06
1.1783048e-06
6.7411395e-06
1.947803e-06
9.2572239e-06
-2.1285543e-07
-5.0523676e-09
9.2068705e-06
-2.8364909e-07
-9.7169548e-09
9.1533614e-06
-2.9740144e-07
-1.1621072e-08
9.1020101e-06
-2.9842939e-07
-1.019303e-08
9.0592734e-06
-2.9363094e-07
-5.347002e-09
9.0243393e-06
-2.8478921e-07
3.5614218e-09
8.9905224e-06
-2.7715435e-07
1.8869713e-08
8.9507146e-06
-2.7729238e-07
4.1125344e-08
8.8966729e-06
-2.9566055e-07
7.357187e-08
8.8217056e-06
-3.556644e-07
1.1979804e-07
8.7327633e-06
-5.165629e-07
1.8279481e-07
8.7157393e-06
-9.3788327e-07
2.5809319e-07
9.1524212e-06
-1.9444302e-06
3.1483558e-07
9.4962694e-06
-1.8548747e-06
2.5661813e-07
9.2499531e-06
-7.3222742e-07
1.3632518e-07
8.9804594e-06
-3.3267326e-07
1.4889877e-07
8.5610279e-06
-2.3970133e-08
2.52635e-07
7.9871223e-06
1.0349178e-07
4.5768086e-07
7.3516667e-06
1.2519094e-08
7.3365035e-07
6.6270635e-06
-1.757395e-07
1.0476806e-06
6.0002423e-06
-4.7363976e-07
1.2845975e-06
5.8246778e-06
-7.9663422e-07
1.2986801e-06
6.3811364e-06
-9.1837056e-07
1.0837144e-06
7.6562572e-06
-7.6805217e-07
7.6988347e-07
9.1865219e-06
-1.3570063e-07
5.694135e-07
1.0515147e-05
7.0927434e-07
6.3563617e-07
1.0896069e-05
1.9969786e-06
1.1188569e-06
1.0368412e-05
2.979336e-06
1.913565e-06
8.7297468e-06
4.2352699e-06
2.7845165e-06
5.7827242e-06
3.5629914e-06
9.0626585e-06
-4.8700791e-09
8.7913501e-06
-9.2638275e-09
8.5094095e-06
-1.087059e-08
8.226511e-06
-9.1004965e-09
7.945517e-06
-3.8561482e-09
7.6664799e-06
6.2286512e-09
7.3825697e-06
2.3164035e-08
7.0787805e-06
4.9007866e-08
6.7256673e-06
8.9225285e-08
6.2635201e-06
1.5334988e-07
5.5600772e-06
2.5969871e-07
4.2924587e-06
4.4882008e-07
1.721648e-06
8.227808e-07
-1.3157506e-06
1.3891918e-06
-3.4112652e-06
1.4572243e-06
-4.8573776e-06
1.2026884e-06
-5.7708806e-06
9.9453794e-07
-6.1295009e-06
5.7070458e-07
-5.8476091e-06
-2.0200918e-07
-5.1529583e-06
-8.8790664e-07
-4.3805479e-06
-1.3369026e-06
-3.7511214e-06
-1.5872198e-06
-3.1922935e-06
-1.6901033e-06
-2.4917303e-06
-1.6982189e-06
-1.2319286e-06
-1.5787063e-06
2.9510239e-07
-8.7882102e-07
1.486672e-06
7.1517472e-07
1.7799083e-06
2.6112606e-06
1.8260299e-06
4.2287666e-06
5.8425006e-06
9.5889701e-06
-3.0996572e-07
-1.4659786e-08
9.8747442e-06
-2.6979869e-07
-2.4019517e-08
1.014944e-05
-2.5688432e-07
-2.6830457e-08
1.0380808e-05
-2.1415167e-07
-2.5057023e-08
1.0558613e-05
-1.6254438e-07
-2.0249315e-08
1.0688915e-05
-1.1813015e-07
-1.2945822e-08
1.0781138e-05
-8.3883316e-08
-3.0533273e-09
1.0843825e-05
-5.8753596e-08
8.9750925e-09
1.088505e-05
-4.2510678e-08
2.350891e-08
1.0915469e-05
-3.7905129e-08
4.055573e-08
1.0954096e-05
-5.3171665e-08
5.8492922e-08
1.1038714e-05
-1.075562e-07
7.2927364e-08
1.1231885e-05
-2.2803482e-07
7.3219181e-08
1.159167e-05
-4.1533696e-07
4.5752967e-08
1.1961888e-05
-4.3218527e-07
-2.5490531e-08
1.2234208e-05
-2.9072506e-07
-1.5836844e-07
1.2390358e-05
-1.4612139e-07
-2.7659158e-07
1.2481908e-05
-9.3481254e-08
-3.6383998e-07
1.2549529e-05
-1.3202662e-07
-4.1902891e-07
1.2620597e-05
-2.4321893e-07
-4.5424588e-07
1.2705526e-05
-4.0223554e-07
-4.8624192e-07
1.2789987e-05
-5.7741595e-07
-5.2859778e-07
1.2852144e-05
-7.489167e-07
-5.8671872e-07
1.2886669e-05
-9.1743097e-07
-6.5682215e-07
1.2905204e-05
-1.0684079e-06
-7.340436e-07
1.2899398e-05
-1.1314487e-06
-8.1695459e-07
1.2773807e-05
-9.7088931e-07
-8.9261577e-07
1.2305074e-05