/*--------------------------------*- C++ -*----------------------------------*\
| =========                 |                                                 |
| \\      /  F ield         | OpenFOAM: The Open Source CFD Toolbox           |
|  \\    /   O peration     | Version:  v2012                                 |
|   \\  /    A nd           | Website:  www.openfoam.com                      |
|    \\/     M anipulation  |                                                 |
\*---------------------------------------------------------------------------*/
FoamFile
{
    version     2.0;
    format      ascii;
    class       volScalarField;
    location    "640/topAir";
    object      rho;
}
// * * * * * * * * * * * * * * * * * * * * * * * * * * * * * * * * * * * * * //

dimensions      [1 -3 0 0 0 0 0];


internalField   nonuniform List<scalar> 
1200
(
1.0685295
0.99686709
0.93982801
0.89264437
0.85227645
0.81694602
0.78566664
0.75809021
0.73418398
0.71350361
0.69582601
0.68113404
0.66982845
0.67045973
0.67445108
0.68175156
0.69148078
0.70229484
0.71290067
0.72237043
0.73019123
0.73616305
0.7402722
0.74259833
0.74325637
0.74233417
0.73981583
0.73546137
0.72855788
0.71796253
1.1565218
1.1525835
1.1472386
1.1407573
1.1333393
1.1251445
1.1163175
1.106225
1.0925912
1.0748671
1.050827
1.0198288
0.98264258
0.94543582
0.91160166
0.88341346
0.86141679
0.84539608
0.83487531
0.82910933
0.82689568
0.82678415
0.82743708
0.82780828
0.8271227
0.82471622
0.81983803
0.8113901
0.79734607
0.77602285
1.1585734
1.1584413
1.1581963
1.1578146
1.157276
1.1565635
1.1556639
1.1545482
1.1531315
1.1513207
1.1488519
1.1413228
1.1218295
1.0888836
1.0475276
1.0035293
0.9624755
0.92709813
0.89856144
0.87699619
0.86172042
0.85149022
0.84487236
0.8405324
0.83735769
0.83443622
0.83095633
0.82599869
0.81800382
0.80475268
1.1586179
1.1586136
1.158603
1.1585824
1.1585466
1.1584895
1.1584041
1.1582811
1.1581075
1.1578632
1.1575012
1.1567279
1.1543132
1.1416024
1.1078519
1.0634392
1.0201661
0.98075644
0.94661827
0.9185489
0.89659261
0.88009361
0.86799292
0.85916145
0.85259303
0.84745258
0.84302164
0.83857274
0.83304582
0.82480248
1.0685308
0.99757609
0.94170628
0.89602613
0.85749307
0.82437025
0.79568746
0.77091876
0.74988296
0.73265718
0.71957818
0.71118332
0.7083966
0.72208677
0.74062089
0.76122554
0.78018439
0.79498278
0.80508855
0.81136648
0.81500906
0.81684516
0.81725784
0.81636163
0.81420057
0.81076203
0.80590084
0.79907197
0.78859566
0.77127306
1.1565242
1.1526585
1.1475138
1.1413977
1.1345463
1.1271581
1.1194304
1.111579
1.1038583
1.0965872
1.0901962
1.0852317
1.0823488
1.0823299
1.0839424
1.084545
1.081771
1.0753804
1.0667009
1.0571478
1.0473077
1.0371347
1.0263969
1.0148378
1.0022427
0.98847423
0.9735572
0.95773758
0.94084144
0.91993187
1.1585735
1.158445
1.1582126
1.1578602
1.1573763
1.1567546
1.1559943
1.1551018
1.1540928
1.1529992
1.151877
1.1507354
1.1496075
1.1481366
1.1433988
1.1323005
1.1129308
1.0879989
1.0624318
1.0402392
1.0212134
1.0030793
0.98554104
0.96856503
0.95230827
0.9360499
0.91931673
0.90248257
0.88549098
0.86782719
1.1586179
1.1586137
1.1586039
1.1585852
1.158554
1.1585061
1.1584368
1.1583416
1.1582156
1.1580537
1.1578483
1.1575621
1.1569177
1.1534424
1.1387386
1.1105123
1.07599
1.0346729
0.99438017
0.95971234
0.93262069
0.91266674
0.89709496
0.88442746
0.87405843
0.86597907
0.859416
0.85370466
0.8480959
0.8401345
1.0685117
0.99741552
0.94139088
0.8955475
0.85682616
0.82346946
0.79442849
0.76902835
0.74690446
0.72797837
0.71247934
0.70105296
0.69512164
0.70687781
0.72315323
0.74093157
0.75815134
0.77432178
0.78934103
0.80301253
0.81507146
0.82505624
0.8323579
0.83652775
0.83750247
0.83559622
0.8312559
0.82460328
0.81406481
0.79630956
1.1565233
1.1526436
1.1474737
1.141325
1.1344315
1.1269825
1.1191525
1.1111216
1.1031093
1.0954162
1.0885016
1.083093
1.0802002
1.0804538
1.0811959
1.0800865
1.0770867
1.0728134
1.0672332
1.0602358
1.0515731
1.0407445
1.0273352
1.0113773
0.99330075
0.97348135
0.95214069
0.93003027
0.90765027
0.88275092
1.1585735
1.1584443
1.1582106
1.1578562
1.1573703
1.1567465
1.1559836
1.1550866
1.1540706
1.152969
1.1518514
1.1508463
1.1500088
1.1472119
1.1362244
1.1193406
1.1036884
1.0911141
1.0782644
1.0641885
1.0477258
1.0275107
1.0036405
0.97781702
0.95218459
0.92834922
0.90693064
0.88800048
0.86795241
0.84492098
1.1586179
1.1586137
1.1586038
1.1585851
1.1585538
1.1585059
1.1584371
1.158343
1.158219
1.1580611
1.1578639
1.1575823
1.1564555
1.1452457
1.1038291
1.0572404
1.0309962
1.0320553
1.0089614
0.97943647
0.9530932
0.93208175
0.91514776
0.90112298
0.88929699
0.87936323
0.87095254
0.86275996
0.84597737
0.81638499
1.0684853
0.99732438
0.94118854
0.89518565
0.85622852
0.82250535
0.79289549
0.76665664
0.74331185
0.72262028
0.70467277
0.69010803
0.68032347
0.68636591
0.69117324
0.6926414
0.69168304
0.69018481
0.68969473
0.69131834
0.69550468
0.70187194
0.70958454
0.71792529
0.72625279
0.73330553
0.73671219
0.73341432
0.72204912
0.70621768
1.1565225
1.1526364
1.1474485
1.1412647
1.1343102
1.1267579
1.1187558
1.110448
1.1020059
1.0936957
1.0860075
1.079848
1.0763514
1.0742926
1.0702258
1.0647002
1.0585915
1.0524628
1.046335
1.0398271
1.0320655
1.0220568
1.0094117
0.99446502
0.97763118
0.95881321
0.93858063
0.91677829
0.88548337
0.82704294
1.1585735
1.158444
1.1582093
1.1578524
1.1573615
1.1567286
1.1559496
1.1550258
1.1539677
1.1528067
1.1516239
1.1505837
1.1493416
1.1401536
1.1215394
1.107883
1.09888
1.0914893
1.0820677
1.0682308
1.0486778
1.0229064
0.99276651
0.96199491
0.93290632
0.90601147
0.88426255
0.86517465
0.84502615
0.81825936
1.1586179
1.1586137
1.1586037
1.1585848
1.1585532
1.1585045
1.1584342
1.1583372
1.1582082
1.1580413
1.157824
1.1574026
1.1540284
1.1143632
1.0279697
0.99241833
0.98918479
0.98974912
0.98907231
0.97335379
0.95450223
0.93664989
0.92003043
0.9058804
0.89225886
0.87640789
0.86086889
0.84238025
0.82106249
0.79559317
1.0684704
0.9972848
0.94111489
0.89507145
0.85606583
0.82228625
0.79261281
0.76630831
0.74290884
0.72224778
0.70460269
0.69091728
0.6823802
0.68894681
0.69154011
0.68990309
0.68704635
0.68274466
0.67774215
0.67263119
0.66795165
0.664168
0.66161093
0.66043429
0.6605635
0.66156032
0.66246232
0.66177284
0.65769471
0.64840264
1.1565221
1.1526332
1.147438
1.1412407
1.1342652
1.1266828
1.1186399
1.1102816
1.1017937
1.0934907
1.0860026
1.0804772
1.077666
1.0731579
1.0670074
1.0600304
1.0477172
1.0306333
1.0106482
0.98874744
0.96527736
0.93981883
0.91191769
0.88230543
0.8525669
0.82409155
0.7973088
0.77155054
0.74502252
0.71428512
1.1585734
1.1584439
1.1582086
1.1578506
1.1573574
1.1567206
1.1559356
1.1550029
1.1539342
1.1527678
1.1516098
1.1506347
1.148201
1.1288013
1.1147269
1.1063876
1.1010209
1.0945944
1.0863256
1.0743187
1.0550415
1.0259165
0.99078394
0.95742041
0.92861003
0.9004659
0.87158596
0.84064412
0.8060919
0.76591823
1.1586179
1.1586137
1.1586037
1.1585847
1.1585528
1.1585038
1.1584326
1.1583341
1.1582023
1.1580299
1.1577918
1.1570825
1.1481971
1.034443
0.97802838
0.96674503
0.96095288
0.95464241
0.9464809
0.93835887
0.92880402
0.91795884
0.9072713
0.89789272
0.88999244
0.88365718
0.87132554
0.84800703
0.8180838
0.78312594
1.0684591
0.99726571
0.94108991
0.89504143
0.85603047
0.82224491
0.79256143
0.76623945
0.74280831
0.72207181
0.70423407
0.69013985
0.68114754
0.6884119
0.69219676
0.69152531
0.68843197
0.68391196
0.67869127
0.67333442
0.66835305
0.66421663
0.661302
0.6598374
0.65980834
0.6607958
0.66182783
0.6613508
0.6574269
0.64811493
1.1565218
1.1526325
1.1474366
1.1412387
1.1342626
1.1266792
1.1186343
1.1102704
1.1017651
1.0934119
1.0857891
1.079969
1.0769011
1.0732233
1.0675805
1.0609062
1.0510469
1.036357
1.0183001
0.99793528
0.97491327
0.94847981
0.91847422
0.88619118
0.85373978
0.82290039
0.79429223
0.76735973
0.74039291
0.71000113
1.1585734
1.1584439
1.1582086
1.1578505
1.1573574
1.1567206
1.1559357
1.1550031
1.1539335
1.1527622
1.1515861
1.1505832
1.1487346
1.1324035
1.1165341
1.1065064
1.1011915
1.095703
1.0890794
1.0777852
1.05895
1.03172
0.99982776
0.96841214
0.93933468
0.90842176
0.87566824
0.84084887
0.80310988
0.76060138
1.1586179
1.1586137
1.1586037
1.1585847
1.1585528
1.1585038
1.1584327
1.1583344
1.158203
1.1580317
1.1578006
1.1572222
1.1510618
1.0710166
0.98541089
0.97065377
0.96426255
0.95914087
0.95238035
0.94542149
0.93491726
0.92291148
0.91114325
0.90079586
0.89188805
0.88656819
0.87204993
0.84726112
0.81338981
0.77401411
1.0684496
0.99726394
0.9411087
0.89508824
0.85611294
0.82237209
0.79274337
0.76647957
0.7430855
0.7222962
0.70414798
0.68917754
0.67873731
0.68443861
0.6897165
0.69192357
0.69147579
0.69017053
0.68959605
0.69080345
0.694287
0.69993996
0.7072966
0.71583592
0.72478341
0.73260859
0.73679895
0.73417728
0.72302203
0.70686068
1.1565216
1.1526339
1.1474441
1.1412582
1.1343014
1.1267467
1.1187404
1.1104244
1.1019634
1.0936032
1.0857917
1.0793632
1.0754637
1.0736288
1.0702745
1.0651944
1.0593708
1.0534381
1.0474741
1.0411245
1.0336205
1.0241268
1.0123072
0.99834402
0.98236855
0.96423665
0.94449823
0.92274414
0.89159274
0.83161389
1.1585734
1.158444
1.1582091
1.1578522
1.1573613
1.1567285
1.1559497
1.1550262
1.1539677
1.1528032
1.1516065
1.1505314
1.1494167
1.1428096
1.1255215
1.1107717
1.1008601
1.0932776
1.0842972
1.071681
1.0539765
1.0305576
1.0027833
0.97305601
0.94243482
0.91283013
0.88788132
0.86692469
0.84507506
0.816055
1.1586179
1.1586137
1.1586037
1.1585848
1.1585532
1.1585046
1.1584344
1.1583377
1.1582092
1.1580435
1.1578298
1.1574528
1.1549671
1.1273079
1.0534979
0.99808612
0.99344144
0.9946593
0.99478179
0.97767165
0.95681668
0.93740178
0.91978613
0.90504103
0.8890231
0.87271151
0.8563826
0.83772914
0.81546511
0.79503271
1.0684455
0.99730159
0.94123887
0.89536383
0.85661485
0.82323226
0.79415593
0.7687215
0.74656243
0.72757188
0.71193687
0.70022521
0.69375421
0.70477552
0.72072024
0.73878918
0.75674888
0.77373302
0.78934619
0.80332098
0.81550957
0.82567561
0.83340298
0.83825147
0.83998385
0.8387099
0.83472556
0.82817307
0.81765728
0.80063735
1.1565216
1.1526388
1.147465
1.1413118
1.1344137
1.1269599
1.119124
1.1110849
1.1030586
1.0953285
1.0883282
1.082734
1.0795085
1.079516
1.0806654
1.0802885
1.0779594
1.0741603
1.0688962
1.0621538
1.0538387
1.0435623
1.0308566
1.0155135
0.99763327
0.97742722
0.95518329
0.93171579
0.90792433
0.88209316
1.1585734
1.1584442
1.1582103
1.1578558
1.1573697
1.156746
1.1559833
1.1550867
1.1540709
1.1529681
1.1518425
1.1508135
1.1499698
1.1478972
1.1392387
1.1237158
1.1080608
1.0949311
1.0816964
1.0675951
1.0518395
1.0329801
1.0104767
0.9851032
0.95832058
0.93225387
0.9085297
0.88773185
0.86543807
0.84061126
1.1586179
1.1586137
1.1586038
1.158585
1.1585538
1.158506
1.1584373
1.1583435
1.1582202
1.1580635
1.1578686
1.1576011
1.1567178
1.1488874
1.1166951
1.0701237
1.0434489
1.0388412
1.0147357
0.98350397
0.95531767
0.93302108
0.91531824
0.90083207
0.88844973
0.8779654
0.86909321
0.86068565
0.84178729
0.81865269
1.0684326
0.99740861
0.9414869
0.89576388
0.85719089
0.82403107
0.79532289
0.77053138
0.74947331
0.73223076
0.71911815
0.71061592
0.70755783
0.72075049
0.73871673
0.75895391
0.7778634
0.79283331
0.80315128
0.80956166
0.81325481
0.81512691
0.81566739
0.81507726
0.81341177
0.81058726
0.80636276
0.80015975
0.79037932
0.77321081
1.1565217
1.1526515
1.1475009
1.1413783
1.1345201
1.1271253
1.1193932
1.1115383
1.1038108
1.0965299
1.0901079
1.0850605
1.0819993
1.0817283
1.0832474
1.0840696
1.0817075
1.0757321
1.0673621
1.0580291
1.0484043
1.0384956
1.0280894
1.0168604
1.0044803
0.9906996
0.97549525
0.95911137
0.94132716
0.92053962
1.1585735
1.1584448
1.1582122
1.1578595
1.1573754
1.1567538
1.1559941
1.155103
1.1540963
1.1530049
1.1518826
1.1507196
1.1495474
1.1481229
1.1439585
1.1337837
1.1149887
1.090181
1.0642014
1.0411804
1.0214456
1.0025954
0.98440684
0.96704143
0.95105003
0.93513711
0.91847826
0.90144943
0.8840922
0.86585521
1.1586179
1.1586137
1.1586039
1.1585852
1.158554
1.1585061
1.1584371
1.1583424
1.1582173
1.1580567
1.1578531
1.1575678
1.1569415
1.1538144
1.140999
1.1141708
1.0787696
1.0370706
0.99655174
0.9613742
0.93359415
0.91326324
0.89750387
0.88477339
0.87396027
0.86539802
0.85853478
0.85263379
0.84685469
0.8376697
1.0684098
0.99666556
0.93956758
0.89233751
0.85192956
0.81656504
0.78527231
0.75772085
0.73384241
0.71319376
0.69554527
0.6808694
0.66954705
0.67011996
0.67400084
0.68117587
0.69080526
0.70155448
0.71211217
0.72152992
0.729293
0.73522032
0.73933251
0.74174301
0.74258131
0.7419209
0.73971114
0.73567991
0.72910455
0.7187631
1.1565187
1.1525749
1.1472229
1.1407335
1.1333072
1.1251052
1.1162715
1.1060368
1.0923222
1.0744274
1.0499302
1.0184164
0.98071402
0.94326005
0.90955453
0.88179531
0.86035849
0.84482423
0.83457399
0.82884826
0.82652087
0.82624925
0.82679381
0.82715723
0.82655072
0.82426304
0.81950993
0.81120592
0.79739208
0.77645653
1.1585733
1.1584411
1.1581958
1.1578137
1.1572748
1.1565622
1.1556631
1.1545454
1.1531254
1.151305
1.1487876
1.1404995
1.1196014
1.0857808
1.0441001
1.0003244
0.9599004
0.92528372
0.89739046
0.876225
0.86111028
0.85088065
0.84419639
0.83979486
0.83659811
0.83369281
0.83025573
0.82537544
0.81754857
0.80464744
1.1586179
1.1586136
1.158603
1.1585823
1.1585466
1.1584896
1.1584044
1.1582819
1.1581089
1.1578655
1.1575028
1.1567042
1.15421
1.140424
1.1062147
1.0619659
1.0189622
0.98000456
0.94630339
0.91847361
0.89653487
0.87991
0.86762869
0.85862127
0.85190862
0.84666423
0.84216828
0.83769599
0.83221928
0.82417683
)
;

boundaryField
{
    maxY
    {
        type            calculated;
        value           nonuniform List<scalar> 
300
(
1.1586174
1.1586174
1.1586174
1.1586174
1.1586174
1.1586174
1.1586174
1.1586174
1.1586174
1.1586174
1.158613
1.1586132
1.1586132
1.1586132
1.1586132
1.1586132
1.1586132
1.1586132
1.1586132
1.158613
1.1586025
1.1586034
1.1586033
1.1586032
1.1586032
1.1586032
1.1586032
1.1586033
1.1586034
1.1586025
1.1585818
1.1585847
1.1585845
1.1585843
1.1585842
1.1585842
1.1585843
1.1585845
1.1585847
1.1585818
1.158546
1.1585535
1.1585533
1.1585526
1.1585523
1.1585523
1.1585527
1.1585533
1.1585535
1.158546
1.158489
1.1585055
1.1585054
1.158504
1.1585032
1.1585033
1.1585041
1.1585055
1.1585056
1.1584891
1.1584036
1.1584363
1.1584366
1.1584337
1.1584321
1.1584322
1.1584339
1.1584368
1.1584366
1.1584039
1.1582806
1.1583411
1.1583424
1.1583367
1.1583336
1.1583339
1.1583372
1.158343
1.1583419
1.1582813
1.1581069
1.1582151
1.1582184
1.1582077
1.1582018
1.1582025
1.1582087
1.1582197
1.1582167
1.1581084
1.1578627
1.1580532
1.1580606
1.1580408
1.1580293
1.1580311
1.158043
1.158063
1.1580562
1.157865
1.1575007
1.1578477
1.1578634
1.1578235
1.1577912
1.1578001
1.1578293
1.1578681
1.1578525
1.1575023
1.1567273
1.1575616
1.1575818
1.157402
1.157082
1.1572217
1.1574523
1.1576005
1.1575673
1.1567036
1.1543127
1.1569172
1.156455
1.1540279
1.1481966
1.1510613
1.1549666
1.1567173
1.1569409
1.1542095
1.1416019
1.1534419
1.1452451
1.1143627
1.0344426
1.0710161
1.1273074
1.1488868
1.1538138
1.1404234
1.1078514
1.1387381
1.1038286
1.0279692
0.978028
0.98541051
1.0534975
1.1166946
1.1409985
1.1062142
1.0634388
1.1105118
1.05724
0.99241795
0.96674466
0.9706534
0.99808573
1.0701232
1.1141704
1.0619655
1.0201657
1.0759895
1.0309958
0.9891844
0.96095252
0.96426218
0.99344105
1.0434484
1.0787691
1.0189618
0.98075607
1.0346725
1.0320549
0.98974873
0.95464205
0.95914051
0.99465891
1.0388408
1.0370702
0.98000419
0.94661791
0.99437978
1.008961
0.98907193
0.94648055
0.95238
0.9947814
1.0147353
0.99655135
0.94630304
0.91854857
0.95971198
0.97943609
0.97335342
0.93835853
0.94542114
0.97767127
0.98350359
0.96137383
0.91847328
0.8965923
0.93262035
0.95309284
0.95450188
0.92880368
0.93491692
0.95681632
0.95531731
0.9335938
0.89653455
0.8800933
0.91266641
0.93208141
0.93664954
0.91795851
0.92291115
0.93740143
0.93302074
0.91326291
0.8799097
0.86799262
0.89709465
0.91514743
0.9200301
0.90727098
0.91114293
0.9197858
0.91531791
0.89750356
0.8676284
0.85916116
0.88442715
0.90112266
0.90588007
0.89789241
0.90079555
0.90504071
0.90083175
0.88477308
0.85862098
0.85259274
0.87405813
0.88929668
0.89225855
0.88999213
0.89188774
0.88902279
0.88844942
0.87395997
0.85190833
0.84745229
0.86597878
0.87936292
0.87640759
0.88365687
0.88656788
0.87271121
0.87796509
0.86539773
0.84666395
0.84302136
0.85941571
0.87095224
0.86086859
0.87132524
0.87204963
0.85638231
0.86909291
0.8585345
0.842168
0.83857246
0.85370437
0.86275966
0.84237997
0.84800675
0.84726084
0.83772886
0.86068536
0.8526335
0.83769572
0.83304555
0.84809562
0.84597709
0.82106223
0.81808354
0.81338955
0.81546485
0.84178701
0.84685441
0.83221901
0.82480221
0.84013423
0.81638473
0.79559292
0.7831257
0.77401387
0.79503246
0.81865243
0.83766942
0.82417656
)
;
    }
    minX
    {
        type            calculated;
        value           nonuniform List<scalar> 
40
(
1.1586221
1.1586211
1.1586201
1.158619
1.1586221
1.1586211
1.1586201
1.158619
1.1586221
1.1586211
1.1586201
1.158619
1.1586221
1.1586211
1.1586201
1.158619
1.1586221
1.1586211
1.1586201
1.158619
1.1586221
1.1586211
1.1586201
1.158619
1.1586221
1.1586211
1.1586201
1.158619
1.1586221
1.1586211
1.1586201
1.158619
1.1586221
1.1586211
1.1586201
1.158619
1.1586221
1.1586211
1.1586201
1.158619
)
;
    }
    maxX
    {
        type            calculated;
        value           nonuniform List<scalar> 
40
(
0.71793623
0.77596631
0.80468864
0.82475605
0.77123468
0.9199942
0.86790464
0.84022955
0.79624943
0.88297583
0.84526118
0.81688395
0.70622751
0.82704821
0.81837417
0.79584414
0.64839595
0.7146357
0.76633331
0.78329518
0.64797845
0.70987405
0.7606148
0.77369741
0.70664552
0.83253609
0.81610143
0.7920692
0.8006954
0.88185035
0.83950004
1.1586179
0.77322473
0.92058161
0.86587045
0.83715703
0.7187338
0.77643201
0.80459082
0.82413124
)
;
    }
    minZ
    {
        type            calculated;
        value           nonuniform List<scalar> 
120
(
1.0685295
1.1565218
1.1585734
1.1586179
0.99686709
1.1525835
1.1584413
1.1586136
0.93982801
1.1472386
1.1581963
1.158603
0.89264437
1.1407573
1.1578146
1.1585824
0.85227645
1.1333393
1.157276
1.1585466
0.81694602
1.1251445
1.1565635
1.1584895
0.78566664
1.1163175
1.1556639
1.1584041
0.75809021
1.106225
1.1545482
1.1582811
0.73418398
1.0925912
1.1531315
1.1581075
0.71350361
1.0748671
1.1513207
1.1578632
0.69582601
1.050827
1.1488519
1.1575012
0.68113404
1.0198288
1.1413228
1.1567279
0.66982845
0.98264258
1.1218295
1.1543132
0.67045973
0.94543582
1.0888836
1.1416024
0.67445108
0.91160166
1.0475276
1.1078519
0.68175156
0.88341346
1.0035293
1.0634392
0.69148078
0.86141679
0.9624755
1.0201661
0.70229484
0.84539608
0.92709813
0.98075644
0.71290067
0.83487531
0.89856144
0.94661827
0.72237043
0.82910933
0.87699619
0.9185489
0.73019123
0.82689568
0.86172042
0.89659261
0.73616305
0.82678415
0.85149022
0.88009361
0.7402722
0.82743708
0.84487236
0.86799292
0.74259833
0.82780828
0.8405324
0.85916145
0.74325637
0.8271227
0.83735769
0.85259303
0.74233417
0.82471622
0.83443622
0.84745258
0.73981583
0.81983803
0.83095633
0.84302164
0.73546137
0.8113901
0.82599869
0.83857274
0.72855788
0.79734607
0.81800382
0.83304582
0.71796253
0.77602285
0.80475268
0.82480248
)
;
    }
    maxZ
    {
        type            calculated;
        value           nonuniform List<scalar> 
120
(
1.0684098
1.1565187
1.1585733
1.1586179
0.99666556
1.1525749
1.1584411
1.1586136
0.93956758
1.1472229
1.1581958
1.158603
0.89233751
1.1407335
1.1578137
1.1585823
0.85192956
1.1333072
1.1572748
1.1585466
0.81656504
1.1251052
1.1565622
1.1584896
0.78527231
1.1162715
1.1556631
1.1584044
0.75772085
1.1060368
1.1545454
1.1582819
0.73384241
1.0923222
1.1531254
1.1581089
0.71319376
1.0744274
1.151305
1.1578655
0.69554527
1.0499302
1.1487876
1.1575028
0.6808694
1.0184164
1.1404995
1.1567042
0.66954705
0.98071402
1.1196014
1.15421
0.67011996
0.94326005
1.0857808
1.140424
0.67400084
0.90955453
1.0441001
1.1062147
0.68117587
0.88179531
1.0003244
1.0619659
0.69080526
0.86035849
0.9599004
1.0189622
0.70155448
0.84482423
0.92528372
0.98000456
0.71211217
0.83457399
0.89739046
0.94630339
0.72152992
0.82884826
0.876225
0.91847361
0.729293
0.82652087
0.86111028
0.89653487
0.73522032
0.82624925
0.85088065
0.87991
0.73933251
0.82679381
0.84419639
0.86762869
0.74174301
0.82715723
0.83979486
0.85862127
0.74258131
0.82655072
0.83659811
0.85190862
0.7419209
0.82426304
0.83369281
0.84666423
0.73971114
0.81950993
0.83025573
0.84216828
0.73567991
0.81120592
0.82537544
0.83769599
0.72910455
0.79739208
0.81754857
0.83221928
0.7187631
0.77645653
0.80464744
0.82417683
)
;
    }
    topAir_to_rightSolid
    {
        type            calculated;
        value           nonuniform List<scalar> 
130
(
0.46197261
0.45707016
0.45206763
0.44721462
0.44268259
0.43858169
0.43498455
0.4319157
0.42937918
0.42736901
0.42587467
0.42488558
0.42439276
0.46556549
0.45978488
0.45403899
0.44861066
0.44365891
0.4392581
0.43545296
0.43224253
0.42960981
0.42753399
0.42599748
0.4249838
0.42448002
0.47296527
0.46509654
0.45771314
0.45110155
0.44533401
0.44038329
0.43620964
0.43275561
0.42996181
0.42778019
0.42617665
0.42512395
0.42460251
0.48447351
0.47248182
0.46236519
0.45402736
0.44718248
0.44156588
0.43697915
0.43326284
0.43030115
0.42800988
0.42633567
0.425242
0.42470138
0.49881193
0.47969104
0.46623557
0.45621158
0.44846449
0.44234462
0.43746449
0.43357556
0.43051025
0.42815525
0.42644182
0.42532527
0.42477203
0.49877573
0.47964946
0.46620398
0.45618941
0.44845138
0.44234309
0.43747178
0.43359049
0.43053294
0.42818566
0.42647771
0.42536332
0.42481312
0.48438128
0.47239889
0.46230043
0.45397902
0.44715509
0.44156724
0.43700529
0.43331369
0.43037638
0.42810669
0.4264474
0.42536045
0.42482237
0.47285756
0.46502156
0.45766933
0.45108186
0.44533995
0.44042802
0.4362915
0.4328703
0.4301066
0.4279492
0.42635988
0.42531413
0.42479451
0.46546497
0.45973354
0.45402527
0.44862712
0.44370896
0.43935348
0.43558655
0.43241007
0.42980791
0.42775594
0.42623295
0.42522554
0.42472279
0.461871
0.45702811
0.45207132
0.44725685
0.44276702
0.43871317
0.43515515
0.4321195
0.42961219
0.42762258
0.42613944
0.42515505
0.42466319
)
;
    }
    topAir_to_heater
    {
        type            calculated;
        value           nonuniform List<scalar> 
40
(
0.47425878
0.47286912
0.47019255
0.46645533
0.48034683
0.47868373
0.47546764
0.47095605
0.49367933
0.49144035
0.48700978
0.4806378
0.51704341
0.51398172
0.50755037
0.49752197
0.55576668
0.55253987
0.54432005
0.52849115
0.55577674
0.55254441
0.54431064
0.52846668
0.51705071
0.51397099
0.50750342
0.49744102
0.49349997
0.4912609
0.4868355
0.4804975
0.48010863
0.47845779
0.47526672
0.47080085
0.47400459
0.47262404
0.46997538
0.46629087
)
;
    }
    topAir_to_leftSolid
    {
        type            calculated;
        value           nonuniform List<scalar> 
130
(
0.37694935
0.37696451
0.37699308
0.37703585
0.37709645
0.37717649
0.37727559
0.37738178
0.37749168
0.37760621
0.37772743
0.37782903
0.37788173
0.37688914
0.37691138
0.37694883
0.37699895
0.37706681
0.3771537
0.37725979
0.37737067
0.37748205
0.37759468
0.37770974
0.37781353
0.37788355
0.37679784
0.37682465
0.37687429
0.3769351
0.37701231
0.37710729
0.37721788
0.37733367
0.37744871
0.37756365
0.37767783
0.37778772
0.3778606
0.37671458
0.376734
0.3767759
0.37684156
0.37693379
0.37703355
0.37714394
0.37726132
0.37738311
0.37750921
0.37763293
0.37774728
0.37781515
0.37666022
0.37667534
0.37671098
0.37676978
0.37685402
0.37695597
0.37706937
0.37718898
0.37731683
0.37746169
0.37759353
0.37771142
0.37780289
0.37662496
0.37663698
0.37666734
0.37671934
0.37679371
0.37689056
0.37700069
0.37712176
0.37725843
0.37740819
0.37754245
0.37765745
0.37775
0.37660452
0.37661464
0.37664129
0.37668744
0.37675579
0.37684379
0.37694685
0.37706629
0.37720313
0.37734079
0.3774684
0.37758402
0.37767689
0.3765942
0.37660379
0.37662839
0.37667006
0.37672814
0.37680313
0.37689517
0.37700508
0.37713298
0.37725567
0.37736907
0.37746779
0.37753078
0.37658843
0.37659949
0.3766244
0.37666227
0.37671339
0.37677983
0.37686242
0.37695916
0.37707018
0.37718159
0.37728436
0.37737053
0.37742555
0.37658298
0.37659651
0.37662402
0.37666414
0.37671418
0.37677639
0.37685229
0.37694158
0.37704217
0.37714383
0.37723752
0.37731425
0.37736245
)
;
    }
}


// ************************************************************************* //
