/*--------------------------------*- C++ -*----------------------------------*\
| =========                 |                                                 |
| \\      /  F ield         | OpenFOAM: The Open Source CFD Toolbox           |
|  \\    /   O peration     | Version:  v2012                                 |
|   \\  /    A nd           | Website:  www.openfoam.com                      |
|    \\/     M anipulation  |                                                 |
\*---------------------------------------------------------------------------*/
FoamFile
{
    version     2.0;
    format      ascii;
    class       volScalarField;
    location    "80/leftSolid";
    object      T;
}
// * * * * * * * * * * * * * * * * * * * * * * * * * * * * * * * * * * * * * //

dimensions      [0 0 0 1 0 0 0];


internalField   nonuniform List<scalar> 
130
(
550.95923
551.04892
551.07326
551.06108
551.02477
550.96505
550.86617
550.75487
550.65229
550.5477
550.44086
550.3488
550.30307
551.16174
551.173
551.15474
551.12606
551.08693
551.0205
550.91418
550.79291
550.67897
550.55032
550.41179
550.29905
550.23252
551.22184
551.22851
551.19779
551.17903
551.14204
551.05826
550.93524
550.79562
550.64841
550.48944
550.30759
550.15519
550.05663
551.19695
551.20775
551.20952
551.20018
551.1542
551.04688
550.89404
550.72231
550.54614
550.35268
550.13329
549.92962
549.77267
551.14649
551.16115
551.17446
551.17559
551.13587
551.03858
550.87889
550.67836
550.45566
550.22995
549.98138
549.73336
549.49969
551.14638
551.16098
551.17429
551.17542
551.13566
551.03831
550.87862
550.67808
550.45552
550.22961
549.98091
549.73261
549.49842
551.19688
551.20752
551.20917
551.19987
551.15387
551.04654
550.89364
550.72196
550.54578
550.35187
550.13235
549.9287
549.77218
551.22199
551.22844
551.19758
551.17858
551.14168
551.05792
550.93487
550.79537
550.64802
550.48876
550.3067
550.15412
550.05549
551.16158
551.17288
551.15465
551.12581
551.08663
551.02019
550.91399
550.79271
550.67854
550.54961
550.41073
550.2977
550.23085
550.95891
551.0487
551.07311
551.06089
551.02455
550.96481
550.86598
550.7546
550.65177
550.5469
550.43988
550.34761
550.30106
)
;

boundaryField
{
    minX
    {
        type            zeroGradient;
    }
    minZ
    {
        type            zeroGradient;
    }
    maxZ
    {
        type            zeroGradient;
    }
    leftSolid_to_bottomWater
    {
        type            compressible::turbulentTemperatureCoupledBaffleMixed;
        refValue        nonuniform List<scalar> 
130
(
1009.7145
1026.6031
1024.8171
1023.1186
1021.345
1021.1525
1018.2069
1016.898
1018.1582
1018.4977
1016.6639
1013.4831
1013.8883
1030.9842
1030.996
1026.8955
1024.4367
1024.2841
1024.3688
1022.0485
1020.5374
1023.2256
1022.2816
1018.0705
1016.2926
1014.7971
1029.0209
1031.9461
1023.8394
1025.509
1027.8481
1026.2087
1023.8041
1023.5806
1023.3411
1023.8491
1017.8337
1015.631
1012.6229
1026.0674
1027.2723
1027.3773
1028.6277
1029.266
1025.3438
1020.9229
1018.9847
1020.5559
1020.6162
1015.7753
1012.5082
1003.2532
1022.3218
1023.3579
1023.9951
1026.1303
1026.7403
1026.6003
1023.55
1020.1817
1016.3481
1016.5619
1012.8541
1009.5612
985.42708
1022.3203
1023.3443
1023.989
1026.1226
1026.7278
1026.5753
1023.5276
1020.138
1016.362
1016.5207
1012.8271
1009.4996
985.18422
1026.0828
1027.2613
1027.3567
1028.6389
1029.2616
1025.3474
1020.915
1018.9813
1020.5711
1020.5364
1015.7248
1012.4525
1003.3495
1029.0744
1031.947
1023.8625
1025.4735
1027.852
1026.2121
1023.7811
1023.603
1023.3483
1023.8396
1017.8363
1015.6206
1012.6006
1030.9767
1031.0004
1026.9336
1024.4344
1024.2784
1024.3525
1022.0704
1020.5661
1023.2247
1022.2745
1018.0429
1016.2597
1014.7382
1009.7189
1026.6057
1024.8307
1023.1257
1021.3449
1021.1429
1018.2172
1016.9061
1018.1493
1018.4656
1016.6603
1013.5661
1013.7655
)
;
        refGradient     uniform 0;
        valueFraction   nonuniform List<scalar> 
130
(
0.0075140686
0.0075140686
0.0075140686
0.0075140686
0.0075140686
0.0075140686
0.0075140686
0.0075140686
0.0075140686
0.0075140686
0.0075140686
0.0075140686
0.0075140686
0.0075140686
0.0075140686
0.0075140686
0.0075140686
0.0075140686
0.0075140686
0.0075140686
0.0075140686
0.0075140686
0.0075140686
0.0075140686
0.0075140686
0.0075140686
0.0075140686
0.0075140686
0.0075140686
0.0075140686
0.0075140686
0.0075140686
0.0075140686
0.0075140686
0.0075140686
0.0075140686
0.0075140686
0.0075140686
0.0075140686
0.0075140686
0.0075140686
0.0075140686
0.0075140686
0.0075140686
0.0075140686
0.0075140686
0.0075140686
0.0075140686
0.0075140686
0.0075140686
0.0075140686
0.0075140686
0.0075140686
0.0075140686
0.0075140686
0.0075140686
0.0075140686
0.0075140686
0.0075140686
0.0075140686
0.0075140686
0.0075140686
0.0075140686
0.0075140686
0.0075140686
0.0075140686
0.0075140686
0.0075140686
0.0075140686
0.0075140686
0.0075140686
0.0075140686
0.0075140686
0.0075140686
0.0075140686
0.0075140686
0.0075140686
0.0075140686
0.0075140686
0.0075140686
0.0075140686
0.0075140686
0.0075140686
0.0075140686
0.0075140686
0.0075140686
0.0075140686
0.0075140686
0.0075140686
0.0075140686
0.0075140686
0.0075140686
0.0075140686
0.0075140686
0.0075140686
0.0075140686
0.0075140686
0.0075140686
0.0075140686
0.0075140686
0.0075140686
0.0075140686
0.0075140686
0.0075140686
0.0075140686
0.0075140686
0.0075140686
0.0075140686
0.0075140686
0.0075140686
0.0075140686
0.0075140686
0.0075140686
0.0075140686
0.0075140686
0.0075140686
0.0075140686
0.0075140686
0.0075140686
0.0075140686
0.0075140686
0.0075140686
0.0075140686
0.0075140686
0.0075140686
0.0075140686
0.0075140686
0.0075140686
0.0075140686
0.0075140686
)
;
        value           nonuniform List<scalar> 
130
(
554.36627
554.58227
554.59305
554.56827
554.51904
554.45845
554.33821
554.21786
554.1255
554.02429
553.90457
553.78936
553.74705
554.72718
554.73848
554.68959
554.64274
554.60285
554.53767
554.4147
554.28293
554.19006
554.05531
553.88626
553.76104
553.68376
554.77208
554.80073
554.70941
554.70341
554.68432
554.58892
554.44879
554.3085
554.1606
554.00668
553.78102
553.61322
553.49277
554.72518
554.74498
554.74758
554.74778
554.707
554.57107
554.38619
554.20118
554.03815
553.84661
553.5925
553.36577
553.1404
554.64697
554.66932
554.68737
554.7046
554.66984
554.57227
554.39089
554.16654
553.91667
553.69425
553.41967
553.14874
552.73545
554.64685
554.66906
554.68716
554.70437
554.66954
554.57183
554.39045
554.16594
553.91665
553.69361
553.419
553.14753
552.73237
554.72523
554.74467
554.74708
554.74755
554.70664
554.57075
554.38573
554.20081
554.03791
553.84521
553.59119
553.36444
553.14064
554.77262
554.80066
554.70938
554.7027
554.684
554.58862
554.44826
554.30842
554.16028
554.00593
553.78016
553.61208
553.49147
554.72696
554.73839
554.68979
554.64247
554.60252
554.53724
554.41468
554.28296
554.18962
554.05455
553.88501
553.75945
553.68167
554.36598
554.58207
554.593
554.56814
554.51882
554.45814
554.3381
554.21765
554.12492
554.02325
553.90356
553.7888
553.74414
)
;
        Tnbr            T;
        thicknessLayers List<scalar> 0();
        kappaLayers     List<scalar> 0();
        kappaMethod     solidThermo;
        kappa           none;
        alphaAni        none;
        alpha           none;
        field           T;
    }
    leftSolid_to_heater
    {
        type            compressible::turbulentTemperatureCoupledBaffleMixed;
        refValue        nonuniform List<scalar> 10(530.83699 527.06021 518.89403 505.10837 484.30809 484.3083 505.1101 518.89487 527.06037 530.83646);
        refGradient     uniform 0;
        valueFraction   nonuniform List<scalar> 10(2.08329e-05 2.08329e-05 2.08329e-05 2.08329e-05 2.08329e-05 2.08329e-05 2.08329e-05 2.08329e-05 2.08329e-05 2.08329e-05);
        value           nonuniform List<scalar> 10(550.26294 550.19221 550.01607 549.73168 549.4582 549.45693 549.73119 550.01493 550.19055 550.26093);
        Tnbr            T;
        thicknessLayers List<scalar> 1(0.001);
        kappaLayers     List<scalar> 1(0.0005);
        kappaMethod     solidThermo;
        kappa           none;
        alphaAni        none;
        alpha           none;
        field           T;
    }
    leftSolid_to_topAir
    {
        type            compressible::turbulentTemperatureCoupledBaffleMixed;
        refValue        nonuniform List<scalar> 
130
(
310.35678
320.14311
329.0937
337.36148
345.09821
352.41364
359.38542
366.05619
372.38072
378.26156
383.69663
388.66491
393.10489
310.36318
320.04479
328.79085
336.76022
344.09968
350.89903
357.21217
363.06543
368.45153
373.32832
377.62994
381.25577
384.09351
310.3656
320.07069
328.84412
336.84465
344.22236
351.07207
357.45372
363.40243
368.93176
374.04551
378.7227
382.92691
386.58634
310.36479
320.07566
328.86478
336.89102
344.30702
351.21475
357.68634
363.77657
369.52909
374.98026
380.16242
385.10989
389.81798
310.36262
320.07397
328.86686
336.89954
344.32486
351.24607
357.73655
363.85285
369.64136
375.14285
380.39449
385.42653
390.14521
310.36262
320.07396
328.86684
336.89951
344.32482
351.24602
357.73649
363.85276
369.64125
375.14272
380.39432
385.4263
390.14495
310.36478
320.07565
328.86476
336.89098
344.30697
351.21468
357.68625
363.77646
369.52896
374.98008
380.16218
385.10959
389.81762
310.3656
320.07069
328.84412
336.84463
344.22233
351.07203
357.45368
363.40238
368.9317
374.04545
378.72261
382.9268
386.58622
310.36318
320.04478
328.79083
336.7602
344.09965
350.89899
357.21213
363.06539
368.45148
373.32826
377.62986
381.25567
384.09338
310.35676
320.14309
329.09368
337.36145
345.09816
352.41359
359.38536
366.05612
372.38064
378.26145
383.69649
388.66473
393.10466
)
;
        refGradient     uniform 0;
        valueFraction   nonuniform List<scalar> 
130
(
0.00032132529
0.00032132529
0.00032132529
0.00032132529
0.00032132529
0.00032132529
0.00032132529
0.00032132529
0.00032132529
0.00032132529
0.00032132529
0.00032132529
0.00032132529
0.00032132529
0.00032132529
0.00032132529
0.00032132529
0.00032132529
0.00032132529
0.00032132529
0.00032132529
0.00032132529
0.00032132529
0.00032132529
0.00032132529
0.00032132529
0.00032132529
0.00032132529
0.00032132529
0.00032132529
0.00032132529
0.00032132529
0.00032132529
0.00032132529
0.00032132529
0.00032132529
0.00032132529
0.00032132529
0.00032132529
0.00032132529
0.00032132529
0.00032132529
0.00032132529
0.00032132529
0.00032132529
0.00032132529
0.00032132529
0.00032132529
0.00032132529
0.00032132529
0.00032132529
0.00032132529
0.00032132529
0.00032132529
0.00032132529
0.00032132529
0.00032132529
0.00032132529
0.00032132529
0.00032132529
0.00032132529
0.00032132529
0.00032132529
0.00032132529
0.00032132529
0.00032132529
0.00032132529
0.00032132529
0.00032132529
0.00032132529
0.00032132529
0.00032132529
0.00032132529
0.00032132529
0.00032132529
0.00032132529
0.00032132529
0.00032132529
0.00032132529
0.00032132529
0.00032132529
0.00032132529
0.00032132529
0.00032132529
0.00032132529
0.00032132529
0.00032132529
0.00032132529
0.00032132529
0.00032132529
0.00032132529
0.00032132529
0.00032132529
0.00032132529
0.00032132529
0.00032132529
0.00032132529
0.00032132529
0.00032132529
0.00032132529
0.00032132529
0.00032132529
0.00032132529
0.00032132529
0.00032132529
0.00032132529
0.00032132529
0.00032132529
0.00032132529
0.00032132529
0.00032132529
0.00032132529
0.00032132529
0.00032132529
0.00032132529
0.00032132529
0.00032132529
0.00032132529
0.00032132529
0.00032132529
0.00032132529
0.00032132529
0.00032132529
0.00032132529
0.00032132529
0.00032132529
0.00032132529
0.00032132529
0.00032132529
0.00032132529
)
;
        value           nonuniform List<scalar> 
130
(
550.84155
550.93444
550.96169
550.95224
550.91856
550.86135
550.76477
550.65559
550.55506
550.45243
550.34747
550.2571
550.21284
551.0441
551.0585
551.0431
551.01708
550.98042
550.9163
550.81204
550.69263
550.58047
550.45346
550.31644
550.20493
550.13932
551.10418
551.11402
551.08621
551.0701
551.03555
550.95406
550.83317
550.69546
550.55008
550.39284
550.21258
550.06158
549.9642
551.0793
551.09324
551.09789
551.0912
551.04768
550.94267
550.79199
550.62227
550.44801
550.25638
550.03873
549.83668
549.68123
551.02886
551.04666
551.06284
551.06662
551.02937
550.93438
550.77686
550.57834
550.35753
550.13366
549.88683
549.64047
549.40837
551.02876
551.0465
551.06267
551.06644
551.02916
550.93412
550.77658
550.57807
550.3574
550.13332
549.88636
549.63973
549.4071
551.07923
551.09301
551.09754
551.09089
551.04735
550.94232
550.79159
550.62192
550.44765
550.25557
550.03779
549.83576
549.68074
551.10433
551.11394
551.08601
551.06965
551.03519
550.95373
550.8328
550.69521
550.5497
550.39216
550.21169
550.06052
549.96306
551.04393
551.05837
551.04302
551.01682
550.98012
550.916
550.81185
550.69244
550.58004
550.45275
550.31538
550.20358
550.13766
550.84123
550.93422
550.96154
550.95206
550.91834
550.86111
550.76457
550.65532
550.55454
550.45163
550.34649
550.25591
550.21084
)
;
        Tnbr            T;
        thicknessLayers List<scalar> 0();
        kappaLayers     List<scalar> 0();
        kappaMethod     solidThermo;
        kappa           none;
        alphaAni        none;
        alpha           none;
        field           T;
    }
}


// ************************************************************************* //
