/*--------------------------------*- C++ -*----------------------------------*\
| =========                 |                                                 |
| \\      /  F ield         | OpenFOAM: The Open Source CFD Toolbox           |
|  \\    /   O peration     | Version:  v2012                                 |
|   \\  /    A nd           | Website:  www.openfoam.com                      |
|    \\/     M anipulation  |                                                 |
\*---------------------------------------------------------------------------*/
FoamFile
{
    version     2.0;
    format      ascii;
    class       volScalarField;
    location    "110/topAir";
    object      T;
}
// * * * * * * * * * * * * * * * * * * * * * * * * * * * * * * * * * * * * * //

dimensions      [0 0 0 1 0 0 0];


internalField   nonuniform List<scalar> 
1200
(
313.0406
325.2766
336.41381
346.68084
356.28973
365.39081
374.08532
382.41381
390.28014
397.5743
404.28136
410.35807
415.69389
418.90824
421.24028
422.56838
422.86535
422.25854
421.00679
419.41532
417.75353
416.22606
414.9737
414.08205
413.60287
413.59396
414.18322
415.65531
418.51742
422.986
300.28278
300.82111
301.56476
302.48283
303.55187
304.7544
306.07594
307.5069
309.24644
311.54144
314.60008
318.79722
324.33365
331.15904
339.03379
347.27561
355.05183
361.695
366.84795
370.45223
372.6768
373.86658
374.42528
374.71891
375.05981
375.76085
377.24615
380.2453
386.13398
397.07917
300.0063
300.0242
300.0575
300.10954
300.18315
300.28085
300.40485
300.55721
300.74472
300.97988
301.28096
301.72493
302.91697
305.63892
310.53124
317.7375
326.5945
335.98794
344.86099
352.50711
358.60871
363.17966
366.45267
368.75459
370.42751
371.80584
373.2545
375.29252
378.90387
385.9076
300.00015
300.00074
300.00215
300.00492
300.0097
300.01728
300.0286
300.04476
300.06722
300.09804
300.14047
300.20276
300.32448
300.65217
302.18136
306.74027
314.59609
323.84718
332.94722
341.17451
348.21709
353.9857
358.55509
362.10489
364.86079
367.06521
368.98146
370.95772
373.63922
378.28422
313.03958
325.14135
336.02222
345.91382
355.01861
363.45812
371.30036
378.56355
385.22382
391.20243
396.37539
400.59764
403.68793
404.02595
403.17971
401.35261
398.95039
396.47592
394.30659
392.59094
391.31243
390.43509
389.93681
389.79535
390.0031
390.62852
391.9513
394.63408
399.72614
405.46403
300.28244
300.81058
301.52594
302.39167
303.37871
304.46304
305.62288
306.8355
308.07784
309.32027
310.51715
311.62824
312.60716
313.37973
313.93023
314.30891
314.65775
315.147
315.85281
316.73698
317.72368
318.80778
320.00667
321.33793
322.82691
324.50868
326.41802
328.56942
331.44852
341.05945
300.00628
300.02369
300.05527
300.10334
300.16956
300.25509
300.36057
300.48608
300.63118
300.79484
300.975
301.17042
301.39757
301.69197
302.10547
302.74042
303.86296
305.75557
308.32518
311.15564
313.86182
316.83196
320.25351
324.11311
328.44128
333.07483
337.96468
343.29929
349.50729
357.05337
300.00015
300.00072
300.00204
300.00454
300.00871
300.01511
300.02435
300.03708
300.05401
300.07596
300.10393
300.13973
300.18977
300.28362
300.6075
301.85081
305.26882
311.57295
319.85728
328.48301
336.36722
342.77017
347.84808
351.98524
355.447
358.45576
361.21799
363.94562
366.93947
370.66462
313.03909
325.1666
336.08009
346.01141
355.16788
363.67679
371.61362
379.01698
385.89868
392.24816
398.02023
403.14891
407.50383
408.96491
409.3521
408.46579
406.15548
402.53044
398.13387
393.78966
390.15133
387.46347
385.65151
384.51105
383.88569
383.78358
384.4479
386.6362
392.25265
401.72933
300.28249
300.81247
301.53099
302.40042
303.39141
304.48039
305.64692
306.87162
308.13451
309.41322
310.68047
311.90097
313.0291
313.96776
314.65384
315.03433
315.10005
314.96152
314.86999
315.05898
315.59067
316.42162
317.52856
318.93307
320.69204
322.87817
325.52597
328.70043
332.94656
343.45258
300.00628
300.02377
300.05551
300.10377
300.17011
300.25554
300.36058
300.48523
300.62896
300.79051
300.96767
301.15677
301.35248
301.54596
301.72611
301.89174
302.10172
302.58352
303.69788
305.55998
307.92379
310.56366
313.47019
316.73963
320.50089
324.90987
329.90902
335.27236
340.99583
347.56634
300.00015
300.00072
300.00205
300.00456
300.00873
300.01507
300.02417
300.03658
300.0529
300.07371
300.09956
300.13099
300.16877
300.21547
300.28743
300.47651
301.15551
303.25673
307.90996
315.14732
323.54987
331.46315
338.21456
343.79867
348.40983
352.29817
355.71107
358.8816
362.07724
365.5816
313.03792
325.17304
336.10661
346.07229
355.28158
363.8732
371.94061
379.55137
386.75727
393.60087
400.11989
406.35245
412.27785
415.37375
418.28043
421.00801
423.46475
425.42193
426.43812
426.15132
424.56693
422.17243
419.6549
417.33463
415.31453
413.76016
413.13143
414.85102
420.91352
428.74912
300.28249
300.81307
301.53358
302.40699
303.40479
304.50495
305.68977
306.94443
308.25616
309.61349
311.00533
312.42013
313.86933
315.22977
316.49693
317.63177
318.5743
319.24963
319.60933
319.71385
319.77168
320.04259
320.7585
321.99194
323.76534
326.10137
329.02753
333.14593
341.52087
365.76973
300.00628
300.0238
300.05565
300.10417
300.17101
300.2573
300.36377
300.49078
300.6384
300.80637
300.99412
301.20065
301.42452
301.66058
301.90186
302.13849
302.35761
302.55631
302.81723
303.47656
305.05786
307.85512
311.84773
316.6426
322.03805
327.94559
334.18523
340.28414
346.45976
357.3766
300.00015
300.00072
300.00206
300.00458
300.00878
300.0152
300.02441
300.037
300.05362
300.07489
300.10146
300.13399
300.17314
300.21959
300.27437
300.34085
300.43447
300.66571
301.54415
304.34504
310.32187
318.63862
327.40333
335.13136
341.41384
346.47027
350.67911
354.35735
357.80827
362.69173
313.03641
325.1736
336.1134
346.08886
355.31172
363.92193
372.01529
379.66252
386.91945
393.83325
400.44523
406.79298
412.71412
414.90041
417.06998
419.35538
421.96004
425.23498
428.86434
432.62179
435.64549
436.98475
437.53841
438.02467
438.80424
440.44784
443.8784
447.53365
451.71851
457.30237
300.28247
300.81327
301.53459
302.40961
303.41004
304.51421
305.70503
306.96863
308.29367
309.67057
311.09088
312.55375
314.348
316.09823
317.85409
319.64308
321.45964
323.28861
324.92296
325.66603
325.20177
324.37797
324.3248
325.17757
326.90991
329.48685
332.9027
343.18153
364.6958
399.0999
300.00628
300.02381
300.05571
300.10436
300.17143
300.25813
300.36524
300.49326
300.64242
300.81276
301.00415
301.21661
301.45594
301.71926
302.00386
302.30669
302.62174
302.93686
303.22624
303.45526
303.81701
305.89828
311.23774
317.68888
324.91729
332.81899
340.93176
347.90073
356.40044
380.70872
300.00015
300.00072
300.00206
300.00459
300.00881
300.01527
300.02454
300.03725
300.05404
300.07558
300.10258
300.13579
300.17618
300.22479
300.28275
300.35155
300.43361
300.53572
300.68595
301.01962
302.50009
309.76636
326.54302
334.94362
341.40577
347.34223
353.53709
360.17972
366.47671
377.44324
313.03622
325.1732
336.11277
346.08801
355.31066
363.92062
372.01369
379.66054
386.91698
393.83008
400.44106
406.78753
412.70998
414.89561
417.06487
419.35027
421.95503
425.2296
428.85668
432.60247
435.42908
436.5834
436.89827
437.03864
437.35349
438.3723
441.02177
444.84677
449.18974
454.89456
300.28246
300.81326
301.53457
302.40957
303.40998
304.51412
305.7049
306.96846
308.29343
309.67025
311.09045
312.55308
314.34433
316.0901
317.83884
319.61634
321.41388
323.20938
324.77803
325.35547
324.89924
324.14945
324.15081
325.05143
326.83908
329.46907
332.91426
341.34489
361.5936
395.36876
300.00628
300.02381
300.05571
300.10436
300.17143
300.25812
300.36524
300.49326
300.64241
300.81275
301.00413
301.21658
301.45583
301.71898
302.00325
302.3055
302.61954
302.9328
303.2187
303.44173
303.82617
306.15541
311.52818
318.05298
325.318
333.09046
341.13437
348.49694
354.53995
378.50724
300.00015
300.00072
300.00206
300.00459
300.00881
300.01527
300.02454
300.03725
300.05404
300.07558
300.10258
300.13579
300.17619
300.22479
300.28274
300.35154
300.4336
300.53586
300.68694
301.02821
302.63342
311.03006
326.9428
334.87195
340.87031
346.48924
353.14109
361.06095
367.76513
372.79566
313.03773
325.17266
336.10605
346.07162
355.28085
363.87228
371.93945
379.54991
386.75553
393.59901
400.11822
406.35108
412.27645
415.36469
418.2652
420.98489
423.43125
425.3738
426.36741
426.03992
424.38174
421.83891
419.12184
416.54856
414.25415
412.42066
411.50868
412.89299
419.05792
426.86841
300.28249
300.81306
301.53356
302.40696
303.40475
304.50491
305.68972
306.94435
308.25605
309.61329
311.00507
312.41984
313.86799
315.22782
316.49363
317.62599
318.56425
319.2324
319.58027
319.66297
319.69872
319.95937
320.67517
321.92645
323.7418
326.13402
329.10437
333.05525
340.28381
363.52583
300.00628
300.0238
300.05565
300.10417
300.17101
300.2573
300.36377
300.49079
300.6384
300.80638
300.99414
301.20066
301.42452
301.66053
301.90168
302.13806
302.35673
302.55521
302.81826
303.48634
305.08546
307.9366
311.99955
316.90232
322.41748
328.37691
334.55595
340.59742
346.33359
355.95305
300.00015
300.00072
300.00206
300.00458
300.00878
300.0152
300.02441
300.03701
300.05363
300.0749
300.10147
300.134
300.17317
300.21963
300.27443
300.34099
300.43513
300.6727
301.57178
304.41793
310.42527
318.77524
327.53947
335.18833
341.33433
346.23947
350.33002
353.95294
357.38205
362.26188
313.03899
325.1664
336.07985
346.01123
355.16794
363.67708
371.61388
379.01723
385.89895
392.24889
398.02146
403.15082
407.50611
408.96207
409.34124
408.44606
406.12573
402.4915
398.08971
393.74437
390.10426
387.40693
385.58092
384.42852
383.80405
383.72201
384.42747
386.6573
392.28102
401.61823
300.28249
300.81247
301.53099
302.40042
303.39144
304.48045
305.64703
306.87177
308.13469
309.41344
310.68065
311.90105
313.0289
313.96686
314.65151
315.02993
315.09339
314.95363
314.86256
315.05135
315.57997
316.40719
317.51446
318.92925
320.71044
322.92186
325.58321
328.72064
332.74968
342.93329
300.00628
300.02377
300.05551
300.10378
300.17012
300.25555
300.3606
300.48526
300.629
300.79057
300.96776
301.15688
301.35258
301.54604
301.72611
301.8918
302.10303
302.58948
303.71221
305.58196
307.95066
310.60158
313.536
316.85698
320.67727
325.10178
330.06172
335.34862
340.94319
347.30016
300.00015
300.00072
300.00205
300.00456
300.00873
300.01508
300.02417
300.03659
300.05291
300.07372
300.09958
300.13103
300.16884
300.21562
300.28799
300.4793
301.16737
303.29058
307.97869
315.24499
323.65264
331.54493
338.26524
343.81229
348.38471
352.23374
355.60809
358.74182
361.90122
365.37474
313.03977
325.14172
336.02276
345.91462
355.01983
363.45968
371.30207
378.56559
385.2268
391.20693
396.38101
400.60396
403.69409
404.02785
403.17704
401.34714
398.94676
396.48002
394.32233
392.61804
391.34627
390.46713
389.95662
389.79498
389.98281
390.59911
391.93302
394.64619
399.7383
405.4632
300.28245
300.81059
301.52597
302.39174
303.37883
304.46324
305.62318
306.83593
308.07844
309.3211
310.51825
311.62925
312.60791
313.38005
313.93033
314.3097
314.6612
315.15513
315.8657
316.75221
317.73783
318.81822
320.01126
321.33702
322.82397
324.5072
326.41671
328.55677
331.43646
341.05764
300.00628
300.02369
300.05527
300.10334
300.16957
300.25511
300.3606
300.48613
300.63127
300.79498
300.97521
301.17071
301.39806
301.69306
302.10823
302.74735
303.87895
305.78435
308.36342
311.19273
313.88933
316.85163
320.24872
324.06463
328.33679
332.9331
337.79368
343.10853
349.30849
356.83956
300.00015
300.00072
300.00204
300.00454
300.00871
300.01511
300.02435
300.03708
300.05403
300.07599
300.10398
300.1398
300.18994
300.28417
300.61034
301.86334
305.30465
311.64069
319.94956
328.58361
336.46136
342.83887
347.89955
352.0232
355.47208
358.46108
361.19544
363.88974
366.84832
370.54132
313.04088
325.27716
336.41467
346.68216
356.2918
365.39357
374.08891
382.41855
390.28647
397.58255
404.29123
410.36929
415.70603
418.91865
421.24796
422.57224
422.86537
422.25602
421.00396
419.41407
417.75406
416.22592
414.96831
414.06617
413.57351
413.55258
414.13638
415.61142
418.475
422.9408
300.28279
300.82113
301.56481
302.48292
303.55204
304.75469
306.07639
307.50754
309.24731
311.54285
314.60238
318.80257
324.34438
331.17747
339.06143
347.31227
355.09606
361.74465
366.89983
370.50163
372.71809
373.89424
374.43369
374.70415
375.02182
375.70289
377.17303
380.16333
386.05094
397.0057
300.0063
300.0242
300.0575
300.10954
300.18316
300.28088
300.4049
300.55728
300.74484
300.98008
301.28127
301.72512
302.91845
305.64589
310.5494
317.7714
326.64526
336.05327
344.93604
352.58524
358.68242
363.24191
366.49738
368.77734
370.42642
371.78164
373.20921
375.22847
378.82326
385.81556
300.00015
300.00074
300.00216
300.00492
300.0097
300.01728
300.02861
300.04477
300.06724
300.09808
300.14054
300.20288
300.32484
300.65358
302.19085
306.77254
314.65576
323.92601
333.03668
341.2674
348.30629
354.06439
358.61759
362.14711
364.88039
367.06152
368.95488
370.90839
373.56555
378.18627
)
;

boundaryField
{
    maxY
    {
        type            zeroGradient;
    }
    minX
    {
        type            fixedValue;
        value           uniform 300;
    }
    maxX
    {
        type            inletOutlet;
        inletValue      uniform 300;
        value           nonuniform List<scalar> 
40
(
422.98785
397.08454
385.92301
378.29462
405.46187
341.05354
357.0634
370.66252
401.73003
343.45613
347.57152
365.57217
428.79083
365.6982
357.60368
363.2025
457.3119
398.78576
300
378.56486
454.91309
395.12486
378.22027
300
426.93163
363.51711
355.90751
362.41158
401.63951
342.94018
347.259
365.37084
405.47107
341.05732
356.85256
370.53772
422.94778
397.01681
385.83163
378.19805
)
;
    }
    minZ
    {
        type            zeroGradient;
    }
    maxZ
    {
        type            zeroGradient;
    }
    topAir_to_rightSolid
    {
        type            compressible::turbulentTemperatureCoupledBaffleMixed;
        refValue        nonuniform List<scalar> 
130
(
589.57802
592.95066
596.37115
599.65466
602.64464
605.27915
607.54395
609.45634
611.036
612.26888
613.18399
613.7934
614.09712
586.43134
590.55894
594.63492
598.43549
601.82207
604.74696
607.21631
609.27272
610.93563
612.20101
613.14035
613.76929
614.08529
580.00149
585.81686
591.29049
596.17043
600.34844
603.82039
606.65213
608.93684
610.73295
612.07936
613.0455
613.68958
614.01451
570.2307
579.3222
587.08281
593.51045
598.70203
602.81983
606.06108
608.59332
610.54337
611.97952
612.98429
613.6258
613.94185
558.44652
573.02122
583.566
591.51341
597.5264
602.12069
605.64888
608.35641
610.41052
611.90474
612.93639
613.58358
613.89583
558.42364
573.00584
583.5721
591.51839
597.5294
602.12369
605.65165
608.3598
610.41493
611.91092
612.94573
613.59369
613.90587
570.1782
579.2809
587.05663
593.50462
598.69714
602.81725
606.0598
608.59358
610.5441
611.98397
612.99375
613.63532
613.94964
579.93471
585.75994
591.24588
596.14763
600.33024
603.80684
606.64435
608.9314
610.72723
612.07641
613.04486
613.69002
614.01629
586.37144
590.50248
594.58944
598.41296
601.80633
604.73259
607.20377
609.25946
610.91996
612.19086
613.1333
613.76464
614.08185
589.52666
592.89997
596.33271
599.63255
602.63062
605.27317
607.53875
609.4473
611.0206
612.25766
613.17624
613.78867
614.0927
)
;
        refGradient     uniform 0;
        valueFraction   uniform 0.99967867;
        value           nonuniform List<scalar> 
130
(
589.52425
592.8954
596.31428
599.59621
602.58474
605.218
607.48178
609.3934
610.97256
612.20522
613.12052
613.73065
614.03571
586.3703
590.49588
594.57
598.36893
601.75414
604.67793
607.14645
609.20226
610.86484
612.13024
613.07013
613.70051
614.01826
579.94446
585.75656
591.22703
596.10423
600.28003
603.75028
606.58074
608.86453
610.66002
612.00621
612.97275
613.61843
613.9463
570.18417
579.27307
587.0311
593.45616
598.6453
602.76097
606.00043
608.53121
610.48013
611.91561
612.9206
613.56389
613.88235
558.40371
572.9749
583.5175
591.46332
597.47481
602.06781
605.59502
608.30193
610.35589
611.85073
612.88325
613.53158
613.84552
558.38084
572.95951
583.52358
591.46823
597.47768
602.07059
605.59746
608.30485
610.35963
611.85598
612.89172
613.54088
613.85478
570.13167
579.23176
587.00489
593.45027
598.64031
602.75823
605.99891
608.53114
610.48045
611.91956
612.92946
613.57282
613.88955
579.87769
585.69963
591.18242
596.08142
600.26183
603.73672
606.57295
608.85906
610.65429
612.00326
612.97212
613.61888
613.94804
586.31043
590.43944
594.52454
598.34642
601.73842
604.66358
607.13391
609.189
610.84917
612.12008
613.0631
613.69587
614.01481
589.47291
592.84473
596.27586
599.5741
602.57072
605.21202
607.47658
609.38435
610.95715
612.194
613.11276
613.72591
614.03128
)
;
        Tnbr            T;
        thicknessLayers List<scalar> 0();
        kappaLayers     List<scalar> 0();
        kappaMethod     fluidThermo;
        kappa           none;
        alphaAni        none;
        alpha           none;
        field           T;
    }
    topAir_to_heater
    {
        type            compressible::turbulentTemperatureCoupledBaffleMixed;
        refValue        nonuniform List<scalar> 
40
(
581.19118
582.11115
583.9244
586.47675
576.02908
577.16501
579.40674
582.57976
565.0876
566.6538
569.78343
574.35942
547.03416
549.02117
553.40077
560.53993
519.84634
521.37708
526.41625
537.08321
519.81398
521.34842
526.3916
537.06045
546.91093
548.92215
553.32224
560.47604
565.00591
566.55432
569.68796
574.27953
575.99306
577.11462
579.3449
582.51797
581.17658
582.08993
583.88931
586.43251
)
;
        refGradient     uniform 0;
        valueFraction   uniform 0.99967867;
        value           nonuniform List<scalar> 
40
(
581.13903
582.05946
583.87255
586.42418
575.9738
577.1091
579.34953
582.52076
565.03743
566.60325
569.73159
574.30537
546.99185
548.97916
553.35823
560.49588
519.81262
521.34356
526.38184
537.04621
519.78026
521.31491
526.3572
537.02346
546.86865
548.88016
553.27972
560.432
564.95576
566.5038
569.63614
574.2255
575.9378
577.05873
579.2877
582.45898
581.12444
582.03825
583.83747
586.37995
)
;
        Tnbr            T;
        thicknessLayers List<scalar> 0();
        kappaLayers     List<scalar> 0();
        kappaMethod     fluidThermo;
        kappa           none;
        alphaAni        none;
        alpha           none;
        field           T;
    }
    topAir_to_leftSolid
    {
        type            compressible::turbulentTemperatureCoupledBaffleMixed;
        refValue        nonuniform List<scalar> 
130
(
617.17316
617.14029
617.07001
616.96535
616.82905
616.6918
616.55822
616.41647
616.25146
616.06171
615.86928
615.71082
615.61739
617.20811
617.17341
617.10887
617.01003
616.89114
616.75332
616.6114
616.45244
616.25727
616.02637
615.79213
615.59458
615.46966
617.20623
617.17541
617.11696
617.03955
616.95032
616.81124
616.6493
616.45615
616.19949
615.90922
615.59639
615.32701
615.16729
617.17269
617.1612
617.14049
617.09776
617.01315
616.87199
616.68476
616.44969
616.15168
615.79699
615.38884
615.03107
614.83519
617.13985
617.14311
617.14092
617.11246
617.03227
616.88441
616.68594
616.43462
616.11926
615.737
615.28764
614.82097
614.52354
617.13516
617.13785
617.13542
617.10771
617.02884
616.88136
616.6837
616.43305
616.11805
615.73471
615.28045
614.81332
614.53825
617.16798
617.15642
617.13586
617.09527
617.01238
616.86914
616.68215
616.44844
616.1546
615.80596
615.40163
615.045
614.83293
617.20388
617.17266
617.11509
617.0403
616.9546
616.81502
616.64607
616.45446
616.20643
615.93233
615.63086
615.37701
615.22161
617.21293
617.17794
617.11283
617.01472
616.89901
616.75796
616.61196
616.45628
616.27241
616.05997
615.82541
615.63386
615.50993
617.18043
617.14717
617.07684
616.97461
616.84282
616.70198
616.56873
616.43295
616.27669
616.09758
615.90179
615.7426
615.6489
)
;
        refGradient     uniform 0;
        valueFraction   uniform 0.99967867;
        value           nonuniform List<scalar> 
130
(
617.07543
617.0465
616.97982
616.8785
616.74533
616.61105
616.4803
616.34127
616.17884
615.9915
615.80129
615.64483
615.55315
617.11038
617.07957
617.01855
616.92291
616.807
616.67193
616.53258
616.376
616.18303
615.95413
615.72162
615.52549
615.40161
617.10849
617.08158
617.02665
616.95246
616.8662
616.7299
616.57057
616.37985
616.12548
615.83735
615.52648
615.25883
615.10056
617.07496
617.06738
617.05018
617.01067
616.92905
616.79069
616.60611
616.37356
616.07796
615.72559
615.31967
614.96402
614.7701
617.04213
617.04929
617.05062
617.02537
616.94817
616.80313
616.60732
616.35853
616.04561
615.66569
615.21861
614.75412
614.45869
617.03744
617.04403
617.04511
617.02063
616.94474
616.80008
616.60508
616.35696
616.0444
615.6634
615.21141
614.74648
614.4734
617.07025
617.06259
617.04556
617.00818
616.92827
616.78785
616.6035
616.37232
616.08089
615.73456
615.33245
614.97794
614.76784
617.10615
617.07883
617.02479
616.95321
616.87048
616.73368
616.56734
616.37816
616.13242
615.86045
615.56093
615.30882
615.15486
617.11519
617.0841
617.02251
616.9276
616.81486
616.67656
616.53313
616.37984
616.19817
615.98772
615.7549
615.56476
615.44186
617.0827
617.05338
616.98666
616.88775
616.7591
616.62123
616.49081
616.35775
616.20407
616.02737
615.83379
615.6766
615.58464
)
;
        Tnbr            T;
        thicknessLayers List<scalar> 0();
        kappaLayers     List<scalar> 0();
        kappaMethod     fluidThermo;
        kappa           none;
        alphaAni        none;
        alpha           none;
        field           T;
    }
}


// ************************************************************************* //
