/*--------------------------------*- C++ -*----------------------------------*\
| =========                 |                                                 |
| \\      /  F ield         | OpenFOAM: The Open Source CFD Toolbox           |
|  \\    /   O peration     | Version:  v2012                                 |
|   \\  /    A nd           | Website:  www.openfoam.com                      |
|    \\/     M anipulation  |                                                 |
\*---------------------------------------------------------------------------*/
FoamFile
{
    version     2.0;
    format      ascii;
    class       volScalarField;
    location    "420/bottomWater";
    object      p;
}
// * * * * * * * * * * * * * * * * * * * * * * * * * * * * * * * * * * * * * //

dimensions      [1 -1 -2 0 0 0 0];


internalField   nonuniform List<scalar> 
1460
(
353.42764
353.42082
353.43955
353.45694
353.45634
353.45333
353.44955
353.44648
353.4455
353.44849
353.44739
353.44937
353.45204
353.4529
353.45597
353.44236
353.46052
353.47673
353.4806
353.49703
353.4896
353.48715
353.48705
353.47539
353.49364
353.47721
353.49204
353.48496
353.48218
353.48605
274.4573
274.45343
274.48804
274.48427
274.4037
274.41917
274.42939
274.43471
274.41023
274.41741
274.41243
274.43076
274.43606
274.41854
274.4222
274.41269
274.45311
274.48709
274.47396
274.44493
274.39714
274.3765
274.38801
274.4172
274.4525
274.41394
274.43444
274.40559
274.37162
274.38821
196.30682
196.26827
196.23717
196.23959
196.26853
196.31334
196.32918
196.29516
196.31677
196.32762
196.30149
196.31507
196.31115
196.30365
196.30089
196.25505
196.22422
196.27124
196.26405
196.2646
196.26758
196.30269
196.31287
196.26871
196.27121
196.3163
196.27582
196.28357
196.29152
196.35444
117.66798
117.64144
117.63959
117.62902
117.64907
117.67862
117.65028
117.64557
117.6753
117.67692
117.65318
117.6288
117.62409
117.66793
117.68093
117.66915
117.65601
117.68158
117.66833
117.6441
117.58958
117.66983
117.6751
117.6402
117.67923
117.65734
117.64701
117.63768
117.6762
117.68569
39.228415
39.233257
39.247245
39.249886
39.248446
39.265986
39.296331
39.284212
39.258324
39.268821
39.244285
39.27755
39.263863
39.235695
39.229871
39.242359
39.237881
39.229092
39.225171
39.220914
39.25123
39.268504
39.261895
39.255674
39.246085
39.244883
39.263335
39.273198
39.27288
39.280541
353.42651
353.44036
353.43966
353.4477
353.44656
353.45366
353.44025
353.45829
353.44698
353.44581
353.43814
353.44429
353.44821
353.44872
353.45859
353.46211
353.45328
353.47474
353.47561
353.4957
353.49399
353.49071
353.48784
353.48202
353.49214
353.4911
353.49587
353.50302
353.47502
353.48536
274.46644
274.4733
274.48268
274.48488
274.46434
274.41768
274.46243
274.45094
274.42291
274.42517
274.42688
274.42862
274.42926
274.43038
274.42502
274.41924
274.41898
274.45052
274.45592
274.43522
274.38907
274.36143
274.37491
274.41199
274.41997
274.38482
274.3784
274.43433
274.39402
274.38804
196.29235
196.26772
196.26408
196.23714
196.24818
196.23837
196.31607
196.23421
196.28944
196.28183
196.27812
196.30573
196.31092
196.29484
196.30132
196.2882
196.24965
196.23153
196.26661
196.26617
196.26596
196.30405
196.31122
196.2918
196.26655
196.34259
196.30301
196.24138
196.27811
196.30397
117.63599
117.65516
117.65649
117.64027
117.61336
117.67417
117.60754
117.64119
117.64673
117.6513
117.63544
117.65018
117.65153
117.62381
117.66
117.66975
117.63091
117.65514
117.64982
117.63826
117.58165
117.67183
117.67529
117.62515
117.66204
117.68036
117.67368
117.65176
117.65106
117.67525
39.241402
39.222696
39.221942
39.222149
39.236551
39.236271
39.272293
39.252914
39.239349
39.235489
39.226551
39.225312
39.225117
39.253648
39.232441
39.22696
39.242884
39.244668
39.227096
39.232702
39.258976
39.278552
39.269023
39.27104
39.246572
39.246652
39.248381
39.255604
39.273437
39.261877
353.42637
353.42336
353.42442
353.43818
353.45446
353.46452
353.45304
353.46068
353.44969
353.44848
353.45901
353.45792
353.46222
353.47055
353.47219
353.47876
353.47955
353.47031
353.4679
353.48731
353.49881
353.49203
353.49099
353.48746
353.48343
353.47693
353.48071
353.49097
353.48208
353.48092
274.46083
274.45375
274.45663
274.47415
274.48757
274.43644
274.41695
274.41084
274.42069
274.44191
274.47748
274.48124
274.47693
274.46172
274.43671
274.39488
274.3987
274.41329
274.41312
274.44061
274.40367
274.36455
274.37326
274.42328
274.43392
274.39038
274.39483
274.45409
274.42876
274.40103
196.31495
196.3042
196.31596
196.25478
196.24151
196.23279
196.27988
196.30962
196.28139
196.2395
196.23014
196.25456
196.26112
196.25769
196.246
196.28743
196.29705
196.264
196.28123
196.2631
196.25749
196.28452
196.32504
196.25225
196.28307
196.30734
196.31624
196.26168
196.26098
196.29396
117.6143
117.61228
117.65209
117.66494
117.65637
117.65236
117.66913
117.69712
117.69086
117.67859
117.67968
117.6969
117.67132
117.6475
117.63116
117.66217
117.67887
117.63398
117.64219
117.63749
117.60087
117.66944
117.66238
117.63028
117.64196
117.66551
117.67028
117.65
117.64678
117.66126
39.271021
39.234175
39.232037
39.220391
39.225474
39.23813
39.235961
39.252896
39.238055
39.239275
39.220506
39.227236
39.22792
39.228242
39.250062
39.250553
39.261016
39.259067
39.240456
39.243139
39.260608
39.268439
39.261533
39.260657
39.243298
39.233826
39.236115
39.233072
39.248813
39.248143
353.42783
353.42878
353.42445
353.41911
353.43574
353.45442
353.45616
353.45359
353.44344
353.45718
353.47179
353.44078
353.45728
353.45327
353.48283
353.47377
353.47644
353.47181
353.4569
353.48341
353.48989
353.49355
353.49014
353.48938
353.49908
353.50408
353.50183
353.49367
353.47682
353.48223
274.43353
274.43267
274.44242
274.44307
274.46086
274.49095
274.44164
274.42449
274.43182
274.48488
274.52404
274.43737
274.48525
274.48398
274.48245
274.40818
274.3936
274.40792
274.4123
274.44477
274.4432
274.38646
274.37628
274.39638
274.43068
274.44001
274.45348
274.46349
274.40492
274.40226
196.30665
196.296
196.27283
196.27866
196.24485
196.22745
196.27415
196.25896
196.24455
196.22932
196.22543
196.30829
196.27885
196.26526
196.2492
196.25746
196.28784
196.28087
196.27959
196.26076
196.2445
196.26766
196.28519
196.28872
196.24342
196.26212
196.26946
196.26592
196.29249
196.32277
117.67391
117.67194
117.66619
117.66977
117.66323
117.65292
117.63003
117.67296
117.64647
117.66379
117.65329
117.67623
117.68845
117.64498
117.6514
117.62534
117.68823
117.6819
117.66154
117.65528
117.62323
117.61918
117.67257
117.63248
117.6584
117.68843
117.69219
117.67436
117.66798
117.68384
39.256764
39.250608
39.243616
39.230892
39.224127
39.238442
39.249161
39.25808
39.255363
39.24768
39.238101
39.224653
39.23079
39.229557
39.259863
39.256624
39.268047
39.25459
39.247366
39.236267
39.246708
39.261796
39.260075
39.246118
39.231523
39.22577
39.224375
39.226423
39.227889
39.23158
353.42891
353.42873
353.42953
353.43154
353.41829
353.45002
353.45885
353.45189
353.45051
353.44151
353.45475
353.45848
353.43309
353.48431
353.48029
353.49256
353.48294
353.49303
353.47559
353.47771
353.46471
353.46518
353.47563
353.48164
353.48327
353.47647
274.44071
274.44059
274.45696
274.45092
274.43811
274.48273
274.4766
274.41986
274.42972
274.42138
274.48203
274.48153
274.45001
274.39086
274.4083
274.45398
274.47151
274.43609
274.39598
274.39099
274.39652
274.40411
274.43065
274.46327
274.44365
274.41939
196.32704
196.31206
196.30984
196.29904
196.25618
196.22869
196.24442
196.27605
196.27505
196.24111
196.22522
196.21766
196.26919
196.28992
196.26708
196.26457
196.27529
196.24649
196.28634
196.29348
196.27884
196.26816
196.24474
196.2494
196.24646
196.28724
117.67147
117.66043
117.64634
117.6741
117.66943
117.66223
117.66417
117.67178
117.6912
117.64657
117.65433
117.64574
117.67666
117.68645
117.65364
117.6843
117.65254
117.65971
117.65318
117.68797
117.65424
117.63524
117.6311
117.62701
117.63951
117.64517
39.261116
39.259411
39.257103
39.225903
39.232871
39.245486
39.240922
39.244777
39.25111
39.246903
39.244844
39.234716
39.22826
39.237914
39.229635
39.223317
39.225703
39.232698
39.232924
39.228963
39.223561
39.221005
39.227187
39.254154
39.255632
39.249116
353.42448
353.42445
353.41209
353.42574
353.42797
353.42228
353.45766
353.43425
353.44502
353.43765
353.43095
353.42888
353.43034
353.47627
353.47096
353.47489
353.48422
353.48118
353.46641
353.48292
353.47481
353.47514
353.47028
353.47141
353.47209
353.47489
274.4557
274.46361
274.44568
274.44713
274.4343
274.43881
274.47259
274.4276
274.41972
274.42145
274.43629
274.44142
274.43468
274.38896
274.38872
274.42005
274.47211
274.43507
274.39596
274.39069
274.39509
274.38839
274.3878
274.39015
274.37543
274.40138
196.29573
196.27344
196.30434
196.31873
196.28729
196.268
196.23375
196.26816
196.28103
196.28888
196.26508
196.27132
196.27853
196.29608
196.25647
196.23053
196.23096
196.24338
196.29016
196.29461
196.30489
196.29377
196.29793
196.30739
196.30712
196.31344
117.63033
117.63634
117.65932
117.68948
117.68266
117.64403
117.65687
117.63953
117.68824
117.66579
117.63495
117.63738
117.6676
117.67908
117.65345
117.6481
117.65422
117.65648
117.6694
117.70872
117.67928
117.68061
117.66752
117.67323
117.66687
117.63164
39.261223
39.242148
39.234001
39.233992
39.216687
39.235616
39.258977
39.265007
39.263746
39.259922
39.26288
39.2523
39.236546
39.255032
39.251159
39.242377
39.246643
39.22975
39.23366
39.25064
39.252425
39.257549
39.247267
39.252472
39.249758
39.282752
353.43896
353.44273
353.43616
353.4309
353.43628
353.4317
353.45287
353.44415
353.45317
353.44539
353.44476
353.44215
353.44145
353.45779
353.46231
353.48037
353.47042
353.47459
353.47431
353.46901
353.46214
353.47164
353.46309
353.47511
353.46643
353.47103
353.46879
353.47056
353.47613
353.47304
274.46499
274.48755
274.47501
274.44181
274.43066
274.43828
274.45843
274.42326
274.41069
274.42081
274.41811
274.43907
274.45077
274.47204
274.48764
274.46952
274.40438
274.38454
274.38542
274.38711
274.39808
274.40722
274.39741
274.39179
274.40256
274.40389
274.39797
274.38979
274.38524
274.40304
196.2871
196.26261
196.26912
196.29061
196.27977
196.29257
196.23902
196.28772
196.29991
196.32717
196.29355
196.28133
196.28825
196.2739
196.26856
196.23309
196.24987
196.28155
196.32059
196.28264
196.27706
196.27846
196.28706
196.31296
196.29415
196.29714
196.29074
196.29948
196.31459
196.32175
117.63237
117.64453
117.66721
117.67834
117.6874
117.65812
117.65437
117.6401
117.68719
117.67891
117.66039
117.65417
117.64671
117.67048
117.67448
117.65432
117.63827
117.6816
117.6815
117.66569
117.63304
117.62614
117.64208
117.65411
117.64788
117.62576
117.64251
117.65033
117.66616
117.6253
39.256643
39.225885
39.21905
39.229783
39.231646
39.232864
39.260981
39.280099
39.267626
39.272176
39.253374
39.255988
39.245049
39.228219
39.227476
39.239384
39.255804
39.25846
39.275555
39.259021
39.269273
39.262094
39.239965
39.22817
39.254373
39.267386
39.242575
39.252884
39.260979
39.290144
353.44835
353.45431
353.45103
353.43687
353.43111
353.43215
353.43906
353.43973
353.44285
353.43997
353.43589
353.44202
353.46076
353.46751
353.46373
353.48434
353.47341
353.4813
353.47923
353.47758
353.47694
353.47413
353.47008
353.49431
353.48831
353.49089
353.4868
353.47378
353.47613
353.47692
274.43691
274.47052
274.49097
274.46455
274.44508
274.4404
274.44172
274.43495
274.41497
274.42726
274.41345
274.44821
274.47295
274.48229
274.47954
274.46789
274.3956
274.38287
274.38335
274.41851
274.38795
274.39456
274.40579
274.44794
274.45784
274.45122
274.43685
274.40473
274.39143
274.41644
196.28822
196.24973
196.25302
196.26957
196.30147
196.30767
196.30477
196.30819
196.30023
196.32447
196.26115
196.25596
196.24349
196.26889
196.26512
196.22835
196.24592
196.28806
196.30195
196.29011
196.29519
196.27008
196.25082
196.21711
196.24991
196.25448
196.26529
196.26271
196.27939
196.31538
117.64812
117.63169
117.64158
117.6481
117.66824
117.64726
117.6257
117.61441
117.66884
117.67315
117.66542
117.64146
117.65283
117.66562
117.67526
117.65112
117.64981
117.68309
117.69012
117.63136
117.67984
117.66343
117.66187
117.6684
117.67379
117.67479
117.67864
117.63002
117.67353
117.61593
39.246273
39.248491
39.229583
39.214002
39.230453
39.232735
39.25911
39.272961
39.24812
39.263138
39.244717
39.257916
39.239808
39.224979
39.232557
39.247165
39.254244
39.257509
39.268706
39.270359
39.243961
39.234593
39.235871
39.23032
39.222736
39.22752
39.216939
39.222528
39.225165
39.259844
353.45384
353.45468
353.45594
353.45368
353.46257
353.43659
353.4533
353.44042
353.44548
353.44288
353.44211
353.4449
353.45229
353.46448
353.46696
353.46608
353.4679
353.47164
353.46399
353.4785
353.47444
353.47374
353.46348
353.49754
353.48981
353.4955
353.4956
353.49439
353.48214
353.48872
274.41787
274.41607
274.41853
274.4589
274.49138
274.45054
274.46735
274.4342
274.41703
274.41566
274.433
274.44397
274.43385
274.45299
274.44182
274.41015
274.39812
274.39327
274.41229
274.4293
274.38616
274.3857
274.38986
274.477
274.50271
274.48443
274.47063
274.44767
274.40174
274.39665
196.32969
196.29743
196.27225
196.24732
196.23056
196.2853
196.27248
196.29176
196.29417
196.30455
196.28714
196.2888
196.28668
196.26609
196.25704
196.25324
196.28546
196.28547
196.28539
196.26717
196.30878
196.26987
196.23711
196.22932
196.23707
196.26693
196.27876
196.24251
196.25273
196.29221
117.66733
117.65375
117.64096
117.62548
117.63478
117.65307
117.67219
117.63424
117.66683
117.66013
117.61752
117.63495
117.62612
117.66213
117.65877
117.63708
117.66943
117.68203
117.64116
117.65101
117.68501
117.67844
117.63038
117.64982
117.64747
117.68516
117.66634
117.62864
117.62063
117.67549
39.265782
39.254956
39.247579
39.243442
39.235736
39.224756
39.226321
39.23064
39.238727
39.24586
39.266461
39.263442
39.234051
39.220847
39.231168
39.248045
39.248098
39.257129
39.277679
39.254373
39.242826
39.249758
39.229619
39.23507
39.229857
39.221345
39.220481
39.236105
39.256275
39.264284
353.45249
353.45445
353.45469
353.45264
353.45708
353.45723
353.44826
353.43736
353.44964
353.42882
353.46158
353.46123
353.45964
353.46252
353.46173
353.46678
353.46501
353.46903
353.48886
353.48449
353.48218
353.48684
353.47748
353.4924
353.49217
353.48567
353.48092
353.48814
353.48048
353.48131
274.43626
274.43409
274.4265
274.41062
274.46507
274.50481
274.47386
274.44567
274.43642
274.44145
274.47952
274.49078
274.41416
274.41931
274.41234
274.4101
274.40513
274.42401
274.47946
274.44289
274.39955
274.39002
274.37179
274.42385
274.46666
274.45431
274.41686
274.45393
274.41658
274.39023
196.33599
196.32777
196.3233
196.26672
196.24705
196.22996
196.25937
196.30292
196.28448
196.26739
196.23889
196.25098
196.29842
196.30015
196.30061
196.2973
196.28015
196.24906
196.24602
196.26584
196.31706
196.31407
196.25397
196.24351
196.23934
196.27746
196.31544
196.2746
196.27468
196.29648
117.62767
117.62426
117.67193
117.67152
117.64028
117.64177
117.66932
117.66568
117.67924
117.63927
117.64294
117.64739
117.67002
117.67644
117.66618
117.6841
117.69022
117.66668
117.65463
117.67868
117.68737
117.69788
117.66391
117.61909
117.62953
117.6524
117.66296
117.6276
117.62269
117.67381
39.319494
39.286618
39.247318
39.234245
39.241234
39.238736
39.223706
39.22668
39.228913
39.229941
39.250392
39.246121
39.223724
39.241164
39.242494
39.251002
39.243051
39.241825
39.261953
39.244231
39.240193
39.284255
39.250275
39.256903
39.248418
39.22325
39.23034
39.24912
39.260985
39.25635
)
;

boundaryField
{
    minX
    {
        type            calculated;
        value           nonuniform List<scalar> 
50
(
353.42764
274.4573
196.30682
117.66798
39.228415
353.42651
274.46644
196.29235
117.63599
39.241402
353.42637
274.46083
196.31495
117.6143
39.271021
353.42783
274.43353
196.30665
117.67391
39.256764
353.42891
274.44071
196.32704
117.67147
39.261116
353.42448
274.4557
196.29573
117.63033
39.261223
353.43896
274.46499
196.2871
117.63237
39.256643
353.44835
274.43691
196.28822
117.64812
39.246273
353.45384
274.41787
196.32969
117.66733
39.265782
353.45249
274.43626
196.33599
117.62767
39.319494
)
;
    }
    maxX
    {
        type            calculated;
        value           nonuniform List<scalar> 
50
(
353.48605
274.38821
196.35444
117.68569
39.280541
353.48536
274.38804
196.30397
117.67525
39.261877
353.48092
274.40103
196.29396
117.66126
39.248143
353.48223
274.40226
196.32277
117.68384
39.23158
353.47647
274.41939
196.28724
117.64517
39.249116
353.47489
274.40138
196.31344
117.63164
39.282752
353.47304
274.40304
196.32175
117.6253
39.290144
353.47692
274.41644
196.31538
117.61593
39.259844
353.48872
274.39665
196.29221
117.67549
39.264284
353.48131
274.39023
196.29648
117.67381
39.25635
)
;
    }
    minY
    {
        type            calculated;
        value           nonuniform List<scalar> 
292
(
392.4
392.4
392.4
392.4
392.4
392.4
392.4
392.4
392.4
392.4
392.4
392.4
392.4
392.4
392.4
392.4
392.4
392.4
392.4
392.4
392.4
392.4
392.4
392.4
392.4
392.4
392.4
392.4
392.4
392.4
392.4
392.4
392.4
392.4
392.4
392.4
392.4
392.4
392.4
392.4
392.4
392.4
392.4
392.4
392.4
392.4
392.4
392.4
392.4
392.4
392.4
392.4
392.4
392.4
392.4
392.4
392.4
392.4
392.4
392.4
392.4
392.4
392.4
392.4
392.4
392.4
392.4
392.4
392.4
392.4
392.4
392.4
392.4
392.4
392.4
392.4
392.4
392.4
392.4
392.4
392.4
392.4
392.4
392.4
392.4
392.4
392.4
392.4
392.4
392.4
392.4
392.4
392.4
392.4
392.4
392.4
392.4
392.4
392.4
392.4
392.4
392.4
392.4
392.4
392.4
392.4
392.4
392.4
392.4
392.4
392.4
392.4
392.4
392.4
392.4
392.4
392.4
392.4
392.4
392.4
392.4
392.4
392.4
392.4
392.4
392.4
392.4
392.4
392.4
392.4
392.4
392.4
392.4
392.4
392.4
392.4
392.4
392.4
392.4
392.4
392.4
392.4
392.4
392.4
392.4
392.4
392.4
392.4
392.4
392.4
392.4
392.4
392.4
392.4
392.4
392.4
392.4
392.4
392.4
392.4
392.4
392.4
392.4
392.4
392.4
392.4
392.4
392.4
392.4
392.4
392.4
392.4
392.4
392.4
392.4
392.4
392.4
392.4
392.4
392.4
392.4
392.4
392.4
392.4
392.4
392.4
392.4
392.4
392.4
392.4
392.4
392.4
392.4
392.4
392.4
392.4
392.4
392.4
392.4
392.4
392.4
392.4
392.4
392.4
392.4
392.4
392.4
392.4
392.4
392.4
392.4
392.4
392.4
392.4
392.4
392.4
392.4
392.4
392.4
392.4
392.4
392.4
392.4
392.4
392.4
392.4
392.4
392.4
392.4
392.4
392.4
392.4
392.4
392.4
392.4
392.4
392.4
392.4
392.4
392.4
392.4
392.4
392.4
392.4
392.4
392.4
392.4
392.4
392.4
392.4
392.4
392.4
392.4
392.4
392.4
392.4
392.4
392.4
392.4
392.4
392.4
392.4
392.4
392.4
392.4
392.4
392.4
392.4
392.4
392.4
392.4
392.4
392.4
392.4
392.4
392.4
392.4
392.4
392.4
392.4
392.4
392.4
392.4
392.4
392.4
392.4
392.4
392.4
392.4
392.4
392.4
392.4
)
;
    }
    minZ
    {
        type            calculated;
        value           nonuniform List<scalar> 
150
(
353.42764
274.4573
196.30682
117.66798
39.228415
353.42082
274.45343
196.26827
117.64144
39.233257
353.43955
274.48804
196.23717
117.63959
39.247245
353.45694
274.48427
196.23959
117.62902
39.249886
353.45634
274.4037
196.26853
117.64907
39.248446
353.45333
274.41917
196.31334
117.67862
39.265986
353.44955
274.42939
196.32918
117.65028
39.296331
353.44648
274.43471
196.29516
117.64557
39.284212
353.4455
274.41023
196.31677
117.6753
39.258324
353.44849
274.41741
196.32762
117.67692
39.268821
353.44739
274.41243
196.30149
117.65318
39.244285
353.44937
274.43076
196.31507
117.6288
39.27755
353.45204
274.43606
196.31115
117.62409
39.263863
353.4529
274.41854
196.30365
117.66793
39.235695
353.45597
274.4222
196.30089
117.68093
39.229871
353.44236
274.41269
196.25505
117.66915
39.242359
353.46052
274.45311
196.22422
117.65601
39.237881
353.47673
274.48709
196.27124
117.68158
39.229092
353.4806
274.47396
196.26405
117.66833
39.225171
353.49703
274.44493
196.2646
117.6441
39.220914
353.4896
274.39714
196.26758
117.58958
39.25123
353.48715
274.3765
196.30269
117.66983
39.268504
353.48705
274.38801
196.31287
117.6751
39.261895
353.47539
274.4172
196.26871
117.6402
39.255674
353.49364
274.4525
196.27121
117.67923
39.246085
353.47721
274.41394
196.3163
117.65734
39.244883
353.49204
274.43444
196.27582
117.64701
39.263335
353.48496
274.40559
196.28357
117.63768
39.273198
353.48218
274.37162
196.29152
117.6762
39.27288
353.48605
274.38821
196.35444
117.68569
39.280541
)
;
    }
    maxZ
    {
        type            calculated;
        value           nonuniform List<scalar> 
150
(
353.45249
274.43626
196.33599
117.62767
39.319494
353.45445
274.43409
196.32777
117.62426
39.286618
353.45469
274.4265
196.3233
117.67193
39.247318
353.45264
274.41062
196.26672
117.67152
39.234245
353.45708
274.46507
196.24705
117.64028
39.241234
353.45723
274.50481
196.22996
117.64177
39.238736
353.44826
274.47386
196.25937
117.66932
39.223706
353.43736
274.44567
196.30292
117.66568
39.22668
353.44964
274.43642
196.28448
117.67924
39.228913
353.42882
274.44145
196.26739
117.63927
39.229941
353.46158
274.47952
196.23889
117.64294
39.250392
353.46123
274.49078
196.25098
117.64739
39.246121
353.45964
274.41416
196.29842
117.67002
39.223724
353.46252
274.41931
196.30015
117.67644
39.241164
353.46173
274.41234
196.30061
117.66618
39.242494
353.46678
274.4101
196.2973
117.6841
39.251002
353.46501
274.40513
196.28015
117.69022
39.243051
353.46903
274.42401
196.24906
117.66668
39.241825
353.48886
274.47946
196.24602
117.65463
39.261953
353.48449
274.44289
196.26584
117.67868
39.244231
353.48218
274.39955
196.31706
117.68737
39.240193
353.48684
274.39002
196.31407
117.69788
39.284255
353.47748
274.37179
196.25397
117.66391
39.250275
353.4924
274.42385
196.24351
117.61909
39.256903
353.49217
274.46666
196.23934
117.62953
39.248418
353.48567
274.45431
196.27746
117.6524
39.22325
353.48092
274.41686
196.31544
117.66296
39.23034
353.48814
274.45393
196.2746
117.6276
39.24912
353.48048
274.41658
196.27468
117.62269
39.260985
353.48131
274.39023
196.29648
117.67381
39.25635
)
;
    }
    bottomWater_to_rightSolid
    {
        type            calculated;
        value           nonuniform List<scalar> 
130
(
-0.010908424
-0.014829232
-0.01908562
0.011230132
0.028504001
0.021895171
0.015673969
0.0060845722
0.0048832385
0.023335051
0.033197716
0.032880475
0.040540893
0.0046677855
-0.01290411
-0.0072976911
0.018975665
0.038552123
0.029022512
0.031040379
0.0065719511
0.0066516527
0.0083808125
0.015604347
0.033437298
0.021877302
0.019066614
0.00045620855
0.00313898
0.020608421
0.028438779
0.021532602
0.02065677
0.0032975851
-0.0061735002
-0.0038850493
-0.0069282871
0.0088129926
0.0081425847
0.014590432
0.0073661103
-0.0037331055
0.006707592
0.021795856
0.020075091
0.0061176426
-0.0084766261
-0.014229703
-0.015625152
-0.013576921
-0.012111136
-0.0084198094
-0.0020864554
-0.010364606
-0.016682929
-0.014297065
-0.007301536
-0.007075977
-0.011036676
-0.016439181
-0.018995357
-0.012812674
0.014153683
0.015631763
0.0091158629
0.01503159
0.011158872
0.0023770068
0.0066429699
-0.010249513
-0.0063396119
0.010640192
0.012425119
0.017548611
0.0072672095
0.012471702
0.0097582028
0.042751651
0.018459572
0.035554719
0.019021179
0.029273093
0.022093802
-3.5352778e-05
-0.011829947
0.014372762
0.027386208
0.002574686
0.012884052
0.020979019
0.050143781
0.017509419
0.028705503
0.030358777
0.0039610043
-0.0054067354
-0.0041292053
-0.0096797796
-0.01726357
-0.01247965
-0.023060768
-0.017472126
-0.014835377
0.019843856
0.017129261
0.037679199
0.014373293
0.0028258029
0.0097578611
-0.010380641
-0.0049299132
-0.010142505
-0.018655254
-0.019519016
-0.0038947151
0.016275257
0.024283892
0.0018252918
0.021952574
0.0042308977
0.0001927854
0.044254549
0.010275446
0.016902723
0.0084181369
-0.01674964
-0.0096600863
0.009120443
0.020984931
0.016350377
)
;
    }
    bottomWater_to_leftSolid
    {
        type            calculated;
        value           nonuniform List<scalar> 
130
(
-0.011585378
-0.0067432532
0.0072450018
0.0098857756
0.0084458963
0.025986248
0.056331417
0.044212
0.01832367
0.028820788
0.0042847042
0.037549638
0.023863251
0.001402032
-0.01730404
-0.018058116
-0.017850744
-0.0034492108
-0.0037286269
0.032292723
0.012914468
-0.00065098271
-0.0045105975
-0.013448517
-0.014687853
-0.014883376
0.031021359
-0.0058248504
-0.0079631879
-0.019609155
-0.014526198
-0.0018697998
-0.0040388964
0.012896434
-0.0019447004
-0.00072457117
-0.019494456
-0.012764388
-0.012080189
0.016764421
0.010608001
0.0036160464
-0.0091075525
-0.01587305
-0.0015584504
0.0091613114
0.018080161
0.015363241
0.0076801217
-0.0018994344
-0.015347427
-0.0092102537
0.021116402
0.019410575
0.017102737
-0.01409665
-0.0071292901
0.0054863686
0.00092184932
0.0047767559
0.011110302
0.006902575
0.004843519
-0.0052842751
-0.011739626
0.021222861
0.0021481362
-0.0059991636
-0.0060082762
-0.023313239
-0.0043844905
0.018976743
0.025007447
0.023745569
0.019922127
0.022880358
0.012300145
-0.0034538913
0.016642528
-0.014114526
-0.020950484
-0.01021714
-0.0083544137
-0.0071359958
0.020981443
0.040098613
0.027625526
0.032176206
0.013373847
0.015988092
0.0050487276
0.0062730545
0.0084907518
-0.010416583
-0.025998486
-0.009546705
-0.0072650371
0.019110499
0.032961475
0.0081195998
0.023138141
0.0047167461
0.017915678
-0.00019215442
0.025782286
0.014956221
0.0075788066
0.0034418758
-0.0042635532
-0.015244168
-0.013679106
-0.0093601675
-0.0012727605
0.0058595757
0.026460754
0.023441993
-0.0059494111
0.079494381
0.046618405
0.0073178819
-0.0057548712
0.0012339452
-0.0012642697
-0.016294172
-0.01331964
-0.011087088
-0.010059155
0.010392029
0.0061212805
-0.016276384
)
;
    }
    bottomWater_to_heater
    {
        type            calculated;
        value           nonuniform List<scalar> 
92
(
-0.0043045183
-0.010129072
0.0023586697
-0.0021191584
0.013647891
-0.0075585448
-0.013040025
0.0028843206
-0.011758131
0.010061836
0.010552708
0.021015628
353.45327
353.48283
353.47377
353.47644
274.48398
274.48245
274.40818
274.3936
196.26526
196.2492
196.25746
196.28784
117.64498
117.6514
117.62534
117.68823
-0.010442587
39.229557
0.019862939
39.259863
0.016624094
39.256624
0.028046739
39.268047
353.43309
353.48431
274.45001
274.39086
196.26919
196.28992
117.67666
117.68645
39.22826
39.237914
353.43034
353.45779
353.46231
353.48037
353.47627
353.47042
274.43468
274.47204
274.48764
274.46952
274.38896
274.40438
196.27853
196.2739
196.26856
196.23309
196.29608
196.24987
117.6676
117.67048
117.67448
117.65432
117.67908
117.63827
39.236546
39.228219
39.227476
39.239384
39.255032
39.255804
-0.011781034
-0.012523861
-0.00061645064
0.01580407
-0.015021347
-0.0074433113
0.0071649154
0.014243609
-0.019152939
-0.008831526
0.0080449816
0.0080981512
0.0011640813
0.0024939518
0.011001891
0.003051377
)
;
    }
}


// ************************************************************************* //
