/*--------------------------------*- C++ -*----------------------------------*\
| =========                 |                                                 |
| \\      /  F ield         | OpenFOAM: The Open Source CFD Toolbox           |
|  \\    /   O peration     | Version:  v2012                                 |
|   \\  /    A nd           | Website:  www.openfoam.com                      |
|    \\/     M anipulation  |                                                 |
\*---------------------------------------------------------------------------*/
FoamFile
{
    version     2.0;
    format      ascii;
    class       surfaceScalarField;
    location    "420/bottomWater";
    object      phi;
}
// * * * * * * * * * * * * * * * * * * * * * * * * * * * * * * * * * * * * * //

dimensions      [1 0 -1 0 0 0 0];
oriented        oriented;


internalField   nonuniform List<scalar> 
3858
(
-0.00012386732
0.0001362581
-4.7649916e-06
-0.00021596588
0.00016151766
-6.0092998e-05
-3.4638121e-05
-0.00020551388
2.9333398e-05
0.00012310493
-0.00015692618
3.6185118e-07
0.00013079713
5.5126502e-05
-6.1462352e-05
9.1196371e-05
0.00012753404
-8.5861123e-05
1.2573574e-05
0.00011349613
-3.2115112e-05
-8.4483914e-05
0.00015485548
-5.4316177e-05
-0.00016347465
0.00016493612
-8.2099502e-05
-0.00017591532
0.00014268479
-0.00012696834
-0.00019671307
0.00015082353
-0.00012647518
-0.00018757989
0.00010474798
-0.00011080635
-0.00017430581
0.00011447799
-0.00012526284
-0.00021162902
0.00015784567
-0.00011817549
-0.00027202776
0.0001667648
-0.00010461802
-0.00039479456
0.000173685
-4.608222e-05
-0.00029907095
-0.0001755407
8.0724394e-05
-0.00010014258
-0.00030440519
0.00010271213
8.1170758e-05
-0.0002594274
7.4244694e-05
0.00023487031
-0.00019251797
3.135367e-05
0.00019807386
9.0200703e-06
2.1879973e-05
6.6933392e-05
0.00010059669
2.5121814e-05
-7.9525619e-05
0.00010178639
3.9180641e-05
-5.8915345e-05
-4.871038e-05
2.511821e-05
0.00015711127
-0.00030815544
8.5475322e-05
0.00017349204
-4.273653e-05
2.3130541e-05
0.0002402373
-0.0001321447
5.9092473e-05
0.00025550858
2.7477575e-05
-4.7527043e-05
0.00012277492
0.00015936343
-3.080017e-05
0.00013041971
-1.2914765e-05
-0.00016129872
0.00031974512
-2.2188315e-05
7.4755699e-06
8.5181335e-05
-9.2437964e-05
0.00036205857
-0.00051316589
-4.6930981e-05
0.00063322824
-0.0003606019
-6.7493943e-05
0.00044354877
0.0004392184
-0.00019441242
9.897847e-05
0.00064053193
-0.00016842758
5.7120541e-05
0.00019630685
-4.0952777e-05
0.00023563472
4.9785281e-06
-2.863722e-05
-5.1037617e-06
0.00048956239
-8.3887781e-05
-0.00022175353
0.00056443854
-0.00020510398
-0.00028278328
0.00046500393
-0.00025315066
-6.5543542e-05
4.0258409e-05
-0.00015275017
0.00014860539
7.4146526e-05
-0.00017381746
-3.8851888e-05
0.00055207433
-0.00020677137
-0.00026437405
0.00046125802
-6.8971031e-05
-0.00024281332
7.5050537e-05
7.7073741e-05
-5.6826318e-05
-0.0005098074
0.00014827971
0.00012636981
-0.00060569395
0.00011809263
0.00037831764
-0.00055128684
3.991161e-05
0.00067072764
-0.00046190327
-2.3024709e-05
0.00070129999
3.383861e-05
-5.5390898e-05
0.00015494191
0.00068284552
-3.5890755e-05
-0.00026983606
0.00046012114
6.6443222e-05
-0.00013176325
-0.00022528471
3.8501515e-05
0.00013634827
-0.00066057823
8.4311273e-05
0.00024219945
-0.00019566122
4.7073504e-05
0.00045496525
-0.00040911478
6.4204287e-05
0.00056212674
-7.3014762e-05
-6.6691559e-06
0.00034579351
0.00054046892
-0.00016477226
0.00060186474
-0.00012565152
0.00037036384
-6.443012e-05
1.3811392e-05
0.00052330382
-2.2442049e-05
-4.5316609e-05
0.0001988631
-6.9957013e-05
-0.00011876816
3.3470691e-05
-0.00011407402
-8.1135477e-05
6.9075728e-05
0.00038114043
2.2472933e-05
6.2836101e-05
0.00064104529
5.7262788e-06
2.9500874e-05
0.00010089929
0.00012874279
-8.7134281e-05
-9.46116e-05
0.00021622529
-9.9945168e-05
0.0004543502
4.8023079e-05
-0.0001330946
0.00054393833
5.3649654e-05
-0.00010866507
0.00035675801
8.3816384e-05
-9.9875462e-06
-0.00010885732
5.0438207e-05
8.8835156e-05
-6.0176616e-05
3.5500452e-05
0.00017034379
0.00040460694
6.5958772e-05
0.00041574511
0.00016197319
5.3883517e-05
0.00051988759
-3.1371582e-05
2.2796695e-06
0.00020379308
-9.8037514e-05
-9.5675359e-05
8.5946222e-05
-0.00046541769
-2.2429382e-05
0.00011774121
-0.00050636219
-7.6719637e-05
4.8113964e-05
-0.00030988221
-8.2393806e-05
0.00011267915
-4.6175288e-05
1.5448706e-05
0.00021383581
0.00060475077
-2.3061914e-05
0.00029111863
0.00035431175
2.8526553e-05
0.0001763525
-0.0001226561
1.2137513e-05
-1.5917789e-05
-0.00048849724
2.0189295e-05
0.00019078468
-0.00035937252
-4.2991176e-05
4.1094539e-06
-0.00011948416
-0.0001029554
-9.004352e-05
-0.00013942675
0.00016056496
-9.8429296e-06
0.00041858673
4.1681591e-05
0.00059102051
1.0013e-06
0.00015316043
-0.00038331622
0.00016572564
0.00019761621
-3.5581507e-06
-6.3339684e-05
-5.4821001e-05
0.00021004055
-2.7560358e-05
-0.00023986173
0.00015440751
-8.3440794e-05
-9.5332147e-05
0.00017258777
6.4023084e-05
0.0001411506
0.00035171238
5.285018e-05
-9.4312341e-05
0.00036730131
-3.0939072e-05
-0.00033519863
0.00021515026
-6.8875559e-05
-0.00010306012
0.00018495701
3.7254682e-05
0.00010690672
0.00027169742
6.2274072e-05
0.00030594289
0.00016059533
-2.8734872e-06
1.5247331e-05
0.00026555295
-8.3714707e-05
-0.00029860739
0.00031423675
-6.055863e-05
-1.7030806e-05
3.0727288e-06
0.00011995766
0.00027197436
-0.00027426093
0.00014722899
0.00019835921
3.2894597e-05
9.3489985e-06
7.5628852e-05
3.3124883e-05
-8.4320094e-06
0.00010666715
-0.00047416242
-2.2293554e-05
0.00016873928
-0.00051043972
-5.7994597e-05
0.00010627406
-0.00019369103
-5.3725975e-05
-0.00015398083
0.00018724663
2.6832965e-05
0.00013325841
0.00033599857
-1.8487054e-05
0.00029226024
0.00019413654
1.1733856e-06
0.0001870411
-4.6816594e-05
2.9379621e-05
0.00013816839
-0.00048447835
4.4853815e-05
9.3456716e-05
-0.00029704539
-1.7615464e-05
-7.4312152e-05
0.00018420148
-0.00013591678
-0.00031523229
0.00018020518
-7.8711797e-05
-0.00017659073
0.00017900664
0.00010093852
0.00036450854
4.9921236e-05
-0.00029463337
-8.8682857e-05
-0.00029285665
-5.3348818e-06
-0.00023849254
0.00015567644
-0.00027882689
0.00019474186
-0.00028837845
0.00018213935
-0.00013943428
0.00020276822
4.9099027e-05
0.00017876801
6.9765433e-05
0.00019448387
6.9735169e-05
0.00018498729
0.00013848655
0.00020294605
0.00012341149
0.0001756704
0.00018063399
0.00020833046
0.00031267225
0.00018219849
0.00027711892
3.8626082e-05
6.7853438e-05
-6.4995427e-05
0.00012391661
-2.3168551e-05
0.00027722451
-0.000120183
2.4253301e-05
-0.0002211912
-0.0003634087
-0.00012277772
-0.00048345559
-7.3644134e-05
-0.00026570199
-3.0506976e-05
0.00010977888
-3.9482302e-05
0.00035377088
-4.9855468e-05
0.00037770661
-7.0752333e-05
-4.7809333e-05
-5.8962414e-05
-0.00038477878
3.9924049e-05
-0.00031622793
0.00011565063
-0.00027018323
0.00013416048
-0.00021740041
0.00012622382
0.00014710813
-0.00016599856
0.0001391505
3.0006407e-05
-6.8390202e-05
-0.00021250781
5.9828771e-05
2.9661759e-07
-0.00014866317
0.00011433116
8.6535023e-05
-0.00014303047
6.0343703e-05
0.00010863802
-6.0373024e-05
-1.9710082e-05
-2.4484036e-06
0.00013406976
-0.00010684908
-1.7815958e-05
5.1633953e-05
-6.364002e-05
0.00010596381
-0.00017139204
-5.7976618e-06
-3.633403e-06
0.00011618368
-8.5254905e-05
-0.00011792006
0.00015436702
-0.00016322439
-0.00016275828
0.00011104978
-0.00018706953
-0.00012825045
-3.8041143e-06
-0.00013736892
-9.8745845e-05
3.3031313e-05
-0.00018449955
-0.00014251053
8.9663198e-05
-0.00016085654
-0.00019540703
0.00013884549
-0.00018938933
-0.00028461595
0.00016395829
-0.0001203941
-0.00035260401
0.00014891154
2.2218015e-06
-0.00018880685
-0.00018192774
0.0001186222
-2.9909727e-05
-0.00018751958
0.00010014645
0.00012940391
-0.00016074013
2.5451102e-05
0.00015762535
-3.8736934e-06
-9.470133e-06
6.0352449e-05
0.00010237555
1.3773771e-05
-8.6550261e-05
0.00013839398
4.2084413e-05
-0.00011674603
-3.5561418e-06
5.4479639e-05
2.4071863e-05
-0.00016436211
0.00010258017
-1.9238712e-05
6.3347753e-05
-3.4419526e-06
-4.6756219e-05
2.7717825e-05
5.1365913e-05
0.00019571305
-0.00028833372
-1.0410239e-05
0.00013644031
0.00010385229
-7.8003177e-05
0.00015755634
-3.9086851e-05
-2.9220298e-05
2.4854181e-05
0.00012132829
0.00010349951
-0.00054206046
0.00010439488
0.00020695329
-0.00038633104
8.7283108e-05
0.00043315681
-0.00038112607
-5.5601864e-05
0.0004629969
-0.00015740163
-0.00012722391
5.1566614e-05
0.00056824701
-0.00019117454
-3.3683982e-05
1.6758941e-05
7.9172837e-05
0.00020046505
-0.00054381232
0.00010963403
4.8050318e-05
0.00023605992
-5.1349282e-05
-0.00014986368
0.00029921952
-0.00015204249
-9.674331e-05
-8.6251567e-06
-0.0001865961
5.3495715e-05
-0.00012453266
-0.00018226065
0.00017024582
-5.4686315e-05
-0.00020284993
0.00020352201
2.6067141e-05
-0.0001764515
-2.1406627e-05
0.00039417738
-9.9374266e-05
-0.00025107817
0.00041203285
5.8670742e-05
-0.00018179536
5.5099445e-05
0.000172809
7.5362222e-05
-0.0005026971
0.00018170442
0.00031425747
-0.00046382835
7.7325137e-05
0.00063323259
-0.00042438788
-7.8352084e-05
0.00070387873
2.4207714e-05
-0.00015411845
0.00015680044
0.0007688902
-0.00015532713
-0.00027820779
0.00056971677
7.0128654e-05
-0.00016466292
-0.00013844002
5.9840519e-05
0.00014973581
-0.00047449885
8.0049287e-05
1.6641389e-05
0.00036672486
-0.00012320918
-0.00029589139
0.00052250565
-0.00011805076
0.00012730974
-0.00068969289
-2.8511124e-05
0.00030390632
-2.6765166e-05
-0.00021075139
0.00051110365
-0.00017529251
0.00022117257
-0.00011587784
-6.6629174e-05
0.00016343837
-0.00041576388
-0.00011387899
0.00021018601
-0.00039717494
-0.00015467191
4.9787294e-05
-0.00015205745
-0.00014980538
-4.4570298e-05
-9.467993e-05
5.4108827e-05
4.3319848e-05
0.00043281237
5.3270779e-05
5.1360677e-05
-2.1556863e-05
0.00015901778
-0.00020101668
-0.00011618059
4.0970942e-05
-0.00015538193
0.00014049744
9.7950813e-05
-0.00013625985
0.0001446851
0.00018906199
-0.00014984943
-0.00017168633
0.00026046715
5.7978066e-05
-0.00033612627
5.4204327e-05
0.0002523959
-0.00030453158
9.0927897e-05
0.00023424598
-7.0351975e-05
0.00018052783
0.00022460128
0.00022108835
0.00023661727
0.00037723235
0.00018897047
7.2711008e-05
0.00040254552
-2.5791419e-05
-4.0097643e-05
0.00013344921
-0.00014995827
-0.00010607189
0.00013992454
-0.00040943009
-0.00013759323
2.0126722e-05
-0.00027992038
-0.00010706349
7.1065522e-05
-6.8280489e-05
5.6998101e-05
0.00016996602
0.00070968109
-6.2753304e-05
0.00021486516
0.00049484448
5.8499694e-05
9.3223041e-05
-4.8741909e-05
4.4081516e-05
-0.00019265074
-0.00026697252
9.8536741e-05
0.00011075896
-8.260152e-05
0.00010292549
6.8573241e-05
0.00039546579
6.627017e-05
-0.00033928432
-0.00016908198
4.7811606e-05
-0.00022600949
-8.7574877e-05
-1.0783536e-05
0.00039018119
-0.00010408574
-8.1560925e-05
0.00012756235
3.8463645e-06
-5.732728e-05
-0.00042989758
-7.3439647e-05
-4.4046214e-05
-0.00043242629
-5.5900802e-06
-0.00014515527
-8.0203003e-05
-5.4186179e-05
-0.00025106688
8.1478118e-05
-6.2233506e-06
6.3221465e-05
6.6742727e-05
0.0001046315
-0.00015102446
0.00027430239
-0.00011255238
-0.00026917951
6.4751781e-05
-0.00013165288
-5.8790135e-05
-4.6970492e-05
1.4333247e-05
0.00017589735
-6.5413107e-05
3.7684799e-05
0.0001881456
-0.00013671259
-5.0095485e-05
0.00019231089
-0.00031097816
-0.00011302811
0.00013012229
-0.00022572305
-7.717855e-05
-7.4553793e-05
0.00025139538
2.8864254e-06
4.9091075e-05
3.9685573e-06
0.00024070395
0.00030753633
-0.00015239375
9.2267988e-05
0.00021072994
0.00014831662
-8.5733637e-05
0.00013708051
-3.5727137e-05
-6.2875247e-05
0.00022354845
-0.00044641382
-0.00010747879
0.00010976658
-0.00012091916
-9.8945329e-05
-0.00015440966
0.00027551215
-5.2783437e-05
0.00012339673
0.00041856446
-5.1768279e-06
0.00030056149
0.00026470544
5.4147657e-05
9.1325609e-05
0.00024073942
-5.0865837e-05
-7.4382548e-05
-0.00014208152
8.5670965e-05
0.00011086931
-0.00034415301
5.8684165e-05
0.00034480591
-2.0674152e-05
4.6286549e-05
1.2159083e-05
0.00012405547
-3.9202416e-05
-0.0002514865
0.00027472831
2.280921e-06
0.00021813755
-2.9521625e-05
0.0002416983
-0.00020281882
-1.8710632e-05
-0.00017482353
-0.00033642923
4.0968744e-05
-0.0004068098
0.00018491943
-0.00034063914
0.00019744682
-0.00025033949
0.00017921131
1.1957584e-05
0.00019077334
0.00016475238
0.00010644086
0.0002231195
7.9649681e-05
0.00028499517
7.5657265e-05
0.00027287596
5.1077029e-05
0.00010599107
6.4237201e-05
-6.4209307e-05
0.00012667584
0.00013199373
9.3818438e-05
9.8557474e-05
-2.7590585e-05
-1.433452e-05
-6.2670283e-05
0.00017428284
-0.00016048372
0.00011985756
-0.00020249304
-0.00031134116
-0.00013799282
-0.00047992013
-2.598432e-05
-0.00023447219
-4.4277011e-07
0.00012069046
2.3919504e-05
0.00030704412
2.8496308e-05
0.0004769049
1.2629985e-07
0.00026979468
6.0662773e-06
-0.00012407953
8.9645247e-05
-0.00027699389
0.00024789082
-0.0002772581
0.00025848016
-0.00014110745
0.00026480147
0.00022413823
-8.4038896e-05
0.0001105771
1.1345949e-05
-0.00020052683
0.00010457735
8.0475875e-05
-0.00023584512
5.0773288e-05
0.00010750938
-0.00010812584
-0.00017885137
0.00011707918
5.0496817e-05
-0.0002523519
7.5892634e-05
9.0633333e-05
-7.1508469e-05
-7.5914867e-05
6.2707197e-05
6.6994256e-05
-0.0001006221
-2.6963932e-05
7.8158846e-05
5.94683e-06
-0.00020008397
0.00012313483
-3.2377434e-05
-0.00022146127
-6.4891719e-05
-7.3595415e-05
-6.2382908e-05
-0.00025699921
-8.8027228e-05
7.3082833e-06
-0.00020615886
1.323696e-07
5.1922922e-05
-0.0002296979
7.1890945e-07
0.00011917657
-0.00020320137
-2.6535763e-05
8.374667e-05
-6.3753834e-05
-9.220158e-05
-5.9270045e-05
8.0996781e-05
-6.1940526e-05
-0.00017687121
0.00015295509
-3.6853024e-05
-0.00024966352
0.00014656891
4.3421213e-05
-0.000208171
3.2653903e-06
5.4390825e-05
-4.5761278e-06
-0.00017008302
-1.3498921e-05
0.00010898967
-7.4838036e-05
-5.6333663e-05
4.4841551e-05
7.5848562e-05
-4.5648139e-06
-5.5402184e-05
3.1246059e-05
0.00010470165
-2.4616409e-05
-0.00010772254
0.00012589651
4.1687091e-05
-8.0306617e-05
0.00011194728
-0.00011937133
0.0001204114
3.3966859e-05
-0.00013517864
1.4393629e-05
4.8750022e-05
0.00010741914
-0.00027581968
1.6678063e-05
0.00015688824
-9.5253246e-05
-3.645857e-05
0.00012880875
-1.5089356e-05
-1.0410211e-05
4.9808002e-05
0.00019250759
-9.3282935e-05
7.0258983e-05
0.00022158596
-5.5962284e-05
-6.9507549e-05
0.00017024329
0.00013039058
-0.00048117351
6.0367412e-05
0.00034206674
-0.00058280732
-8.4446501e-06
0.0004276514
-0.00018943472
-0.00015883294
0.00025603177
0.0004688065
-0.00015101978
-0.0001669383
0.0006442646
-3.3501658e-05
-0.00030157139
0.0002814806
-7.506195e-05
-0.00019323224
-0.00026926483
-5.6008536e-05
-1.3931799e-05
-0.00058749603
-3.5399721e-05
0.00014853019
-0.00050967135
-4.1210152e-05
0.00031248189
-0.00054450141
-5.1998117e-05
0.00052181342
-0.00051332007
-7.5664316e-05
0.00058994528
-0.00019092134
-4.0338604e-05
0.00018654232
0.00057576228
-3.2691783e-05
-0.00020020706
0.00064933453
6.3178941e-05
-0.00014058705
0.00012661513
0.0001420382
5.844053e-05
-0.00016539607
4.6959013e-05
0.00034155548
-0.00046536098
-6.618908e-05
0.00047435811
-0.00019550249
-0.00016625663
-6.8513115e-05
0.00070538935
-0.00024199669
-0.0004861787
0.00050546709
1.3573214e-05
-0.00026742817
-0.00040245176
0.0001358192
-6.3145745e-05
-0.00029071807
8.6178312e-05
-0.00022207751
0.0002258203
-6.9686318e-05
-0.00027502051
2.8318035e-05
-7.9032161e-05
9.5150757e-05
-0.00062520392
-4.9298156e-05
0.00024058191
-0.00034774208
-0.00010369371
0.00030925095
-0.0001151528
2.8906933e-05
-4.078065e-05
-4.9474663e-06
4.7579816e-05
-7.3163007e-05
1.0870106e-05
0.00023148284
-0.00041692994
8.8474561e-06
0.00015927756
-0.00041189965
-0.00014687396
-0.00011321385
-0.00017092983
-8.5277248e-05
-0.00019498809
-7.0937858e-05
1.6548165e-05
2.6848793e-05
0.00034104853
6.4938876e-05
0.00014688287
0.00055984088
5.3605952e-06
0.00032906382
0.00014649431
5.0756147e-05
0.00024210399
-7.2670464e-05
7.9427456e-05
6.7941277e-05
-0.0002536729
0.00010080673
0.00011082495
-0.00049478702
-3.5636741e-06
0.00021498015
-0.00051926252
-3.846619e-05
0.00013750806
-0.00029389374
3.8573608e-05
6.5522448e-05
-0.00010512746
0.00022280903
0.00010275691
0.0004834951
0.00012774376
9.1959436e-05
0.00058754869
3.2485683e-05
0.00015268852
1.9076964e-05
-5.9262799e-05
0.00025900668
-0.00029805711
-0.00011125034
-1.4814507e-05
-0.00024278476
-5.581852e-05
-0.000116378
-6.934026e-05
3.2399351e-05
-0.00011328225
0.00064369916
-4.1588649e-06
-6.1508215e-05
0.00043610033
7.6092406e-05
-0.00023683044
-0.00015263552
-3.0412495e-05
-0.00036734933
-0.00013671473
7.5052281e-05
-1.7463617e-05
-0.0002023992
0.00018125928
0.00021328074
-0.00035517733
0.00021902117
-9.8211543e-05
-0.00025174084
-1.4159197e-05
-0.00023096419
-0.00012199844
-0.00010377453
0.00010654452
-0.0001323435
-0.00024236497
0.00036393571
-0.00015850504
-0.00030426429
7.1688878e-06
-9.1872228e-05
-0.00023646734
-0.00048501217
-5.3048101e-06
-0.00020326154
-0.00046592703
-3.33646e-05
-0.00019959688
-9.5150441e-05
-8.566739e-05
-0.00026330277
5.7268609e-05
4.0130926e-05
-0.0001502323
6.0984803e-05
5.444089e-05
0.0001337886
0.00014376335
4.0377758e-07
0.00034025396
-4.3716526e-05
-1.9212685e-06
0.00031043155
-2.4789083e-05
1.9625829e-05
0.00026502873
-0.00024049472
-1.7870831e-05
0.00025522828
-0.00051911282
-7.8901854e-05
0.00023343099
-0.00049363151
-8.1012243e-05
9.1618428e-05
-0.00010634078
-4.2853942e-05
-0.00011790115
0.00023809944
0.00010699667
3.4520561e-05
0.00025051343
0.00017282798
0.00026869302
0.00029969245
-3.2049818e-05
0.00024193644
0.00015386115
-0.00017090284
0.00024949948
-0.00029869131
-0.00011440763
2.1433212e-05
-6.8389554e-05
-4.5274268e-05
-0.00028024826
0.00029713216
-0.00011757439
-5.234401e-05
0.00035846202
5.2156049e-05
0.00011888551
0.00027373053
4.5287931e-05
-9.3285846e-05
0.00020400084
-0.00019533086
-0.00017594258
7.4082266e-05
-4.246931e-05
-6.2982879e-05
-0.00033619384
7.95191e-05
-0.00010849585
-0.00038932409
0.00012594626
-0.0002044302
-0.00019823738
3.2284773e-06
-0.00024787096
3.8647084e-05
-0.00011492385
-4.496426e-05
-0.0001258838
0.00025789579
-9.6778916e-05
0.00024159446
-0.00015135332
-8.9421353e-05
-0.00011302762
-0.00040223076
3.1801812e-05
-0.00038360413
8.3669746e-05
-0.0002350262
8.7901999e-05
-8.5866712e-05
0.00010259866
0.00012529971
3.9037793e-05
0.00022880829
-6.7575416e-05
0.00037773794
-9.8061459e-05
0.00035623389
-0.00016791364
6.2683182e-05
-0.0001613249
-0.00030543946
1.1669953e-06
-0.00037829036
6.0328578e-05
-0.00019784666
3.0065175e-05
-3.1809374e-05
2.1805879e-05
0.0001848636
-7.7464229e-05
0.00020353266
-6.7300946e-05
-0.00021010385
-2.3047623e-05
-0.00043496077
0.00013048304
-0.00025882401
0.00012055264
6.4700488e-06
0.00011708746
0.00021567792
9.3018964e-05
0.00035908217
6.0722879e-05
0.00035687519
8.2355523e-05
2.8117571e-05
8.2209011e-05
-0.00027263358
0.00015931789
-0.00031420423
0.00010181341
-0.00013758045
0.00012682478
4.1593513e-05
-9.4357869e-05
0.00017288262
-5.9548391e-05
-0.00015719331
0.0001658331
-1.4990955e-05
-0.0002369991
0.00018057031
1.5363459e-05
-0.00030368193
0.00015314114
4.0518512e-05
-0.00017058239
-0.00013077283
7.9751315e-05
3.6396497e-05
-0.00025424245
-2.6723913e-05
4.2577474e-05
-2.7200396e-05
-7.8284102e-05
-0.00015645807
0.00013659051
7.0380206e-05
-0.00030973667
6.8840662e-05
5.6449701e-05
-0.00016552046
-0.000308374
9.2193421e-05
5.1526718e-05
-0.00036116013
5.4323451e-05
-7.3496937e-05
6.9905371e-05
5.9941746e-05
-0.00013753193
-0.00013073612
0.00019676863
-7.9598202e-06
-0.00015411026
0.00015609214
-0.00026061193
7.4061021e-05
1.7549823e-05
-9.7368592e-05
0.00013147373
-0.00023802885
0.00017693408
5.2447649e-06
-0.00031664635
0.00011860455
1.5931076e-05
-9.3055667e-05
-0.00026145089
2.0031923e-05
8.183779e-05
-0.00021456506
-2.2625702e-05
8.5892126e-05
-8.7573408e-06
-6.888977e-06
-0.00010638908
0.00012472544
0.0001663446
-0.00025910104
5.0902793e-05
0.00022211858
-0.00023016952
-0.00018074969
0.00025629936
-0.00013909117
-0.00031405955
0.00024831964
4.7569761e-05
-0.00035393673
0.00020773357
0.00023979386
-0.00028780783
0.00010567136
0.00018724291
8.4036872e-07
1.2172368e-05
0.00011931598
4.8493868e-05
-0.00011304724
0.00048956745
-1.1129996e-05
-0.00023929
0.00049641774
1.7244073e-05
-0.00025815399
0.00031741162
5.2265963e-05
-0.00011322034
-1.1907077e-05
8.0481979e-05
0.00010991401
-0.00041849007
5.6138238e-05
0.00040408838
-0.00058386499
-0.00012338477
0.00028991851
8.8837109e-05
-0.00015288741
-0.00022934832
0.00068755646
-6.5200782e-05
-0.00036679831
8.1143603e-05
5.008511e-05
-0.00016948288
-0.00065003718
8.8339207e-05
0.00013296376
-0.00065555704
-4.3449442e-05
0.00011200184
6.094578e-05
-1.1288646e-05
9.6443585e-05
-0.00033770731
0.00017053134
0.00024047794
-0.00037380892
0.00054757008
-0.00060804267
0.00055463657
-2.2208436e-05
8.0651377e-05
0.00066863787
-0.0002900354
0.00057519481
0.00011446425
-0.00016171126
-2.7310597e-05
6.455002e-05
0.00012266517
-0.00061822821
6.2118114e-06
0.00037844359
-0.00053397648
-0.00010262364
0.00023116937
0.00010646444
-0.00020994425
-0.00028324437
0.00074115123
-8.8438831e-05
-0.00043242576
0.0001985397
0.00013736369
-0.00025327697
-0.00049084428
0.00021712412
-0.00020986815
-0.00067247871
0.00024532402
-6.8676544e-05
-0.00072344322
0.00014928272
0.00019735608
-0.00061466274
1.1524126e-05
0.00025795762
-0.00010921534
-5.4239551e-05
0.00031118527
-4.9064471e-05
1.9585539e-05
0.00045756807
7.4663652e-06
-9.1511455e-06
0.00045910368
7.6920846e-05
8.244469e-05
0.00019987126
3.4791971e-05
0.00036690833
-0.00032155337
-0.00012169131
0.000300534
-0.00027160108
-0.0001657919
3.8260841e-05
-0.00013358186
-0.0001714618
6.9923895e-05
2.3065177e-05
9.9047763e-05
0.00021933854
0.00058724889
-4.3746474e-05
0.00032790676
1.7852153e-05
5.4793878e-06
-1.4358346e-05
-8.6615482e-05
-0.00014172914
-0.00035302559
-6.8095912e-05
-0.00014798715
-1.3823007e-05
-0.00033445278
5.2632315e-05
0.00020838849
-0.00053077586
-6.7609121e-05
9.0241027e-05
-0.00021708783
-0.00019277531
-0.00010221728
-1.440178e-05
-7.2838185e-05
9.0594643e-05
0.00059612715
9.8237786e-05
0.00047753959
3.0749287e-05
0.00030264817
-0.0003105252
-3.2446128e-05
9.3333483e-05
-0.00046385493
-8.7710783e-07
-0.00022279503
-0.00016938538
-1.6063236e-05
-0.00021042566
4.4844377e-05
4.509182e-05
-5.2353782e-05
0.00066747749
-8.3057443e-06
1.7019891e-05
9.1484503e-05
7.2690196e-06
-9.1885992e-05
-0.00029060183
-1.6284295e-05
-0.00010682746
-0.00050263795
2.6359975e-05
-0.00010984012
-0.00054199156
4.0582169e-05
-0.00032889625
-0.00030359648
-0.00010616932
-0.0002755315
-0.00021763174
-4.8722891e-05
-7.4992398e-05
-2.1697333e-05
4.5369329e-05
0.00024913415
4.5595347e-06
5.5187825e-05
0.00027036361
8.7049331e-05
5.506038e-05
0.00010921332
8.5480572e-05
6.6508393e-05
-0.00033195758
-3.4408406e-05
9.8949207e-05
-0.0002554493
-0.00013425998
-3.2213359e-05
2.6879906e-05
1.0831731e-05
-0.0001076522
9.4544789e-05
5.8400133e-05
0.00017365895
0.00024047396
6.5867577e-05
0.00016487874
0.00011125529
-8.654419e-05
0.00012963338
1.9367828e-05
-5.1112112e-05
7.5207139e-05
7.3698677e-06
-3.8910362e-05
3.3292359e-05
-0.00040239581
3.0955977e-05
4.4045511e-05
-0.00054365867
-7.8882565e-05
-3.5933722e-05
-0.00017996252
-0.00019569494
0.00016454064
-0.00021791578
0.00012221066
2.4225681e-05
0.0003219359
0.00021707948
0.00015565887
-4.18759e-05
0.00015759187
-0.00030705002
-5.8395186e-05
8.5742054e-05
-0.00042772266
-9.5567158e-06
-0.00016237
5.4981907e-05
-9.3829627e-05
-0.00036557846
0.00031585846
-1.5649589e-05
-1.8834896e-05
0.00036782402
-1.8021602e-06
-8.6697118e-06
0.00011792334
-0.00023193489
-5.8772567e-05
-0.00015054976
-0.00013241854
-3.4494548e-05
-0.00044004542
-7.351455e-06
9.4386379e-08
-0.00049941794
4.8783699e-05
-4.3280416e-05
-0.00022740727
-2.9585942e-05
-0.00014017436
-0.00017268864
-6.2973019e-05
-0.00031925228
-2.1798294e-05
0.00013212944
2.022578e-05
0.00021841075
3.2728973e-05
0.00020117044
1.3426007e-05
-0.00011921308
2.022775e-05
-0.00034259926
5.1606625e-05
-0.00027186907
4.4051722e-05
-0.00012275212
4.8026514e-05
0.00011699375
3.9765892e-05
0.00025695631
-9.6282674e-05
0.00034386204
-0.00016559936
0.00040146742
-0.00021814914
7.2544882e-05
-0.00023479816
-0.00033943623
-0.00013051054
-0.00045907015
-0.00026446432
-0.00012044776
0.00012402391
0.00024201873
-2.963688e-05
-4.650176e-05
-4.157715e-05
-0.00041711906
7.3377685e-05
-0.00039128978
0.00014970526
-0.00015954212
0.00020119827
0.00016264442
0.00013865643
0.00034739692
-6.1062874e-06
0.00032763921
-4.8436528e-05
5.2109303e-05
-8.2306517e-05
-0.0001815049
-0.00010648585
-0.00013736339
-0.00016973538
-1.1412386e-05
-0.00017181487
-0.00028907115
-7.7746308e-05
0.00013049026
-0.00010487539
-0.00014239299
0.00014295163
-8.5788179e-05
-0.00017885841
0.00013009744
-7.0883449e-05
-0.00023124527
0.0001472833
-4.7357115e-05
-0.00029184781
0.00016824553
-1.7856133e-05
-6.1163566e-05
-0.00026949508
1.5061531e-05
9.8123886e-05
-0.00016232848
-7.4363543e-05
-9.1060762e-06
8.0309686e-05
9.9620687e-05
-0.000174286
0.00015503103
6.9306418e-05
-0.0002445988
9.3068222e-05
7.4293492e-05
-8.3441819e-05
-0.0002487583
0.00014394888
8.9200787e-05
-0.00024931107
0.00013768904
0.00012586632
0.00016675165
-0.00021545986
0.00013461088
8.1350756e-05
-0.0002811064
-2.5525293e-05
0.00010340478
-0.00010555891
-0.00030485767
0.00014313866
4.5426098e-05
-0.00024519362
6.7164023e-05
0.00020000945
-0.00022144244
5.3367447e-05
0.00011180977
8.2343696e-05
0.00016961183
-4.8624867e-05
0.00015607554
0.00022344927
-0.00019508042
0.00014368212
0.00025901566
-0.00024152473
5.2869272e-05
0.00024179701
-0.00014495686
-0.00011350952
0.00022224767
-2.6584672e-05
-0.00015487805
0.00013811956
9.8404501e-05
-0.00012779941
1.0305208e-05
0.00012127376
2.2483329e-05
-0.00021328633
0.00045399387
-0.00012134729
-0.00027380634
0.00026268168
-4.1965965e-05
-0.00018399054
9.763733e-05
-5.0897346e-06
-0.00022972234
0.00024677651
2.672057e-05
-0.00010986871
4.5635058e-05
5.8895084e-05
0.00016464144
-0.00063485957
-3.2530427e-05
0.00032889453
-0.00039710619
-8.2362782e-05
5.8965566e-05
0.00036728987
-8.2252005e-05
-0.00033432267
0.00053416852
6.423586e-05
-0.00032619387
3.0815568e-05
0.00014246307
-0.00014864468
-0.00059622073
0.0001264638
3.036698e-05
-0.00058331702
0.00014370565
5.9345434e-05
0.00026741921
-0.00040042725
0.0005148899
0.00013461249
-0.00035265428
-0.00016150118
0.00015275294
-9.2283528e-05
-0.00068164902
0.00012263242
6.2968759e-05
-0.00051224273
9.1731947e-06
0.00027463056
-0.00056184524
-8.1203256e-05
0.00021178544
0.00010404518
-4.7295209e-05
-0.00017002217
0.00061214958
6.3097251e-05
-0.00033356962
0.00028629282
0.00023806086
-0.00026976484
-2.981295e-05
0.00026420146
-7.4356718e-05
-0.00038019075
0.00022055582
6.3786619e-06
-0.0004228568
0.00019876749
0.00013483921
-0.00038828497
7.7785458e-05
0.00022181918
-1.4770683e-05
-3.9817814e-05
0.00042303457
7.824347e-05
-4.675042e-05
0.0001891798
0.00015735532
7.3409488e-05
-4.2387665e-05
5.4657053e-05
0.00035928954
-0.00012119763
-3.9597232e-05
0.00045302315
-7.8903274e-05
-0.00013498717
1.2296183e-05
-7.2090857e-05
-0.00029350355
-0.0001878208
-8.3338117e-05
-1.4603327e-05
-1.0666001e-05
0.00023140394
-8.5015324e-05
0.00013087658
0.00042683624
-2.8730916e-05
0.00024459075
-2.6506715e-05
-0.00019812102
-6.7011587e-05
-0.00010807398
-0.00032453156
-0.00033802527
-0.00011665411
-0.0001430169
-0.00037578896
2.9500016e-05
5.1015419e-05
0.00040026597
9.4357814e-05
0.00015681992
-0.0003088909
9.1391056e-06
-7.6752309e-06
-0.00052413728
6.1063039e-06
-0.00017606744
-0.00034113754
-1.8776217e-05
-0.00039972866
-0.00023623649
-5.6855719e-05
-0.00014538257
-0.00010660775
-5.1998901e-05
2.6630218e-05
0.00041625218
3.1153621e-05
0.00016677313
6.9815166e-05
6.0050443e-05
0.00038777845
-0.00022213694
-2.3213667e-06
0.00025939685
-0.00017076488
-4.0462108e-05
-7.1327961e-05
-8.7746938e-05
-0.00011055438
-0.00031532069
-7.1978874e-05
-0.00012103628
-1.8035747e-05
-9.7163095e-05
8.9539374e-05
0.00019354603
0.00014450869
-4.731176e-05
0.00025472098
0.00015835928
-0.00023069603
0.00016400925
6.2467917e-05
-3.643962e-05
-0.0003360133
-1.3849145e-05
-1.2724131e-05
-0.00010205854
-0.0001348202
-0.00019498824
0.00012568416
-4.679175e-06
-0.00021176582
-4.0833804e-05
3.2673411e-05
-4.5256829e-05
1.7876782e-05
0.00011288576
0.00026997195
0.00010874026
-8.3676973e-05
0.00033397981
3.7742075e-05
-0.00017936875
0.00022504179
9.0830007e-05
-0.00012887631
5.6172206e-05
4.1161163e-05
4.2010303e-05
-0.00039428374
-4.2155644e-06
0.00014091402
0.0001207971
9.6678968e-05
5.4360414e-05
-0.00024409246
-3.6640006e-05
-3.0786786e-05
-0.00047742593
2.8879152e-05
-0.00015711761
-0.00034853027
3.9893933e-05
-0.00023172771
-0.0001070127
-7.0263282e-05
-0.00016981085
-0.00010293476
-6.7392011e-05
0.00017737197
-0.00014586251
-1.700302e-05
0.00031825851
-0.00017455624
-2.8933682e-05
0.00029398479
-0.00019718518
-8.0295097e-06
0.00024659319
-4.3025175e-05
-3.1564412e-05
2.9273352e-05
0.00019968161
-9.9694657e-05
-6.5225889e-05
0.0001056363
-0.00014608896
-7.6309977e-05
-2.8749961e-05
0.0001022732
0.0001114986
0.00019092584
0.0001987973
0.00015153222
0.00021682887
-0.00022481642
6.056309e-05
-0.0003416001
6.6331771e-05
-0.00019864476
2.6780543e-05
-0.00015523615
-3.621588e-05
-4.357452e-05
-5.401895e-05
0.00010180746
-0.00013292438
0.00020436642
-0.00023041623
0.0003058432
-0.0002287959
0.00032409722
-0.000211891
-0.00020069707
0.00015107229
-5.9912053e-05
7.1081671e-05
-0.00020567899
-0.00013861252
-0.00019435406
-0.0002129356
-0.00012450192
-8.4765516e-05
-3.3984513e-05
-7.5955642e-06
-4.1448291e-05
-5.7365728e-05
-0.00010219864
-0.00014268215
-0.00013767635
-0.00024591336
-0.00017626049
-0.00022876587
-0.00016665853
-5.1375102e-05
-0.00014744455
6.7834308e-05
-0.00018538798
-0.00029754682
-8.3292429e-05
9.4750757e-05
-0.00010792526
-4.8907952e-05
-7.6068761e-05
-3.5750974e-05
-9.0509012e-05
7.2095482e-05
-9.0270109e-05
-0.00017901784
0.00013428896
-8.4919226e-05
-0.00027574687
0.0001532652
-6.6552809e-05
-0.00027947863
6.5356044e-05
-3.7486553e-05
6.3504448e-05
-0.00036999996
-4.5915327e-05
0.00011046253
6.2680502e-05
-3.820219e-06
4.1069769e-05
0.00015738443