/*--------------------------------*- C++ -*----------------------------------*\
| =========                 |                                                 |
| \\      /  F ield         | OpenFOAM: The Open Source CFD Toolbox           |
|  \\    /   O peration     | Version:  v2012                                 |
|   \\  /    A nd           | Website:  www.openfoam.com                      |
|    \\/     M anipulation  |                                                 |
\*---------------------------------------------------------------------------*/
FoamFile
{
    version     2.0;
    format      ascii;
    class       volScalarField;
    location    "420/bottomWater";
    object      T;
}
// * * * * * * * * * * * * * * * * * * * * * * * * * * * * * * * * * * * * * //

dimensions      [0 0 0 1 0 0 0];


internalField   nonuniform List<scalar> 
1460
(
981.96195
976.97263
972.55535
977.42659
979.93337
978.76569
975.42199
969.40936
965.74399
961.97792
960.27013
958.22648
955.35203
952.47511
950.12669
949.02984
946.98631
943.97931
942.21397
939.96174
936.10775
933.08227
937.67201
941.93864
941.72379
941.59454
941.25048
940.61065
940.25943
937.60336
975.81099
970.29768
968.06301
967.97365
968.81789
970.79419
970.74575
967.92522
965.79408
958.36911
956.78721
955.5211
953.08062
951.87374
949.96782
949.52362
949.73224
944.56509
942.68842
942.8424
942.95278
941.86049
943.09704
944.13849
943.49015
944.1569
944.84018
944.86577
944.4398
943.32626
972.48756
970.16763
968.60111
968.39193
969.18549
970.78812
968.64227
962.98245
964.02909
957.75165
956.22002
955.10514
952.59429
952.11339
950.84884
950.73409
950.204
944.50712
941.83864
942.44121
943.96922
942.41143
943.35929
943.87333
943.25615
944.09772
944.93306
945.51432
944.58979
943.49098
964.77889
964.53674
966.47538
968.83728
969.62791
970.76048
966.51931
961.5225
962.38812
957.53575
956.29937
956.04717
951.48445
951.34784
948.13488
948.11721
948.13395
941.91737
941.10291
942.23178
944.07067
942.79728
943.62762
943.62705
942.68539
943.59268
944.89637
944.96544
944.50454
943.6775
965.61512
966.28358
966.99087
967.79389
968.03483
968.18637
965.24736
960.4277
960.36634
957.28367
956.03451
955.5
952.96373
951.55991
947.58533
945.45874
943.60197
940.84192
940.78255
942.12578
942.65382
942.29277
942.46158
942.04309
941.95923
943.44621
943.812
943.64083
943.37412
943.19374
978.05318
971.37077
971.52547
971.41072
974.27782
973.87587
969.37482
963.45815
965.00903
959.88012
958.59042
956.9664
953.24421
949.74177
946.13019
945.62633
945.99417
943.87716
941.34497
937.25918
930.80144
929.29384
936.82113
940.49438
941.21164
937.55741
936.06297
943.34566
943.86165
941.57218
976.6591
966.96986
966.22195
966.44074
966.98048
968.42803
965.81019
960.84586
961.59519
958.22806
956.70536
955.28619
951.54362
950.12632
948.59921
947.40451
947.32524
946.185
941.97579
940.90024
940.82676
939.56498
942.105
943.96769
943.73695
943.5176
945.14609
946.0408
946.62237
945.58667
968.52751
967.49186
966.07281
966.26275
968.03621
968.64906
966.88535
961.14618
959.97733
957.34923
956.26568
955.94909
953.34917
952.43952
950.23041
948.71769
948.50272
946.52338
940.62089
940.06884
941.92793
940.11371
942.20252
943.32364
943.484
943.74705
944.90129
945.83466
946.13591
946.03018
964.35971
966.90694
965.20929
966.28311
968.20396
968.61053
964.08309
960.07659
958.8939
957.09745
957.0552
956.19581
953.14715
951.24158
949.55521
947.65571
947.32897
944.38426
939.43218
939.92501
942.2949
940.54339
942.27885
943.09082
942.79036
943.01541
944.67836
945.19269
945.97826
946.10364
968.24664
968.08738
965.23455
965.30647
965.08147
964.3342
963.10335
959.31426
958.92281
957.55576
956.6022
955.79361
952.4547
949.31794
946.64494
943.95883
942.26168
938.30832
938.66353
940.96589
941.32859
940.41857
941.36332
941.82368
941.55292
942.30705
943.75142
944.21393
944.63232
944.465
986.18725
978.93627
975.16822
971.36074
969.37915
971.73155
972.98787
971.10975
960.2319
957.55606
956.28795
956.22365
951.46599
948.00287
943.07348
939.13279
939.08464
940.1892
937.84096
935.68775
931.61092
927.58505
932.28725
940.08425
941.45648
942.42046
942.69728
945.52648
945.61906
943.99152
980.48234
972.38278
969.52921
966.33736
966.69177
967.25358
967.53315
963.83487
958.12354
958.01818
957.49296
955.39766
950.30743
948.47513
948.52159
947.14878
943.91999
941.7318
937.6792
937.50507
939.03944
938.81086
943.61374
944.1969
944.22491
945.04876
946.48489
946.62634
947.94164
946.91578
975.02916
971.10993
967.30684
966.08714
966.66631
967.18751
967.15213
963.59675
960.03136
959.37727
958.21192
956.12391
950.09155
948.9316
949.86052
947.76506
944.50871
941.52798
936.664
937.3933
941.27417
939.76697
943.77139
943.94554
943.88682
944.05586
945.01589
946.33924
947.90918
947.38082
973.70353
969.12361
967.24039
964.12667
965.53654
966.72276
966.14941
963.37584
961.38402
961.13108
959.2254
956.07221
949.29636
945.86661
948.63197
947.9975
944.2012
940.3788
936.24844
937.46403
940.55409
940.26089
943.89296
943.44939
943.12687
942.74682
944.4731
946.30768
947.84261
947.40591
974.0361
973.6907
969.5288
963.3339
963.20805
963.08254
962.50341
960.21343
958.56782
957.81928
956.71178
955.04007
948.09983
946.03062
946.64014
946.12993
939.67294
936.33315
936.13237
939.26222
939.76961
939.58232
942.8175
942.62975
942.25015
941.87194
943.44804
943.89373
944.18199
943.85376
988.96769
982.36879
977.99252
974.56101
971.6759
970.05025
970.36796
961.3177
957.11939
954.77285
950.61302
949.33151
939.56156
934.84888
934.27579
929.58158
929.71479
938.30896
937.20219
935.19511
936.71286
931.0841
931.99525
939.10622
941.17653
942.10493
943.38203
945.20671
945.19297
943.92564
982.27058
975.61017
973.13959
971.41575
968.95512
968.55136
967.86193
961.97821
955.72359
955.59588
950.42789
948.93904
939.69072
936.0653
939.67442
937.69292
935.61191
937.97043
936.04201
935.02172
938.82457
939.40601
939.78955
943.56076
943.65189
943.85088
945.26135
946.97598
947.9305
947.04623
982.16932
975.94799
973.48474
969.93984
968.80841
968.42852
967.36275
962.16
959.72243
957.13194
951.04204
951.09649
937.2441
936.05739
942.14937
938.8834
934.83181
937.57662
931.11267
934.54327
939.38718
940.36541
940.41828
943.78819
943.10794
943.12212
944.83738
946.71953
947.7176
947.50028
982.00431
976.63008
974.40119
968.83635
965.72232
966.24357
965.15398
961.50805
958.37329
956.60574
954.69471
952.01194
937.55103
933.02887
939.10338
937.88335
933.65926
935.5409
928.822
936.19076
939.19714
940.71829
940.73103
942.39306
942.25094
942.04496
944.0888
945.6856
946.99549
947.0032
980.51779
977.2319
975.23338
968.63674
963.24044
963.13323
962.2602
959.88285
958.17875
956.46102
954.35138
951.44419
936.58366
932.45755
932.91369
931.23083
930.09831
926.93762
925.33443
938.59599
939.24273
939.85927
940.44158
941.01262
940.95972
941.26929
943.58894
944.4973
945.39398
946.2394
986.28662
982.8918
981.14685
978.43686
974.57354
971.11756
969.62378
966.4528
955.93667
951.62626
946.282
941.76861
937.67442
926.37123
935.83145
934.50889
937.07026
937.31945
934.88601
937.49268
942.61884
944.15863
944.79828
945.52664
946.62228
945.35597
979.30026
977.73358
976.34101
973.97517
971.91346
969.8721
966.98331
966.9225
952.04193
947.57399
943.82235
937.89235
933.10165
930.80791
933.49906
933.4257
938.38176
939.68863
938.91046
940.61274
944.02842
944.71016
944.95758
945.72382
948.269
947.19012
979.09775
976.3635
972.76216
970.81595
970.33863
970.19555
965.67961
966.23561
952.68182
951.6577
945.1074
938.11041
934.88726
927.72763
925.57453
931.7761
938.48714
939.81244
939.95197
940.49244
943.56704
943.42955
943.89899
945.19609
948.1394
948.09223
979.08439
975.2981
967.08447
964.89249
965.50492
964.44467
963.9461
963.69034
954.85289
953.90161
952.23519
952.05044
938.91791
921.85882
921.79787
932.2298
937.87515
939.27877
939.75702
940.48475
941.92974
942.76854
943.49066
944.6059
947.58158
948.39605
978.01604
975.28616
971.65661
965.41909
962.35054
962.36949
961.11507
960.59155
958.7552
954.44708
951.43388
947.07087
940.3347
908.16933
917.73035
931.46228
936.59734
938.07918
938.43722
939.85888
941.43754
943.38692
944.37477
944.75803
946.5829
947.07946
982.22999
977.78968
978.62372
980.59117
976.88537
973.09645
969.32425
972.09335
970.19225
960.92652
954.65665
949.15503
933.51856
922.56153
936.66365
935.90426
936.01241
937.65741
936.96436
936.37829
940.60812
943.43116
945.24437
945.84148
946.22974
946.51211
974.68864
971.18267
969.36031
975.27269
971.43427
969.32173
968.37656
969.72859
967.81586
951.92018
947.06148
942.09138
929.93043
927.84369
935.73692
935.28197
936.81035
938.5803
938.49964
938.8193
941.85735
944.51544
945.68375
946.62758
947.91161
948.87449
975.88829
971.62715
969.257
969.80044
971.4482
971.93622
968.28937
967.33745
967.2024
950.51945
938.47206
930.13944
926.74376
923.24409
932.95991
933.64978
936.61071
938.24506
938.11321
938.88224
941.50781
944.81241
946.24699
947.02071
947.85502
948.78404
975.4407
971.05775
968.20937
962.83658
965.75342
966.42589
965.61623
965.33553
966.72843
951.98885
947.33964
930.50359
927.16966
917.76142
928.16677
931.833
936.50423
937.0909
937.17979
939.30637
940.74042
944.25667
946.26371
946.90957
947.50805
947.97731
975.95861
974.98263
973.1542
962.03609
961.76277
962.35911
962.90108
962.88359
963.58243
952.0648
948.52624
940.59461
936.03881
911.30328
921.98409
927.11986
931.5825
934.07582
935.34312
938.64472
939.83397
943.03544
944.95933
945.85928
946.7758
947.59034
980.6949
975.00703
974.13423
978.68562
981.64148
978.97513
973.51842
981.6481
965.57511
947.91771
940.28263
933.28663
926.5306
920.31789
918.18541
914.44453
910.60117
914.40612
934.12667
937.53115
936.9405
939.36078
940.03629
939.48487
941.63132
943.09458
943.94806
944.34914
944.25587
947.43346
973.63785
972.15613
970.5792
969.63731
973.59347
974.75435
970.23239
973.23212
969.94783
944.32741
937.6944
931.82247
926.84674
923.34254
920.06139
919.62869
917.13828
917.85758
929.3869
936.84698
937.04334
939.61052
941.27465
941.6549
942.09293
943.46854
944.44103
945.1049
946.13575
949.4227
975.08256
972.41102
970.6517
967.85011
973.39017
973.40526
968.93221
968.63669
967.15577
945.11909
937.30413
931.61791
927.27079
925.59885
921.42365
920.84021
917.40943
918.28663
929.68299
935.81735
936.9101
939.91394
941.43017
939.87621
941.11088
944.35837
944.92
945.23018
946.38527
948.52689
975.41425
973.13715
972.39888
966.78346
967.8837
969.33635
966.9836
964.72177
964.4249
947.87984
940.06923
935.14449
927.44151
926.29198
921.77778
922.53146
919.81457
919.12022
929.89508
933.22535
934.97712
940.16969
941.66925
938.86317
940.98873
944.5842
945.50974
945.53361
946.66089
947.65957
975.08922
974.66575
973.96708
966.95653
963.9563
962.88852
963.34472
962.50714
960.91424
949.93484
945.55532
941.2247
937.00547
928.96058
920.86211
920.36829
920.27534
922.43694
928.86591
930.46035
932.66398
936.37843
936.25199
938.11476
942.61974
944.21864
944.9476
945.65621
946.65068
947.41715
981.06408
976.39303
974.44273
975.76129
978.71027
980.87901
982.18826
984.09204
970.87252
958.7315
952.41681
946.64254
942.77446
939.66881
933.65979
933.85893
929.9721
927.31799
937.34595
939.61098
941.6276
942.82429
942.41329
941.25799
942.18288
942.01554
943.31361
944.074
944.14516
945.55449
974.74984
973.33119
972.20325
971.37397
973.18098
975.29759
976.04782
976.76959
974.80869
958.0421
951.53196
947.2311
943.42385
942.07726
935.32632
937.15036
935.48168
933.21664
935.70134
938.78044
940.49649
942.01664
942.25615
941.68287
942.33478
943.573
945.61131
946.19179
946.33111
949.29066
974.97254
974.60459
972.32666
971.68921
973.30549
970.50144
969.18075
970.82837
974.37612
961.65328
953.24713
954.19866
943.34213
943.33534
936.84526
938.383
933.64149
930.84391
934.81914
936.4916
940.19935
941.85923
942.01921
941.24403
941.60895
943.32867
945.90648
946.81646
946.70425
948.71821
975.26519
974.78228
973.62401
973.14385
973.38258
968.02076
967.63223
971.68669
972.823
962.94787
956.47645
955.116
937.97201
944.15635
933.76359
937.83836
932.84315
928.68703
934.18885
934.03421
939.02692
941.0553
941.55925
941.45923
940.92196
942.09025
945.41502
946.80517
947.239
947.93767
976.28022
975.73967
975.71104
975.62464
973.55785
966.14336
967.29341
969.2859
968.93495
963.77523
960.16992
957.08854
953.63079
946.37934
930.87332
930.19275
927.36232
926.36946
931.23751
930.64088
932.43179
934.09205
935.99392
937.11164
938.83695
941.48339
945.4748
946.33419
947.0337
947.50209
984.46411
979.70409
977.92577
976.94687
975.30714
977.46977
976.22978
979.00171
979.7541
971.77201
962.37239
955.24552
949.42279
944.74513
940.98785
938.02171
935.25476
935.50034
936.50745
935.51572
940.44401
942.57984
942.53955
941.35233
941.34577
939.76907
943.10766
944.38919
944.16421
942.79445
977.25076
974.40741
973.45304
973.86726
974.26838
973.30286
972.18173
972.59093
974.06581
968.88977
960.11659
951.77343
946.11527
946.66166
944.10426
942.95032
940.90762
937.90541
936.26879
936.05637
941.23811
942.92902
942.96667
942.82358
942.50397
941.19078
945.99862
947.3957
947.35761
946.68111
977.39943
975.87568
975.46493
974.98795
974.27229
973.23758
971.90556
970.75749
973.43148
970.02272
966.86775
955.60113
951.9071
947.96781
945.34945
944.30784
940.95448
938.2639
936.4842
936.95632
940.64937
942.90512
942.82272
942.76967
942.15076
940.91414
947.17867
947.81574
947.9141
946.96564
977.63012
976.39444
976.18974
976.28131
975.88045
974.94986
972.22165
970.54206
972.86596
970.66767
967.58739
955.43592
948.65674
946.60381
941.74021
943.41842
940.77528
937.66654
936.02928
936.28396
938.3719
941.81878
941.79019
942.44211
942.4129
940.04345
946.93171
947.9052
947.79272
947.24349
977.6716
976.9865
976.58205
976.28134
975.90903
975.37369
971.52458
968.89091
969.42422
967.3498
965.09537
958.53878
956.66774
947.13318
937.64253
936.96992
935.12364
935.11272
934.03216
932.17443
931.48425
934.34338
935.97128
937.73724
937.93593
939.79174
946.84104
947.13186
947.25216
946.99849
989.67002
985.31095
982.95412
980.91682
978.42093
975.77869
976.27422
979.3301
976.13762
971.5123
968.96468
961.17656
957.54772
945.09714
941.11937
938.48647
937.72899
937.12035
936.21756
934.99596
935.55739
939.94023
941.11421
940.10879
940.3233
939.2468
941.83543
944.24368
944.73314
944.006
987.28414
980.37253
976.07333
975.05025
974.41324
974.1653
972.83285
974.14235
973.01806
969.40134
969.35752
960.36305
955.54159
951.58527
947.05665
942.02197
938.16671
938.11799
937.27355
935.9863
936.31271
940.7172
942.3404
942.36254
942.06144
941.1498
943.87692
947.00323
947.8944
947.29424
982.48666
980.16739
977.0965
975.50382
975.45327
974.10864
972.8111
970.9036
972.07534
971.11357
969.73334
958.10611
956.70495
952.48212
948.96887
944.08799
939.58332
939.50379
937.30469
935.7234
936.49809
940.86166
942.52946
943.39121
942.09337
941.27957
946.67097
947.8904
948.79946
947.55981
977.85691
977.33225
977.30721
975.71254
975.86186
975.79767
974.51949
970.83748
968.66785
969.12728
968.63497
963.941
958.84206
951.5671
949.66097
945.18074
941.13103
940.5592
938.82928
933.98062
933.61384
940.82804
942.17356
942.49887
942.39186
939.62845
946.96911
948.2298
948.39069
947.86785
977.55647
977.13066
976.81847
976.31001
975.77033
975.33505
974.47325
970.52662
967.48405
966.8452
965.9012
962.67851
960.00578
943.70201
944.0058
940.71908
935.98716
933.85388
935.33183
933.38894
931.90206
939.22742
940.00557
940.33082
940.24441
939.49667
947.00404
947.44006
947.57323
947.17215
)
;

boundaryField
{
    minX
    {
        type            zeroGradient;
    }
    maxX
    {
        type            zeroGradient;
    }
    minY
    {
        type            fixedValue;
        value           uniform 1073;
    }
    minZ
    {
        type            zeroGradient;
    }
    maxZ
    {
        type            zeroGradient;
    }
    bottomWater_to_rightSolid
    {
        type            compressible::turbulentTemperatureCoupledBaffleMixed;
        refValue        nonuniform List<scalar> 
130
(
751.74987
759.79
768.18376
776.49221
784.38984
791.65917
798.1554
803.79688
808.53825
812.34327
815.19822
817.1012
818.0529
745.87961
755.24684
764.81205
774.06003
782.66911
790.46126
797.32844
803.22433
808.13868
812.0663
815.00387
816.95855
817.93445
734.07328
746.49897
758.58179
769.72666
779.70068
788.451
795.97009
802.30623
807.51371
811.64068
814.70897
816.7429
817.75662
716.38036
734.60201
750.77883
764.63315
776.37234
786.2621
794.5323
801.36352
806.89887
811.24234
814.45157
816.57329
817.63068
695.4749
723.27001
744.26864
760.72461
773.94047
784.70839
793.52871
800.71683
806.48577
810.97366
814.27477
816.4548
817.53867
695.2212
723.0137
743.9911
760.45787
773.70014
784.49837
793.35303
800.57192
806.37276
810.88671
814.20618
816.39494
817.48489
715.53301
733.80767
749.98446
763.89208
775.71185
785.68001
794.03885
800.96917
806.58722
810.99013
814.24564
816.39961
817.47393
732.72449
745.21484
757.34627
768.58301
778.67434
787.53904
795.18362
801.65102
806.9878
811.23011
814.38404
816.47614
817.52073
744.26433
753.67067
763.28134
772.62262
781.37468
789.31499
796.33399
802.37969
807.44678
811.53287
814.584
816.61208
817.6243
749.98795
758.06582
766.50766
774.91111
782.97153
790.40387
797.06161
802.85941
807.7573
811.74174
814.72927
816.71889
817.71194
)
;
        refGradient     uniform 0;
        valueFraction   uniform 0.99248593;
        value           nonuniform List<scalar> 
130
(
753.17077
761.15003
769.49082
777.74081
785.57638
792.79235
799.23662
804.83509
809.55199
813.33117
816.16337
818.05005
818.99324
747.32556
756.62507
766.13574
775.31696
783.85451
791.59519
798.41422
804.26378
809.14688
813.05583
815.97479
817.91792
818.88524
735.59305
747.92389
759.93948
771.00441
780.90206
789.61095
797.07213
803.3578
808.52331
812.63112
815.6797
817.70051
818.70415
717.96237
736.03513
752.19012
765.9452
777.6008
787.42062
795.633
802.41249
807.90858
812.23684
815.42878
817.54131
818.59709
697.07304
724.73139
745.67542
762.04619
775.17384
785.86355
794.62831
801.77427
807.51448
811.97607
815.25525
817.43262
818.51209
696.84492
724.50881
745.36725
761.74388
774.90532
785.63189
794.4448
801.61834
807.39965
811.89416
815.19546
817.37466
818.46256
717.08776
735.27335
751.34058
765.1603
776.91917
786.81147
795.12148
802.03359
807.62143
811.99673
815.23309
817.37837
818.45038
734.17949
746.61254
758.64831
769.81424
779.8423
788.65466
796.25019
802.68192
807.99843
812.23887
815.37556
817.4572
818.49746
745.69838
755.02589
764.55036
773.81632
782.52416
790.41702
797.39655
803.3983
808.44123
812.54963
815.58003
817.59377
818.59647
751.36958
759.39778
767.76162
776.09078
784.14562
791.52799
798.13815
803.89172
808.74719
812.75815
815.72651
817.70218
818.68475
)
;
        Tnbr            T;
        thicknessLayers List<scalar> 0();
        kappaLayers     List<scalar> 0();
        kappaMethod     fluidThermo;
        kappa           none;
        alphaAni        none;
        alpha           none;
        field           T;
    }
    bottomWater_to_leftSolid
    {
        type            compressible::turbulentTemperatureCoupledBaffleMixed;
        refValue        nonuniform List<scalar> 
130
(
887.98818
887.9735
887.92976
887.84876
887.72509
887.55865
887.34885
887.11619
886.89798
886.68647
886.50611
886.36836
886.28222
888.05193
888.01859
887.94255
887.8356
887.69464
887.5183
887.31041
887.07869
886.85404
886.63859
886.44672
886.29124
886.18747
888.1959
888.14109
888.02317
887.86203
887.69084
887.49977
887.28195
887.038
886.79167
886.55545
886.33623
886.14734
886.009
888.34846
888.27115
888.12977
887.92787
887.7083
887.48791
887.24532
886.97717
886.70158
886.42827
886.16914
885.93925
885.75685
888.40393
888.31946
888.15978
887.93615
887.70056
887.46228
887.20388
886.92428
886.62186
886.30422
886.00602
885.75139
885.58303
888.43461
888.35674
888.19792
887.95478
887.71315
887.46544
887.20208
886.91409
886.59551
886.22859
885.89512
885.61319
885.4463
888.48056
888.41409
888.27488
888.05496
887.80529
887.53856
887.2614
886.96
886.62587
886.25101
885.9115
885.64044
885.48026
888.55197
888.49565
888.38114
888.20555
887.97135
887.68555
887.40136
887.10607
886.7855
886.44107
886.12125
885.86705
885.71796
888.60979
888.5577
888.45328
888.29551
888.08544
887.82692
887.52726
887.2106
886.89251
886.56892
886.26507
886.01208
885.8715
888.62855
888.58001
888.481
888.33032
888.13
887.88331
887.59379
887.26903
886.93996
886.62721
886.34084
886.10665
885.96998
)
;
        refGradient     uniform 0;
        valueFraction   uniform 0.99248593;
        value           nonuniform List<scalar> 
130
(
888.57142
888.56192
888.52385
888.44946
888.32852
888.16443
887.93414
887.667
887.44999
887.21692
887.02854
886.88782
886.7833
888.65443
888.62009
888.5233
888.41768
888.27606
888.09539
887.87984
887.62145
887.39554
887.17145
886.97387
886.81349
886.68539
888.84086
888.78384
888.63548
888.42911
888.25826
888.06768
887.84717
887.58781
887.33099
887.09096
886.86507
886.66503
886.47552
889.041
888.93959
888.78425
888.53426
888.2759
888.05638
887.80902
887.52494
887.23865
886.95452
886.68148
886.43146
886.13875
889.07727
888.97291
888.78722
888.51834
888.26151
888.02517
887.75927
887.47784
887.16386
886.81631
886.49767
886.21214
885.99444
889.09229
889.00765
888.8363
888.51139
888.26952
888.02814
887.77083
887.48489
887.17393
886.72336
886.36577
886.02632
885.82645
889.13134
889.06219
888.91877
888.64784
888.37748
888.1047
887.83305
887.52764
887.18405
886.72969
886.35972
886.05813
885.86739
889.21119
889.15122
889.03735
888.86243
888.6145
888.27509
888.00167
887.72357
887.40277
887.02224
886.67767
886.40221
886.22823
889.27905
889.22219
889.1155
888.95666
888.74536
888.48476
888.15842
887.82435
887.51266
887.17593
886.85734
886.55698
886.40341
889.29678
889.24539
889.14478
888.9914
888.78853
888.54042
888.2466
887.89463
887.54519
887.23
886.9386
886.68196
886.52621
)
;
        Tnbr            T;
        thicknessLayers List<scalar> 0();
        kappaLayers     List<scalar> 0();
        kappaMethod     fluidThermo;
        kappa           none;
        alphaAni        none;
        alpha           none;
        field           T;
    }
    bottomWater_to_heater
    {
        type            compressible::turbulentTemperatureCoupledBaffleMixed;
        refValue        nonuniform List<scalar> 
92
(
732.48939
734.594
738.7105
744.56344
723.13223
725.6031
730.44712
737.37912
703.40881
706.60271
712.99274
722.3797
345.57679
342.85021
342.89427
345.65733
422.2323
418.92788
419.18476
422.84386
487.75018
484.9774
485.71728
489.53003
543.40424
541.70576
543.62553
548.14871
671.23968
589.3548
675.2322
589.54976
683.78716
594.15002
697.57773
601.68469
345.57679
345.65733
422.2323
422.84386
487.75018
489.53003
543.40424
548.14871
589.3548
601.68469
345.49709
345.49709
342.78059
342.82181
345.56262
345.56262
422.10032
422.10032
418.7996
419.05321
422.68945
422.68945
487.57799
487.57799
484.82422
485.56841
489.35893
489.35893
543.22097
543.22097
541.55406
543.48482
547.99878
547.99878
589.1922
589.1922
589.3946
594.00465
601.55609
601.55609
670.37254
674.31652
682.86314
696.67752
702.07413
705.19101
711.5617
720.97846
721.4953
723.93319
728.774
735.72176
730.70216
732.82041
736.93031
742.78032
)
;
        refGradient     uniform 0;
        valueFraction   nonuniform List<scalar> 
92
(
0.99248593
0.99248593
0.99248593
0.99248593
0.99248593
0.99248593
0.99248593
0.99248593
0.99248593
0.99248593
0.99248593
0.99248593
0.99248593
0.99248593
0.99248593
0.99248593
0.99248593
0.99248593
0.99248593
0.99248593
0.99248593
0.99248593
0.99248593
0.99248593
0.99248593
0.99248593
0.99248593
0.99248593
0.99248593
0.99248593
0.99248593
0.99248593
0.99248593
0.99248593
0.99248593
0.99248593
0.99248593
0.99248593
0.99248593
0.99248593
0.99248593
0.99248593
0.99248593
0.99248593
0.99248593
0.99248593
0.99248593
0.99248593
0.99248593
0.99248593
0.99248593
0.99248593
0.99248593
0.99248593
0.99248593
0.99248593
0.99248593
0.99248593
0.99248593
0.99248593
0.99248593
0.99248593
0.99248593
0.99248593
0.99248593
0.99248593
0.99248593
0.99248593
0.99248593
0.99248593
0.99248593
0.99248593
0.99248593
0.99248593
0.99248593
0.99248593
0.99248593
0.99248593
0.99248593
0.99248593
0.99248593
0.99248593
0.99248593
0.99248593
0.99248593
0.99248593
0.99248593
0.99248593
0.99248593
0.99248593
0.99248593
0.99248593
)
;
        value           nonuniform List<scalar> 
92
(
734.13552
736.19434
740.26407
746.05908
724.8318
727.26405
732.05149
738.91865
705.2319
708.40641
714.74461
724.01244
350.00464
347.29418
347.3027
350.046
426.09336
422.84083
423.08084
426.69681
491.1189
488.41271
489.12235
492.87602
546.33195
544.69181
546.58797
551.04543
673.20251
591.93291
677.16846
592.12985
685.64649
596.68288
699.32489
604.1524
350.02587
350.02089
426.07099
426.66082
491.11002
492.82261
546.37617
550.95659
591.99209
603.98758
349.91554
349.8164
347.10425
347.11699
349.89815
349.80836
425.91618
425.86673
422.56612
422.8145
426.48511
426.40471
490.8779
490.86938
488.10486
488.83899
492.61891
492.57523
546.10597
546.09947
544.41111
546.33298
550.77696
550.7926
591.79842
591.74536
591.88533
596.45703
603.88361
603.95102
672.31572
676.16914
684.64783
698.3577
703.90981
706.88681
713.20453
722.52926
723.19058
725.53898
730.33839
737.2201
732.30247
734.40722
738.46156
744.2322
)
;
        Tnbr            T;
        thicknessLayers List<scalar> 0();
        kappaLayers     List<scalar> 0();
        kappaMethod     fluidThermo;
        kappa           none;
        alphaAni        none;
        alpha           none;
        field           T;
    }
}


// ************************************************************************* //
