/*--------------------------------*- C++ -*----------------------------------*\
| =========                 |                                                 |
| \\      /  F ield         | OpenFOAM: The Open Source CFD Toolbox           |
|  \\    /   O peration     | Version:  v2012                                 |
|   \\  /    A nd           | Website:  www.openfoam.com                      |
|    \\/     M anipulation  |                                                 |
\*---------------------------------------------------------------------------*/
FoamFile
{
    version     2.0;
    format      ascii;
    class       volVectorField;
    location    "420/bottomWater";
    object      U;
}
// * * * * * * * * * * * * * * * * * * * * * * * * * * * * * * * * * * * * * //

dimensions      [0 1 -1 0 0 0 0];


internalField   nonuniform List<vector> 
1460
(
(-0.00033209933 -0.014470098 -0.00040089479)
(-0.0030728052 -0.012647826 -0.0015688641)
(-0.0019578168 -0.01122405 -0.00028155995)
(0.0012054314 -0.0143523 -0.00038356802)
(0.0016796143 -0.015634392 -0.0010742184)
(0.0015003723 -0.016755921 -0.0013422152)
(0.00073416579 -0.018562641 -0.0014520512)
(-0.00043647311 -0.015600916 -0.0021683976)
(-0.0016869654 -0.014860084 -0.0016269691)
(-0.0022352541 -0.016115609 -0.001617025)
(-0.002321726 -0.016574307 -0.0011863877)
(-0.0025027945 -0.018989514 -0.0010443592)
(-0.0021095644 -0.018961108 -0.0011031248)
(-0.0023564648 -0.016931152 -0.00081768667)
(-0.0026448621 -0.015057802 -0.00051260796)
(-0.0046898227 -0.011652142 0.00027975348)
(-0.0046671839 -0.011152153 0.0015956194)
(-0.0025766425 -0.012499273 0.0013878325)
(-0.00016377563 -0.01243356 0.00072651906)
(0.0024543694 -0.012875977 0.00033571988)
(0.0030317621 -0.017317193 0.00037288406)
(0.0020292325 -0.019676804 0.00064511216)
(-0.00021698912 -0.017789228 0.00088068786)
(-0.0020511411 -0.01160283 0.00018970714)
(0.00087643693 -0.012229625 0.00095921252)
(0.0025538788 -0.015158576 -0.00041765761)
(0.0022502461 -0.014359496 0.00017647558)
(0.0033809794 -0.01757304 -0.0011315181)
(0.0029584167 -0.016739479 -0.00027517412)
(0.00027902104 -0.017555144 4.7154449e-05)
(-0.0012316213 0.016067851 -0.0012364729)
(-0.003190049 0.014826674 -0.0019917972)
(0.0034992925 0.0021128503 -0.0010326997)
(0.0060402282 0.0070142176 -0.00087701848)
(0.0082990325 0.015579577 -0.0029741896)
(0.0037427315 0.018038602 -0.0026647102)
(-0.0012247697 0.019574104 -0.0046334165)
(0.002832026 0.017496997 -0.0036724954)
(0.0024908158 0.016916687 -0.0028328459)
(-0.0025446612 0.017708137 -0.0033737863)
(-0.0033951435 0.018350034 -0.0035974778)
(-0.0032165187 0.019849151 -0.0020587664)
(0.0016955609 0.020014334 -0.0021854633)
(0.0016365358 0.01884817 -0.0027722111)
(-0.0024334207 0.017165046 5.0770374e-05)
(-0.0047744917 0.013960228 0.0005413178)
(-0.00076025818 0.00303534 0.00079535105)
(-0.00042965536 -0.0003858021 0.0014332516)
(0.003302536 0.0011331847 0.00014065797)
(0.0062831764 0.0039537683 -0.00029600382)
(0.00972778 0.015752692 -0.00022466613)
(0.0079881856 0.020302738 0.00033609335)
(-0.0039469919 0.018445025 0.0011152931)
(-0.0025624678 0.0083915771 0.00021837395)
(-0.00024209353 -0.00096301187 0.00083583679)
(0.0029975387 0.012075024 0.00096857654)
(0.0038313916 0.0077644409 0.0010206955)
(0.0069162161 0.016583306 -0.00023178308)
(0.0063838054 0.018529151 -0.0016329452)
(0.0029386165 0.018732543 -0.0014773828)
(0.0022700799 -0.0032992255 0.00029782555)
(0.0063986788 -0.010676152 -0.00024097099)
(0.0062139215 -0.013972434 -0.001668694)
(-0.0011033372 -0.014790359 -0.00052282258)
(0.0020194318 0.0014067021 -0.0018255212)
(-2.2705926e-05 0.0058210987 0.00011263906)
(0.0017535112 -0.011006393 0.00097400255)
(-0.0012892583 -0.016206314 0.0052572425)
(-0.0005220825 0.0019295845 -0.0010065201)
(-0.0017352631 0.0036821052 -0.0011894768)
(-0.00207182 -0.0004012535 -0.0017852234)
(-0.00026259349 -0.017425569 -0.0010013995)
(-4.7779785e-05 -0.016159739 -0.0011306622)
(0.0021753369 0.0020354017 -0.0015887508)
(0.002496413 0.00059594098 -0.00016790251)
(0.007205489 -0.010168987 -0.0012123135)
(0.0049921172 -0.014684432 -0.0016144672)
(0.00087438704 -0.013772839 -0.00012262673)
(0.00092850707 -0.013783756 -0.0010414342)
(0.0019680379 -0.014051199 -0.0011392772)
(-0.00093288254 -0.013498289 0.000272156)
(0.0041249331 0.0051821022 0.00023622826)
(0.0015615878 -0.0004944992 0.00069443811)
(0.0049094107 -0.012375183 -0.00056861743)
(-0.00034208523 -0.014452155 -0.00046508426)
(0.000171008 -0.01525101 -0.0023560775)
(0.0038288612 -0.01639093 -0.0029301574)
(-0.0036567582 -0.017145998 0.0033481246)
(0.0010681881 0.0021245445 -0.00078475875)
(-0.0011460751 0.0042263855 0.00062699348)
(-0.00020749365 0.00032217147 0.0015354611)
(0.0036096025 0.0093922382 -0.0017038675)
(0.0017224366 0.010906288 -0.0026798809)
(-0.0033258538 0.010081746 -0.0015653818)
(-0.0023152792 0.0075081061 0.00039149374)
(0.00031101038 0.010116474 0.00030192793)
(0.0027010987 0.012546345 0.0014267885)
(-0.005145884 0.012008702 0.00012958106)
(-0.0025686211 0.0088469941 0.00047641516)
(-6.9992244e-05 0.0094687834 6.3321467e-05)
(0.0025020648 0.0085511778 -0.00041943933)
(0.0048063814 0.012602625 -0.0021687039)
(-0.0045281093 0.01320343 -0.00076748735)
(-0.0022142631 0.0074956573 0.0018009675)
(0.0017460843 0.0026606957 0.00032903942)
(0.0046661551 0.0085480491 -0.0003476253)
(-0.00010707736 0.010669359 0.0010401239)
(0.0023616707 -0.0025113248 -0.0015542324)
(5.8624205e-05 -0.003883098 -0.00098416715)
(0.0044084107 0.0025933185 -0.00071694516)
(-0.0023998576 0.011107393 0.00095929375)
(-0.00057638626 0.0096684809 0.0002638835)
(0.0035788479 0.0085782967 -2.3166388e-05)
(0.0028694011 0.0072200685 0.00023227832)
(0.002564084 -0.0027122254 -0.00049776086)
(0.00041580987 0.0018419805 -0.0013897105)
(0.0020714623 0.011364509 -0.0032183659)
(-0.0042169965 0.011307695 -0.00070618825)
(-0.0029359977 0.0077340694 0.00085221135)
(-0.0017423296 0.010007377 0.0010169133)
(-0.0031651648 -0.010368102 -9.6894326e-05)
(-0.0043378642 -0.009259208 0.0017695231)
(-0.0026339743 -0.0033960433 0.0012639682)
(-0.0035126926 -0.0043404492 0.0021031446)
(-0.0038109896 -0.0012294922 0.0022209393)
(-0.0033044653 0.0019466017 0.0025491502)
(0.00024007585 0.00045188938 0.0027777818)
(0.00080579998 -0.0041080138 0.0030055966)
(0.00065153614 -0.0021785015 0.0025615388)
(0.0014359717 9.3118018e-05 0.0026934176)
(0.0014752578 -0.0026435259 0.0022268917)
(0.0021645728 -0.0029262007 0.0021683547)
(0.0019875701 -0.0019642089 0.0021472385)
(0.0053486552 -0.0071968956 0.00029504469)
(0.0016580912 -0.0097632115 -0.0010819661)
(0.00027361502 -0.0071397263 0.00090318731)
(0.0026425394 -0.0092593574 -0.0012614551)
(0.0040353904 -0.010413223 -0.0033779049)
(-0.0033744665 -0.0099940403 -0.0017780217)
(-0.0062011374 -0.0073343196 -0.0010670561)
(-0.005230838 -0.0040185198 -0.00037530424)
(-0.0011511225 0.0019604953 -0.0004401684)
(0.0036477137 -0.0015993777 -0.00099896312)
(0.0052245655 -0.007995515 -0.001810157)
(0.003960953 -0.010350935 -0.0014494403)
(-0.0052691047 -0.0092812775 0.0002098657)
(-0.0038812672 -0.0046141466 0.0003454238)
(-0.0040542995 -0.0045976158 0.0013956961)
(-0.0030088732 -0.001264629 0.0014275814)
(-0.0021654093 0.0026090597 0.0020144861)
(-0.002463282 -0.015243639 0.00020925727)
(-0.0013590879 -0.010256903 -0.00040471415)
(-0.00054889839 -0.011362556 0.0014809388)
(0.00057766478 -0.012370151 0.00039121047)
(0.0016412377 -0.016084945 -0.0013063477)
(0.0011976748 -0.016018273 -0.0019534522)
(-0.0013297951 -0.017354847 8.8264299e-05)
(0.0010478601 -0.010350341 0.00029053349)
(0.0012893772 -0.014786065 -0.00140043)
(-0.0013406681 -0.014904268 -0.0032951263)
(-0.0018392096 -0.01409294 -0.0038888793)
(-0.0019883428 -0.015147202 -0.0033500946)
(-0.0012010896 -0.015654779 -0.0038340471)
(-0.0014356636 -0.01657853 -0.003893714)
(-0.0019009963 -0.017597672 -0.0035795012)
(-0.002856317 -0.015820817 -0.0018618289)
(-0.0047716444 -0.012552489 0.0011595991)
(-0.0034267056 -0.011699071 0.0024283547)
(-0.0016968298 -0.012246016 0.0019924513)
(0.0011225543 -0.013254492 0.00090441996)
(0.0018640122 -0.019249602 0.00051776066)
(0.0020678858 -0.020655178 0.00035694784)
(-0.00052092761 -0.017354816 0.00054448363)
(-0.0018363354 -0.014149779 0.00081570364)
(-0.00081658309 -0.011492039 0.0023337534)
(0.0013161342 -0.020050501 0.0014385212)
(-0.0017597831 -0.019568022 0.0022156051)
(0.0007956262 -0.012151814 -0.00041898687)
(0.0035186934 -0.014570652 -0.00100367)
(0.0002871864 -0.016766638 -0.00050043438)
(-0.0018445001 0.016930931 0.00051701014)
(0.001168175 0.00082209552 -0.0011304642)
(0.001566125 0.0043583796 -0.00061345435)
(0.0039092714 0.0055969365 -0.0015485788)
(0.0064933905 0.012455207 -0.0038155668)
(0.0041674947 0.017475563 -0.0039725199)
(-0.0024547662 0.017338668 0.003426874)
(0.0014337118 0.0023737987 0.0028206548)
(0.0031204851 0.015871852 -9.6376131e-05)
(-0.0017330867 0.016792734 -0.0044011354)
(-0.0020094994 0.015116395 -0.0062109958)
(-0.00035981012 0.013386458 -0.004108555)
(0.0016566901 0.014984454 -0.0048185211)
(0.0027429017 0.017167365 -0.0051442136)
(0.0021943125 0.019114123 -0.0026288067)
(-0.0027522806 0.017851899 0.0025867583)
(-0.0039834511 0.014312786 0.004312413)
(-2.947163e-05 0.0032876875 0.0026908485)
(0.0019047224 0.0035931518 0.0014128576)
(0.0058702198 0.0055300151 -0.00068044912)
(0.0092630603 0.017264232 -0.0020634754)
(0.0080174805 0.021284398 -0.0018406506)
(-0.0039017679 0.018690653 0.0011944215)
(-0.0024854842 0.012239711 0.0010950596)
(-0.0014281544 0.003599448 0.0019440233)
(0.0046782194 0.020007282 0.00053572271)
(-0.0043833298 0.018460673 0.00095156366)
(-0.0019930562 -0.00037343434 5.9727081e-05)
(0.0045559422 0.01531661 -0.0044037398)
(0.00346141 0.018525425 -0.0034011842)
(0.0026651422 -0.015137182 8.9125505e-05)
(0.0023995123 -0.013247422 -0.0016499596)
(0.0020738036 -0.012743165 -0.0028334781)
(0.0026594035 -0.013932321 -0.00272276)
(-0.0011599187 -0.015042968 0.002524474)
(-0.00028977773 0.0036163959 -4.0065603e-05)
(0.0018853279 -0.015683152 0.0039337497)
(-0.0012078093 -0.01483455 0.0018688979)
(-0.0028522295 -0.0059565863 0.0025833822)
(-0.0015129446 -0.0046821038 0.002962454)
(-0.0021860166 -0.014259789 0.0049835374)
(-0.0011303204 -0.015035352 0.0030862407)
(0.0025371558 -0.01523143 0.0026656555)
(0.0032856638 -0.015219812 0.0042265926)
(0.0030181622 -0.0036282619 0.0024483135)
(0.0027404369 -0.0017914104 0.0013627532)
(0.0061056971 -0.011239761 -0.0019041789)
(0.0034559467 -0.014672583 -0.00096067095)
(0.00039682078 -0.01380638 -0.0019051701)
(0.002764748 -0.014597266 -0.0018795479)
(-0.002399363 -0.015273651 0.00032803382)
(0.0045173429 0.0071288425 -0.00099813293)
(-0.00040061299 0.0030387118 0.00027521154)
(0.0054513369 -0.014124066 0.0011823089)
(-0.003597379 -0.013913627 0.0011142373)
(-0.00022848685 -0.0051504218 0.0010391941)
(0.0025107817 0.0016618727 -0.00064065466)
(-0.0012329466 -0.015835142 0.0020638644)
(-0.006354789 -0.014906563 0.0022545888)
(0.00096367376 0.0011362018 -0.00064892279)
(-0.0020138998 0.010206088 0.0042966203)
(0.00023567435 -0.0015855904 -0.0003487614)
(-0.0016816082 -0.0014332721 0.0018049078)
(0.00050185232 0.0079813586 -0.0015177426)
(-0.0047139919 0.01094504 0.001591099)
(-0.0004343975 0.0071125427 0.0017894821)
(0.0014242939 0.014264415 -0.0029227461)
(-0.0045285268 0.010076202 -0.0030310364)
(-0.0025872792 0.00857579 0.0006232315)
(0.001280728 0.0074511427 0.0019374208)
(0.0026619313 0.0073721889 0.00023616756)
(0.0024701008 0.0024867371 -0.00096385678)
(0.0025676132 0.0037240201 -0.0012848328)
(0.00015122788 0.011909514 0.0021428112)
(-0.0016200472 0.0083011738 0.0050234082)
(0.0029980614 0.0057381138 0.00075046341)
(0.0038669933 0.009907559 -0.001498984)
(0.0020191009 0.0088055555 0.0005961845)
(0.0011706408 -0.00088665032 -0.0013741687)
(0.0048410851 0.0040731517 -0.0014021556)
(-0.0028036418 0.011987997 -0.0001027553)
(-0.00014024221 0.010580951 -0.00091369509)
(0.0029320611 0.0088004619 8.341209e-05)
(0.0036085996 0.011644915 0.00071644454)
(-0.00084537029 0.0038885389 0.0020727317)
(-0.00094944101 0.0013547598 0.00088927503)
(0.003587273 0.0075527371 -0.0014674536)
(0.0045249772 0.0092243123 -0.0020159058)
(-0.0042520463 0.01100347 0.0026169518)
(-0.0015161417 0.0079354065 0.00077824278)
(0.0022196873 -0.0053459709 -0.003297849)
(0.0033815666 -0.009833705 -0.0020312725)
(-0.0037608123 -0.010091026 0.0041236077)
(-0.0049311259 -0.0097071446 0.0047367246)
(-0.0047744301 -0.0076626276 0.0043968143)
(-0.0043365249 -0.0046000308 0.004544029)
(-0.0012048036 -0.0042064835 0.0036943232)
(0.0013785918 -0.0074461262 0.0037645148)
(0.002630179 -0.0093947625 0.0039931029)
(0.0032073899 -0.0087494278 0.0043601623)
(0.0036494507 -0.010475978 0.0040330769)
(0.0033565606 -0.01039316 0.0049502584)
(-0.00096575108 -0.0092614295 0.004123016)
(-0.00029214103 -0.002795729 0.0013872118)
(0.0031412518 -0.0079628085 -0.0014803121)
(-0.00079732755 -0.0094363508 -0.0019444202)
(0.00055231766 -0.0044067521 -0.0033312231)
(0.0037855746 -0.0094257421 -0.0046366166)
(-0.001127887 -0.010943636 -0.0029581254)
(-0.0065295772 -0.0067775923 -0.0015591979)
(-0.0049962338 -0.0018829474 -0.00067425095)
(-0.00053037128 0.003730393 -0.00087599809)
(0.0032110164 0.00050062136 -0.0007140246)
(0.0049503176 -0.0028514198 -0.00059068721)
(0.0062875938 -0.0072227692 -0.00069023183)
(0.0007940441 -0.01019453 0.0014063502)
(-0.0039099442 -0.0078176106 0.0037925982)
(-0.0031726186 -0.0045981845 0.0034662479)
(-0.0032848122 -0.0012596032 0.0035592843)
(-0.00059955475 -0.00019036193 0.0032375412)
(-0.00015671815 -0.017095849 0.00087807569)
(-0.0020535342 -0.014231252 0.0023612386)
(-0.0031446988 -0.012802286 0.0025321237)
(-0.0025401952 -0.010422085 0.0019448749)
(2.0342228e-05 -0.01155283 0.00067703185)
(0.0011997393 -0.013665126 -0.0018823454)
(0.00083227073 -0.018080837 -0.0022612417)
(0.00096204898 -0.019351273 -0.00049499218)
(-0.001774155 -0.015827719 -0.0016606252)
(-0.0033066555 -0.012355709 -0.0027475772)
(-0.0019090454 -0.011846062 -0.0027347239)
(0.00019444334 -0.011850554 -0.0014078878)
(8.7940865e-07 -0.011581617 -0.0027004387)
(0.0013811816 -0.011527109 -0.0016469971)
(0.0017046312 -0.014775192 -0.0031765004)
(0.00029385023 -0.018151577 -0.0024203036)
(-0.0016735006 -0.017169871 -0.0010326579)
(-0.003000322 -0.014489183 0.0018924659)
(-0.003444396 -0.013399608 0.0018349303)
(-0.0013653618 -0.012536038 -3.728784e-05)
(0.0012418808 -0.015561925 -0.00090075757)
(0.0013597655 -0.01961694 0.00012017028)
(-0.00017819759 -0.019607293 0.0011139957)
(-0.001265623 -0.013427773 0.0012433402)
(0.00068617594 -0.013449156 0.0012440798)
(0.000238968 -0.01766692 -0.0016441379)
(-0.0031080046 -0.017680421 -0.00055022575)
(6.9217571e-06 -0.012174519 -7.7336159e-05)
(0.0024237028 -0.013267959 -0.0017044966)
(0.0016357494 -0.016635648 -0.0010582214)
(9.7925914e-05 0.018170105 0.0040075068)
(-0.00041779753 0.015192626 0.004753227)
(-0.0020247133 0.012803724 0.0036417208)
(0.00077488821 0.0022656332 -0.00041570785)
(0.0028796961 0.00066768103 -0.00061827083)
(0.0049560337 0.0098072058 -0.0029846834)
(0.0056039242 0.01825802 -0.00097947013)
(0.00089978284 0.019674459 0.00077561393)
(-0.004992848 0.017051009 -0.0020069308)
(-0.0026703402 0.0086486082 -0.0015266116)
(-0.0017140223 0.00076112873 -0.00039923995)
(0.0012771044 0.0026197552 -0.0019392061)
(0.0025356728 0.0014540198 -0.0021587357)
(0.0053720638 0.0023347935 -0.0012043852)
(0.0073341833 0.010935101 -0.0014122761)
(0.0067833909 0.018475827 -0.00068834788)
(-0.0017931074 0.018875367 0.0023782218)
(-0.0029146311 0.016136379 0.0038038177)
(-0.00096072135 0.011754574 0.0011576094)
(0.0027708412 0.0044694905 -0.0020749836)
(0.0052902528 0.011471795 -0.0034223581)
(0.0057461099 0.019797387 -0.0039003875)
(-0.0073371162 0.018593572 0.0015316504)
(-0.0039241155 0.0078185804 0.0014171586)
(-0.002479998 0.0089866111 0.0013954958)
(0.00050929496 0.018696685 -0.005307581)
(-0.0062370729 0.016252153 -0.0051027218)
(0.00029014236 0.00018445076 -0.0011485734)
(0.0016659798 0.00818901 -0.0029439828)
(0.0039662443 0.017850661 -0.0028923651)
(0.00099734869 -0.015346395 -0.0022545855)
(-0.00043102435 -0.011551443 -0.0021680906)
(0.0019538181 -0.013368602 -0.0023280694)
(0.0030437716 -0.013160326 -0.0026874787)
(0.0013123096 -0.014378937 -0.00037764115)
(-0.0044890065 -0.013166397 0.002345677)
(0.00016431626 -0.00031210063 0.0016266225)
(0.00066646643 0.0043211975 0.00017296273)
(0.0026355435 -0.0055965471 0.001407803)
(0.0050327944 -0.013989303 0.0037937215)
(0.00093078085 -0.014645403 0.0041843104)
(0.0010475612 -0.014320737 -0.0014854944)
(0.0015980569 -0.014006433 0.00025227638)
(0.0036956188 -0.013951639 0.0020075461)
(-0.00069774195 -0.014243517 0.0056524899)
(0.0026993963 0.0032721288 0.0012717616)
(1.3841824e-05 0.0053409693 0.00066677301)
(0.0018372169 -0.010267293 -0.002564305)
(0.0025261439 -0.014298347 -0.0030316289)
(0.0034582045 -0.014631906 -0.002113437)
(-0.0039083662 -0.01472725 0.0018511568)
(0.001187126 0.0064082182 -0.0015127568)
(-0.0034474314 0.0010581504 0.0022184172)
(0.0013449184 -0.016317348 9.4628876e-05)
(-0.006502733 -0.014586338 0.0029877526)
(-0.0024001387 -0.0090033547 0.0024879403)
(0.0021078616 -0.014107597 0.0033865962)
(0.0024751861 -0.014662174 1.9860519e-05)
(-0.0047306979 -0.015292494 -0.0027737424)
(-0.00045868169 -0.0052328651 -0.0031958824)
(-0.0021242386 0.01318075 -0.0042306743)
(-0.0044243774 0.0081140276 -0.0029261484)
(-0.0025168922 -0.0018658968 -0.0020894274)
(-0.0035468305 -0.0013789312 -0.00031231742)
(-0.0018489098 0.0078342925 -0.001694843)
(-0.0034090468 0.010069279 0.0018438606)
(-0.0029288275 0.0082613294 -0.00056049119)
(-0.00044958703 0.0095395839 -0.0012593304)
(0.0035097417 0.0085531034 0.00015172128)
(0.0046291508 0.010893132 -0.00023239769)
(0.0030507306 0.0055261913 -0.001719539)
(0.0041382298 -0.0026587117 -0.0028043592)
(0.001775121 -0.0040110389 -0.0016976298)
(0.0039298228 0.0031095045 -0.0019499533)
(-0.0019324315 0.0097949138 0.0034562937)
(-0.00060433152 0.0083832892 0.002885129)
(0.0016639428 0.009212539 -0.0012849131)
(0.0042224499 0.010233589 -0.0032667952)
(0.0024130552 0.0030763489 -0.0028339744)
(0.004127093 0.0053657015 -0.0024630445)
(-0.0038561969 0.011462943 -0.0017171801)
(-0.0020795808 0.0096188907 0.00079253878)
(0.00052563996 0.0090319011 0.0017433094)
(0.002011329 0.01012899 -0.002475138)
(-0.0040805566 0.0089287036 0.00086435626)
(1.4320456e-05 0.0009973694 0.00099095483)
(-0.0014880315 0.00089629218 0.0029635727)
(-0.0015472575 0.0051985628 0.00035066702)
(-0.0035195631 0.010232942 -0.002547372)
(-0.002263257 0.0070385344 -0.0020522379)
(0.0013534438 -0.000220186 -0.0037961498)
(0.004455737 -0.0075571187 -0.0042723185)
(0.0020603658 -0.010885508 -0.002408489)
(-0.0045250598 -0.011265193 0.0024125518)
(-0.0052717177 -0.01001258 0.0029037392)
(-0.0039301333 -0.0077857285 0.0025252332)
(-0.0023498357 -0.0058578666 0.0029694573)
(0.00051933241 -0.0044003325 0.00047398646)
(0.0022418684 -0.0094447408 -0.0009942209)
(0.0039056919 -0.011330176 -0.001289019)
(0.0049425945 -0.01197698 -0.002211198)
(0.0044235898 -0.011917068 -0.0022550308)
(-0.0029400022 -0.0094181304 0.00096106956)
(-0.0050575705 -0.00550384 0.0017474145)
(-0.0038198774 -0.0012866991 0.00056323814)
(-0.0014904978 0.00041651035 -0.00012139132)
(0.00082312352 0.0011101155 -0.0024386018)
(0.0039144801 -0.0044710849 -0.002715783)
(0.00076337272 -0.010571278 -0.0020070251)
(-0.0058536078 -0.0066930878 0.00068012389)
(-0.0045753096 -0.00076456053 0.00066547536)
(-0.0017471779 0.0026796099 0.0016607185)
(0.0018505081 0.00066252026 0.0016704953)
(0.0038551675 -0.0026849135 0.00058127958)
(0.0047152304 -0.0059439278 0.00093964592)
(0.0040547712 -0.009668997 0.0017708658)
(-0.0032470025 -0.01107696 0.0055942762)
(-0.0039294085 -0.010053001 0.0059198211)
(-0.0034515062 -0.0085456163 0.0059980737)
(-0.00021396152 -0.0078264547 0.0053273269)
(-0.00058003507 -0.013863608 -0.00042414225)
(-0.0016655653 -0.014169754 0.00088228156)
(-0.002356499 -0.012900631 0.0016542652)
(-0.0039109302 -0.011139859 0.0021291676)
(-0.0033206771 -0.010560344 0.0019913987)
(-0.00069344156 -0.011898988 -0.0010854859)
(0.001503679 -0.017386507 -0.0016177091)
(-0.00039183305 -0.017427814 0.00067156619)
(-0.0038538746 -0.013888318 0.00031722945)
(-0.0035112115 -0.012065004 0.00020076176)
(-0.00021075933 -0.014133445 -0.00036667428)
(0.001158788 -0.016481883 0.001369443)
(-0.0026463714 -0.013271451 0.0027291279)
(-0.001214357 -0.012543393 0.00046004957)
(0.0011307091 -0.013019567 -0.00040882447)
(0.0023308454 -0.01611964 -0.00010578086)
(-0.00029256954 -0.017770928 -0.00051563829)
(-0.0021403596 -0.015688163 -0.00032617048)
(-0.0043349627 -0.013045016 -1.4363704e-05)
(-0.0029262203 -0.011356075 -0.00051426026)
(0.00040818186 -0.012014793 -0.0011374255)
(0.0017256623 -0.018063893 -0.00027302696)
(0.00028183285 -0.01944701 0.0029615886)
(-0.0030693515 -0.015976275 0.0036467439)
(-0.0031387416 -0.012562953 0.0033885512)
(-0.0025087574 -0.012433988 0.003213826)
(-0.0010417759 -0.012855664 0.0026896341)
(0.0022828552 -0.012871015 0.00081180766)
(0.0033137932 -0.015043683 0.00019394295)
(0.0017068256 -0.017614182 0.00056076684)
(-0.00061725585 0.016198991 0.0027569782)
(-0.0023645051 0.016361366 0.0032033084)
(-0.0033231315 0.015471024 0.002516849)
(-0.003507465 0.013117025 0.0023904868)
(0.00079543781 0.0042287435 0.00019368063)
(0.0024335631 0.00097283374 -0.0024917989)
(0.0066875284 0.014944218 -0.0042833801)
(0.00079028737 0.018939992 -0.0018021485)
(-0.0068427361 0.014147013 -0.00060226498)
(-0.0016626051 -0.00083305676 -0.00015761813)
(-0.0019264036 -0.00058584219 -0.00066473491)
(0.004343865 0.016735161 -3.3667512e-05)
(-0.00084023034 0.0069077614 0.00029351461)
(0.0029240265 0.0052901102 -0.0014657728)
(0.003678566 0.0017165538 0.00020306826)
(0.0088094091 0.014893918 -0.00033657844)
(0.0056025258 0.019045098 7.5388492e-05)
(-0.003328451 0.017953816 0.0018734093)
(-0.0044020179 0.014149422 0.00081722971)
(0.00083530496 -0.00010383648 -0.00052242619)
(0.0024615209 0.0022820884 -0.0027938283)
(0.0060974977 0.01591995 -0.0054090182)
(-5.4159024e-05 0.020530208 -0.0010850218)
(-0.0067776451 0.015651247 0.0032663608)
(-0.0034660266 0.0040772215 0.0019760252)
(-0.0032311258 -0.001017205 0.0031440353)
(-0.0019182668 -0.0020012175 0.0026080557)
(0.00052248115 0.00045706848 -0.00066832281)
(0.0036670079 0.013267371 -0.0014778489)
(0.0033223596 0.018625014 -0.001677191)
(0.00012371464 0.0024851037 0.001984629)
(0.000395088 0.0024999646 0.0024397489)
(-0.00071923978 -0.0028629469 0.0024648015)
(0.0031447684 -0.012441371 -0.0027000835)
(0.0053817691 -0.013454813 -0.002881411)
(0.0016140707 -0.014820392 -0.0017970835)
(-0.00031676973 -0.010571468 0.0010808427)
(0.0017449563 0.0061767229 -0.00013432788)
(0.0036600301 -0.010148483 0.00016068768)
(0.0043173304 -0.014773632 -0.00068003163)
(-0.0048371138 -0.015371229 -0.00012167949)
(-0.0027283403 -0.013468557 0.0015154417)
(0.0021759823 -0.013990465 -0.00140759)
(0.003310594 -0.013295034 -0.00034107795)
(-0.0012787795 -0.015990378 0.0032572747)
(-0.0035313509 -0.014413708 0.003129974)
(0.0033136204 0.0057764656 0.00033571673)
(-0.0013419473 0.0036419039 0.00025613703)
(0.0040206013 -0.013819282 -0.0010819035)
(0.0032174347 -0.014171758 -6.6252266e-05)
(-0.0011543958 -0.014324293 -0.00084074741)
(-0.0039550502 -0.010742308 0.0013755289)
(-0.0011226791 0.0068179893 0.00023816955)
(1.9890948e-05 -0.0069653381 -0.0009540775)
(0.00018926911 -0.014978521 -0.00064637149)
(-0.0020872369 -0.014735501 0.0038382176)
(-0.00065413331 -0.015169308 0.0042219912)
(-0.0023937585 -0.01472445 -0.00051676767)
(-0.0054637188 -0.014553763 -0.00057578122)
(-0.00097488603 -0.0058665798 -0.0012165688)
(0.00036493304 0.0084629319 -0.001007676)
(0.00075902557 0.0085578865 8.7306323e-05)
(0.00050341927 0.0071240668 0.0019733046)
(0.0010246038 0.00063752602 -0.0010583571)
(0.00059086848 0.0035258693 -0.001779277)
(0.0019830112 0.0095823947 -0.00023283307)
(-0.0030390468 0.010605668 0.0021256523)
(0.00093116466 0.008654268 0.0012069439)
(0.0027326469 0.010166363 -0.00034088196)
(0.0019201607 0.011194466 0.00083433439)
(0.0008844194 0.012484849 0.00084166425)
(0.0012766758 0.0011069867 -0.00046431999)
(-0.0002582873 -0.0044177277 -0.0011365611)
(0.0010262219 0.0050071739 0.00017411209)
(-0.0016551088 0.011736792 0.00096719181)
(-0.0039840804 0.011077037 0.0031049514)
(-0.00057213158 0.0090951541 -5.0317955e-05)
(0.00099935114 0.0080322021 -0.0024932334)
(0.0040872724 0.0022561575 -0.0010988938)
(0.00021309921 -0.0022751338 0.00081435933)
(0.0016058126 0.0075929658 -0.0027451004)
(-0.0059934879 0.011139523 0.0007518242)
(-0.0020467771 0.0099443305 0.00018176877)
(0.0013038064 0.008344488 -0.0053064174)
(-0.001409015 0.0043060989 -0.0022157817)
(0.00014390154 -0.0027330991 0.0024452457)
(-0.0010687453 -0.003542189 0.0023059996)
(0.0010385818 0.0036646706 -0.00014120943)
(-0.0022243764 0.0061218023 -0.0013214546)
(-0.00093145687 0.0024450732 -0.0021345788)
(0.0012133754 0.00028676768 -0.00020386519)
(0.0019693531 0.00083070156 -0.001229481)
(0.0036389795 -0.0030519395 -0.0018554359)
(0.0011576488 -0.0093262771 -0.0010815482)
(-0.0043192589 -0.01016235 0.00026112326)
(-0.003841243 -0.0083859042 0.00065902911)
(-0.003101218 -0.0068583578 0.0012795573)
(0.0002031558 -0.00029029643 0.0011359615)
(0.0025865892 -0.0059349242 -0.0012906826)
(0.003733542 -0.010296614 -0.0022651277)
(0.004914836 -0.012064331 -0.0037631509)
(0.0047280131 -0.011816872 -0.0040117409)
(-0.0027119857 -0.010565664 -0.00090581937)
(-0.00627712 -0.0093366188 0.0007054451)
(-0.0044191918 -0.0057272113 0.00056467487)
(-0.0027193663 -0.0063590415 0.00086096574)
(3.9506746e-05 0.0018900387 -0.00053020294)
(0.0027623496 -0.002458664 9.446994e-05)
(0.0035229056 -0.010088611 0.0012399336)
(-0.0048495545 -0.0090237324 0.0040417821)
(-0.0052328057 -0.0052629353 0.0037094226)
(-0.0041561106 7.6697486e-05 0.0029759782)
(4.8584573e-05 0.0025716891 0.0020675907)
(0.0038167368 -0.0037907178 0.0016441963)
(0.0046933294 -0.0079598404 0.0020159883)
(0.0035511484 -0.0093681643 0.0013239743)
(-0.0022220193 -0.010311298 0.00017500014)
(-0.0021956724 -0.0095214059 -0.0022907292)
(-0.0013273286 -0.010344005 -0.0015923209)
(0.0010800504 -0.010759744 -0.0039562325)
(-0.0004352206 -0.014928987 -0.0017677736)
(-0.0015563258 -0.014964185 -0.0014726266)
(-0.0020363875 -0.015987784 -0.00098243632)
(-0.002180498 -0.014491281 -0.00039583687)
(-0.0041605112 -0.011369092 0.00078268062)
(-0.0024703148 -0.011100296 0.00020570466)
(0.00084181741 -0.012579737 -0.0013254931)
(0.0013914597 -0.016448694 0.0021519915)
(-0.0015641764 -0.015401418 0.0019819358)
(-0.0031346043 -0.012253201 0.002989384)
(-0.0025740037 -0.011506959 0.0022358606)
(0.00068250898 -0.012006385 0.0012218245)
(0.0012095705 -0.01420532 0.0042324673)
(-0.0017666257 -0.017192512 0.00058751887)
(-0.0039292832 -0.015031951 0.0007748732)
(-0.0026160065 -0.01208751 0.001403157)
(-0.00034242369 -0.012697728 0.00020942338)
(0.001703829 -0.011685103 5.0351948e-05)
(0.0028337942 -0.016498076 0.0030174826)
(0.00025916653 -0.017302863 0.0043064127)
(-0.001652583 -0.014197025 0.0055064415)
(-0.003117744 -0.014412044 0.0053132794)
(-0.0026685336 -0.013504002 0.0045494099)
(-0.00092960837 -0.014011325 0.0029562221)
(0.00031900929 -0.01234652 0.00035428861)
(0.0019519744 -0.01809918 0.001143445)
(-0.0021335117 0.01636158 -0.0030920424)
(-0.0034557095 0.016667203 -0.0024859244)
(-0.0029194881 0.017452892 -0.00030418291)
(-0.0019191862 0.016310919 0.00092916869)
(-0.0043977511 0.013682566 0.0017726837)
(0.0021765109 -0.00039137747 -0.0023477905)
(0.0018677899 0.0050038291 -0.0010568336)
(0.0054380128 0.016854371 -0.00084704374)
(-0.0036229696 0.017305643 0.0024158856)
(-0.0055282682 0.012936476 0.0028870278)
(-0.0016658538 0.00076082087 -0.0012535495)
(-0.0023511174 0.0012196083 -0.00017166018)
(0.0028978986 0.015588238 0.0056120615)
(-0.0047636037 0.018502818 0.0021800475)
(-0.0055272051 0.012488665 0.0017384189)
(-0.0026608283 -0.00095453635 0.00084021626)
(0.00057724201 0.0018872735 -0.00082928577)
(0.00073462783 0.0016670194 -0.0018828744)
(0.0056511402 0.016856471 -0.0019742773)
(-2.0983497e-05 0.019071025 0.0020941577)
(-0.0041190134 0.015765058 0.005656317)
(-0.0045007772 0.01426361 0.0053387481)
(-0.0020609581 0.0077151846 0.0025581672)
(0.00052436236 0.0066203835 0.0012343245)
(-0.00044699247 0.0059665394 -8.8311798e-05)
(0.003524111 0.019208175 7.6892559e-05)
(-0.00072709008 0.0011711739 -0.0015832352)
(-0.00042767378 -0.0058265504 0.00081589561)
(-0.00058788172 -0.012728237 -0.00083590692)
(0.002621289 -0.0061228483 -0.0018616657)
(0.0057649248 -0.01115212 -0.0034862341)
(0.0051303815 -0.01480401 -0.0049282662)
(-0.004735894 -0.013709471 0.002325335)
(0.00049076799 -0.0023875912 -0.0012053882)
(-0.00074879736 0.0027478206 0.00015493506)
(0.0036335955 -0.010982373 -0.0048344563)
(0.002690353 -0.014907574 -0.0057457456)
(-0.0046413668 -0.01500506 -0.00014155386)
(-0.0029065871 -0.012478897 -0.0013871736)
(-0.0024459687 0.0012001626 0.00084794911)
(0.0034962587 -0.014994667 -0.00023620886)
(0.00044849172 -0.015099383 6.6514756e-05)
(-0.00054375243 -0.013376995 0.00045205657)
(-0.0045099376 -0.014467173 0.00017180191)
(-0.0045555925 -0.011786826 -0.00046297937)
(0.00076325611 0.0039169995 0.0011577143)
(-0.00022625612 -0.0040035391 0.00022026763)
(0.0046384988 -0.013992401 -0.0027138387)
(0.004492929 -0.015728631 -0.0029211196)
(0.0024338196 -0.015813648 -0.0039340025)
(-0.0045050112 -0.014193706 -0.0017120136)
(-0.002599907 -0.0097667805 0.00014695493)
(0.000604951 0.0087222189 0.0011281557)
(0.001505417 0.0096251118 0.002838324)
(-0.0029128803 0.010546091 0.00086695802)
(-0.0022320677 0.0011062596 -0.00032440104)
(0.0011624031 0.0077580174 -0.0034211151)
(-0.0015376431 0.011745075 0.00073748312)
(-0.0033454713 0.010199357 0.00046580091)
(-0.0020613823 0.007445126 0.0015459744)
(0.0012146634 0.0076803645 -0.0023752954)
(0.0046930909 0.0095563117 -0.0029662176)
(0.0043613654 0.010559596 -0.0020890494)