/*--------------------------------*- C++ -*----------------------------------*\
| =========                 |                                                 |
| \\      /  F ield         | OpenFOAM: The Open Source CFD Toolbox           |
|  \\    /   O peration     | Version:  v2012                                 |
|   \\  /    A nd           | Website:  www.openfoam.com                      |
|    \\/     M anipulation  |                                                 |
\*---------------------------------------------------------------------------*/
FoamFile
{
    version     2.0;
    format      ascii;
    class       volScalarField;
    location    "320/bottomWater";
    object      p;
}
// * * * * * * * * * * * * * * * * * * * * * * * * * * * * * * * * * * * * * //

dimensions      [1 -1 -2 0 0 0 0];


internalField   nonuniform List<scalar> 
1460
(
353.44477
353.44305
353.43903
353.44104
353.44575
353.46545
353.4813
353.47292
353.45832
353.45959
353.46243
353.45586
353.46015
353.45969
353.46455
353.46117
353.46873
353.45618
353.47801
353.46343
353.47237
353.46804
353.46945
353.47106
353.46909
353.4795
353.46424
353.47184
353.45929
353.46437
274.43061
274.43201
274.43571
274.44168
274.44372
274.48843
274.51579
274.45821
274.42148
274.42262
274.42141
274.44272
274.48147
274.4905
274.47616
274.45295
274.41654
274.42083
274.44561
274.42992
274.40303
274.40358
274.44398
274.47438
274.48116
274.50246
274.48443
274.47271
274.42352
274.41812
196.32485
196.30354
196.3005
196.30744
196.29771
196.23971
196.24288
196.25195
196.28042
196.29389
196.28505
196.24774
196.25239
196.26001
196.2674
196.25034
196.28279
196.2888
196.2604
196.26143
196.28335
196.27485
196.24213
196.26458
196.26889
196.26357
196.27424
196.24754
196.25114
196.2773
117.66792
117.64305
117.65236
117.67869
117.67089
117.66092
117.65905
117.66849
117.65414
117.68115
117.67387
117.65696
117.67172
117.68583
117.68767
117.6696
117.67265
117.68904
117.67973
117.61343
117.68845
117.65882
117.63348
117.64719
117.67204
117.70919
117.68267
117.66991
117.65902
117.67642
39.255081
39.253421
39.237968
39.226618
39.22414
39.23729
39.250805
39.24988
39.258035
39.258657
39.256403
39.253261
39.238702
39.231789
39.235326
39.233739
39.242821
39.247225
39.228782
39.240222
39.260929
39.247244
39.248584
39.229352
39.220351
39.236907
39.228478
39.234953
39.246972
39.24566
353.44458
353.44437
353.4479
353.43133
353.44517
353.44646
353.44888
353.45158
353.45169
353.45364
353.45295
353.45114
353.44401
353.45618
353.45524
353.4562
353.46545
353.46502
353.47612
353.4659
353.47138
353.47305
353.46581
353.47925
353.46291
353.47674
353.47116
353.46547
353.46248
353.46887
274.42736
274.44277
274.46676
274.42572
274.42645
274.4237
274.42559
274.4039
274.40493
274.40486
274.40931
274.42101
274.43268
274.44018
274.42881
274.41302
274.42679
274.44228
274.46294
274.42766
274.40635
274.39643
274.40981
274.45803
274.44271
274.47031
274.46837
274.42006
274.3984
274.41003
196.28725
196.26811
196.22907
196.28917
196.30101
196.29867
196.29539
196.30742
196.32542
196.31576
196.29748
196.27093
196.27359
196.2543
196.29236
196.26962
196.26856
196.2556
196.26317
196.24565
196.29019
196.27679
196.25459
196.24203
196.28532
196.25288
196.23588
196.24001
196.26017
196.30203
117.66536
117.63514
117.63377
117.65793
117.65634
117.64076
117.63512
117.66123
117.67425
117.68147
117.66591
117.65742
117.65358
117.67637
117.65299
117.68213
117.62771
117.67774
117.67386
117.61367
117.67424
117.66623
117.61449
117.62515
117.63839
117.67303
117.64885
117.64238
117.65667
117.67357
39.248808
39.258311
39.248322
39.226432
39.234803
39.246725
39.277073
39.258787
39.269028
39.267123
39.259437
39.251608
39.248117
39.238679
39.257886
39.25625
39.259334
39.243662
39.230431
39.244349
39.254798
39.262325
39.260485
39.251092
39.22235
39.220388
39.238761
39.245693
39.250664
39.257334
353.45428
353.44715
353.46646
353.46205
353.45888
353.45842
353.46046
353.46271
353.46109
353.45641
353.46651
353.44862
353.4587
353.45125
353.45651
353.45208
353.45768
353.46197
353.467
353.4682
353.46403
353.46917
353.46067
353.45437
353.4538
353.45414
353.45917
353.46282
353.46812
353.4666
274.4268
274.43267
274.49921
274.4957
274.44624
274.43294
274.43544
274.41601
274.41089
274.41709
274.44825
274.42575
274.41864
274.42007
274.41458
274.41497
274.43102
274.46799
274.46245
274.428
274.39487
274.39826
274.39607
274.42452
274.43481
274.42427
274.42561
274.39655
274.39884
274.40619
196.28571
196.25715
196.24127
196.24861
196.27443
196.3161
196.2997
196.31833
196.308
196.28557
196.25159
196.30581
196.29859
196.30313
196.30341
196.27486
196.251
196.25433
196.25588
196.24929
196.27735
196.32977
196.28395
196.28567
196.28839
196.30557
196.27931
196.29298
196.32772
196.32202
117.68641
117.65354
117.66499
117.67333
117.67943
117.67038
117.63248
117.6734
117.67231
117.65218
117.65912
117.66342
117.7043
117.66247
117.69082
117.67148
117.65706
117.67948
117.66735
117.62058
117.66514
117.67335
117.64825
117.6081
117.62174
117.643
117.63554
117.66068
117.68146
117.68748
39.239761
39.23464
39.22681
39.216664
39.218024
39.232912
39.24229
39.255426
39.263743
39.266031
39.267987
39.247774
39.249929
39.257794
39.257721
39.247355
39.253235
39.238352
39.237255
39.255577
39.260303
39.280677
39.265811
39.264552
39.255149
39.229952
39.2694
39.251668
39.270471
39.26945
353.45554
353.4493
353.45382
353.46796
353.45707
353.46778
353.46583
353.46658
353.46705
353.46479
353.46841
353.46046
353.45161
353.45973
353.45861
353.45094
353.46966
353.46614
353.46912
353.47575
353.46938
353.4712
353.47271
353.46693
353.46361
353.45799
353.45995
353.4624
353.46131
353.45163
274.42317
274.42115
274.447
274.49905
274.48917
274.48063
274.4568
274.41861
274.4159
274.4426
274.48189
274.44744
274.42734
274.41773
274.41533
274.42343
274.47096
274.48538
274.46923
274.45173
274.39732
274.39495
274.3968
274.3966
274.41948
274.42064
274.41035
274.40138
274.39964
274.41475
196.30239
196.26532
196.24164
196.23469
196.26657
196.26988
196.26979
196.29482
196.29275
196.25353
196.28464
196.24279
196.26495
196.28425
196.28363
196.25312
196.23882
196.26485
196.26452
196.2388
196.26683
196.30677
196.33234
196.28327
196.28289
196.29044
196.29231
196.30634
196.30774
196.29856
117.67383
117.64228
117.64175
117.64799
117.66213
117.68222
117.65522
117.66888
117.67111
117.66991
117.67045
117.66068
117.63695
117.68603
117.68505
117.64919
117.66654
117.68055
117.66475
117.63368
117.63686
117.67283
117.6749
117.64353
117.62324
117.63429
117.64838
117.67252
117.66659
117.6328
39.259733
39.254903
39.249587
39.241816
39.220114
39.230036
39.231376
39.243578
39.248296
39.245002
39.235403
39.246129
39.264269
39.262893
39.258035
39.255191
39.244889
39.233492
39.233516
39.250554
39.260037
39.272796
39.281582
39.261836
39.267069
39.250255
39.228421
39.259221
39.254552
39.281167
353.45722
353.45684
353.45496
353.45251
353.46173
353.46539
353.45845
353.46473
353.46412
353.47154
353.46273
353.45658
353.45897
353.46143
353.45604
353.47526
353.46844
353.47052
353.47177
353.46012
353.47907
353.46846
353.4687
353.46661
353.46007
353.48399
274.41655
274.40615
274.41523
274.42531
274.45785
274.46962
274.45993
274.41224
274.41915
274.4797
274.47759
274.43087
274.42261
274.46612
274.43909
274.46858
274.41727
274.39465
274.40513
274.40372
274.47045
274.4632
274.44364
274.42158
274.41975
274.45991
196.33569
196.30306
196.26286
196.25378
196.24407
196.26794
196.29203
196.26079
196.2664
196.22852
196.25003
196.26256
196.29963
196.27951
196.28663
196.25289
196.26175
196.28526
196.28855
196.24763
196.2327
196.2512
196.26216
196.28487
196.25811
196.24352
117.68906
117.68193
117.66737
117.64371
117.66461
117.67955
117.66243
117.69629
117.65427
117.66262
117.65934
117.64765
117.68782
117.67428
117.63817
117.64679
117.62058
117.67971
117.67393
117.60253
117.6278
117.63527
117.656
117.6484
117.61721
117.63509
39.26978
39.26527
39.25286
39.251242
39.23696
39.230285
39.231403
39.24027
39.25357
39.259764
39.272982
39.26842
39.269688
39.228762
39.227803
39.261233
39.264415
39.271777
39.266709
39.25754
39.251853
39.22627
39.220042
39.23198
39.24124
39.263494
353.45224
353.45692
353.45532
353.45773
353.44921
353.4519
353.45314
353.46001
353.46865
353.46236
353.45712
353.45296
353.45566
353.45371
353.44683
353.47241
353.47931
353.47943
353.47452
353.46483
353.4869
353.45649
353.48036
353.48244
353.49117
353.49067
274.41721
274.42775
274.44883
274.42019
274.42035
274.43486
274.42056
274.43453
274.46388
274.46776
274.43893
274.40445
274.41601
274.44773
274.43393
274.47884
274.45426
274.38964
274.40882
274.41544
274.4885
274.44565
274.48287
274.47175
274.44992
274.44234
196.31708
196.30403
196.30726
196.32451
196.30082
196.29392
196.29445
196.27189
196.26967
196.26848
196.26829
196.2816
196.30955
196.31907
196.29217
196.24255
196.24606
196.28361
196.28751
196.25211
196.25616
196.30824
196.27037
196.27852
196.27694
196.29662
117.66159
117.62587
117.61747
117.66835
117.66409
117.61503
117.67715
117.62904
117.68477
117.67415
117.63886
117.67687
117.66591
117.69792
117.66059
117.65187
117.63861
117.66948
117.67063
117.6294
117.64461
117.64972
117.68487
117.68215
117.64101
117.62558
39.255736
39.266405
39.273299
39.228791
39.250326
39.259643
39.250531
39.247764
39.226434
39.225679
39.242793
39.244732
39.259118
39.243567
39.223725
39.253197
39.258344
39.258615
39.252535
39.240604
39.241126
39.227315
39.222024
39.233726
39.217912
39.250103
353.45259
353.46337
353.47364
353.45762
353.46367
353.4627
353.45818
353.46552
353.46231
353.45968
353.45647
353.45342
353.43769
353.44335
353.44803
353.44378
353.43639
353.44146
353.45749
353.47214
353.46503
353.4678
353.47081
353.45963
353.46212
353.47328
353.47638
353.48144
353.48846
353.48603
274.43872
274.46192
274.48079
274.43162
274.40869
274.41379
274.40333
274.45781
274.4858
274.49041
274.4919
274.46028
274.42377
274.43608
274.4239
274.42664
274.43638
274.43259
274.44708
274.46433
274.40394
274.3964
274.39958
274.40116
274.42358
274.46404
274.46778
274.45425
274.42166
274.3886
196.30674
196.28014
196.2385
196.27595
196.27648
196.30959
196.27979
196.24486
196.26728
196.26423
196.27322
196.24491
196.27751
196.29926
196.30674
196.30297
196.27435
196.29844
196.24916
196.24197
196.25615
196.28548
196.31108
196.25597
196.24917
196.25633
196.25999
196.26268
196.22889
196.26942
117.67274
117.66217
117.6481
117.63344
117.67712
117.68087
117.66772
117.64419
117.65537
117.6807
117.67272
117.66338
117.66859
117.68832
117.71502
117.70076
117.68178
117.67478
117.64707
117.63676
117.62225
117.67471
117.67459
117.63358
117.62719
117.66555
117.66611
117.64831
117.60876
117.6623
39.236616
39.223836
39.260368
39.263339
39.257838
39.261424
39.254511
39.261233
39.239762
39.238175
39.230647
39.228685
39.237592
39.237059
39.242285
39.233284
39.23294
39.219697
39.220355
39.248359
39.264754
39.270636
39.267768
39.24852
39.236988
39.22387
39.227873
39.226233
39.243221
39.251666
353.44623
353.45091
353.45704
353.45617
353.45636
353.45806
353.45361
353.45168
353.4591
353.45322
353.4624
353.44191
353.44682
353.45146
353.44788
353.44663
353.46668
353.46878
353.4688
353.46896
353.46885
353.47275
353.47139
353.46798
353.4643
353.47435
353.48051
353.49002
353.48847
353.49038
274.43789
274.46126
274.47077
274.41749
274.40684
274.40419
274.40944
274.42936
274.45904
274.48873
274.49997
274.43384
274.42235
274.4193
274.43001
274.42947
274.48852
274.47657
274.41152
274.40971
274.39926
274.39515
274.39566
274.40644
274.42411
274.45255
274.46111
274.43911
274.37796
274.39042
196.3016
196.27992
196.25751
196.3083
196.31123
196.31594
196.2865
196.25989
196.25549
196.26683
196.23663
196.26431
196.27946
196.30967
196.28756
196.26468
196.23723
196.2515
196.28475
196.28458
196.31014
196.34084
196.32756
196.2895
196.28611
196.26824
196.26678
196.26077
196.27575
196.33914
117.66913
117.66114
117.64485
117.64693
117.67499
117.67322
117.67783
117.63326
117.67918
117.67243
117.65451
117.65213
117.6644
117.69637
117.68366
117.6465
117.65981
117.64972
117.65585
117.6553
117.67109
117.68284
117.66175
117.63174
117.63708
117.65436
117.64082
117.61921
117.62985
117.67089
39.259359
39.244189
39.267213
39.255804
39.26781
39.261894
39.256409
39.254965
39.241767
39.240394
39.256111
39.258048
39.238092
39.237354
39.233912
39.23476
39.242902
39.243278
39.248829
39.257779
39.268617
39.282468
39.268646
39.25317
39.244243
39.230735
39.235686
39.246656
39.256648
39.276778
353.44795
353.4497
353.44719
353.44734
353.45385
353.45968
353.45857
353.45513
353.4473
353.44179
353.46059
353.44013
353.45164
353.44373
353.45483
353.46816
353.46995
353.46683
353.46617
353.4686
353.4709
353.47079
353.4684
353.47767
353.47657
353.46662
353.49011
353.48704
353.48457
353.48874
274.4233
274.44073
274.43706
274.42588
274.43817
274.45339
274.41365
274.41901
274.42758
274.43617
274.46298
274.43379
274.42046
274.45058
274.45193
274.49661
274.48004
274.41451
274.39926
274.41913
274.39038
274.38995
274.40807
274.41802
274.44278
274.44223
274.46334
274.40073
274.36683
274.39054
196.31222
196.30444
196.30214
196.29815
196.26993
196.26881
196.29909
196.29249
196.28183
196.27225
196.2326
196.28229
196.26294
196.27125
196.25045
196.23684
196.24967
196.28137
196.29318
196.28231
196.31007
196.30069
196.29185
196.23978
196.27603
196.27639
196.24038
196.2621
196.2636
196.34602
117.66827
117.61066
117.63896
117.6394
117.6199
117.62546
117.64781
117.69008
117.65836
117.64248
117.65875
117.63369
117.67942
117.64652
117.67223
117.64593
117.66211
117.65511
117.66716
117.62343
117.66696
117.66157
117.63301
117.62465
117.65656
117.64552
117.62096
117.6073
117.65266
117.68332
39.257457
39.269901
39.262156
39.240918
39.272294
39.258708
39.238807
39.245387
39.235596
39.248099
39.265563
39.268846
39.249197
39.253763
39.221429
39.243239
39.251896
39.221407
39.23118
39.257039
39.258267
39.262852
39.268829
39.255245
39.225638
39.231171
39.242966
39.256393
39.266365
39.283431
353.44038
353.45013
353.44288
353.44251
353.45421
353.45662
353.45971
353.45167
353.44536
353.44183
353.44074
353.44127
353.44549
353.44164
353.44115
353.43864
353.44051
353.4652
353.46639
353.48201
353.47363
353.46686
353.47131
353.46917
353.46544
353.46622
353.47812
353.49437
353.48042
353.48605
274.46182
274.46579
274.43304
274.4407
274.4641
274.49857
274.46736
274.44671
274.42478
274.42654
274.43334
274.42171
274.42122
274.41736
274.44357
274.46172
274.45637
274.46921
274.47499
274.49597
274.44095
274.40766
274.39906
274.40671
274.41256
274.42048
274.46345
274.466
274.38461
274.39314
196.30873
196.294
196.31551
196.31686
196.2643
196.27485
196.26443
196.27743
196.27832
196.30943
196.28311
196.31237
196.3209
196.31001
196.28247
196.29204
196.28471
196.28128
196.27831
196.23215
196.2358
196.26473
196.29976
196.3065
196.3242
196.29936
196.26033
196.23882
196.25586
196.29322
117.62304
117.62887
117.67827
117.68133
117.67267
117.67119
117.67461
117.65916
117.678
117.67795
117.65154
117.68236
117.67453
117.67739
117.64652
117.63479
117.64818
117.66355
117.66597
117.6344
117.65684
117.6558
117.66278
117.64873
117.68626
117.68136
117.65615
117.64165
117.6364
117.67918
39.26941
39.239015
39.232917
39.232996
39.236922
39.239409
39.227006
39.256919
39.241301
39.255675
39.268
39.261411
39.259051
39.249825
39.236474
39.274827
39.254306
39.231403
39.222506
39.244508
39.259637
39.259841
39.259111
39.23427
39.23693
39.231317
39.221201
39.245406
39.259168
39.265222
)
;

boundaryField
{
    minX
    {
        type            calculated;
        value           nonuniform List<scalar> 
50
(
353.44477
274.43061
196.32485
117.66792
39.255081
353.44458
274.42736
196.28725
117.66536
39.248808
353.45428
274.4268
196.28571
117.68641
39.239761
353.45554
274.42317
196.30239
117.67383
39.259733
353.45722
274.41655
196.33569
117.68906
39.26978
353.45224
274.41721
196.31708
117.66159
39.255736
353.45259
274.43872
196.30674
117.67274
39.236616
353.44623
274.43789
196.3016
117.66913
39.259359
353.44795
274.4233
196.31222
117.66827
39.257457
353.44038
274.46182
196.30873
117.62304
39.26941
)
;
    }
    maxX
    {
        type            calculated;
        value           nonuniform List<scalar> 
50
(
353.46437
274.41812
196.2773
117.67642
39.24566
353.46887
274.41003
196.30203
117.67357
39.257334
353.4666
274.40619
196.32202
117.68748
39.26945
353.45163
274.41475
196.29856
117.6328
39.281167
353.48399
274.45991
196.24352
117.63509
39.263494
353.49067
274.44234
196.29662
117.62558
39.250103
353.48603
274.3886
196.26942
117.6623
39.251666
353.49038
274.39042
196.33914
117.67089
39.276778
353.48874
274.39054
196.34602
117.68332
39.283431
353.48605
274.39314
196.29322
117.67918
39.265222
)
;
    }
    minY
    {
        type            calculated;
        value           nonuniform List<scalar> 
292
(
392.4
392.4
392.4
392.4
392.4
392.4
392.4
392.4
392.4
392.4
392.4
392.4
392.4
392.4
392.4
392.4
392.4
392.4
392.4
392.4
392.4
392.4
392.4
392.4
392.4
392.4
392.4
392.4
392.4
392.4
392.4
392.4
392.4
392.4
392.4
392.4
392.4
392.4
392.4
392.4
392.4
392.4
392.4
392.4
392.4
392.4
392.4
392.4
392.4
392.4
392.4
392.4
392.4
392.4
392.4
392.4
392.4
392.4
392.4
392.4
392.4
392.4
392.4
392.4
392.4
392.4
392.4
392.4
392.4
392.4
392.4
392.4
392.4
392.4
392.4
392.4
392.4
392.4
392.4
392.4
392.4
392.4
392.4
392.4
392.4
392.4
392.4
392.4
392.4
392.4
392.4
392.4
392.4
392.4
392.4
392.4
392.4
392.4
392.4
392.4
392.4
392.4
392.4
392.4
392.4
392.4
392.4
392.4
392.4
392.4
392.4
392.4
392.4
392.4
392.4
392.4
392.4
392.4
392.4
392.4
392.4
392.4
392.4
392.4
392.4
392.4
392.4
392.4
392.4
392.4
392.4
392.4
392.4
392.4
392.4
392.4
392.4
392.4
392.4
392.4
392.4
392.4
392.4
392.4
392.4
392.4
392.4
392.4
392.4
392.4
392.4
392.4
392.4
392.4
392.4
392.4
392.4
392.4
392.4
392.4
392.4
392.4
392.4
392.4
392.4
392.4
392.4
392.4
392.4
392.4
392.4
392.4
392.4
392.4
392.4
392.4
392.4
392.4
392.4
392.4
392.4
392.4
392.4
392.4
392.4
392.4
392.4
392.4
392.4
392.4
392.4
392.4
392.4
392.4
392.4
392.4
392.4
392.4
392.4
392.4
392.4
392.4
392.4
392.4
392.4
392.4
392.4
392.4
392.4
392.4
392.4
392.4
392.4
392.4
392.4
392.4
392.4
392.4
392.4
392.4
392.4
392.4
392.4
392.4
392.4
392.4
392.4
392.4
392.4
392.4
392.4
392.4
392.4
392.4
392.4
392.4
392.4
392.4
392.4
392.4
392.4
392.4
392.4
392.4
392.4
392.4
392.4
392.4
392.4
392.4
392.4
392.4
392.4
392.4
392.4
392.4
392.4
392.4
392.4
392.4
392.4
392.4
392.4
392.4
392.4
392.4
392.4
392.4
392.4
392.4
392.4
392.4
392.4
392.4
392.4
392.4
392.4
392.4
392.4
392.4
392.4
392.4
392.4
392.4
392.4
392.4
392.4
392.4
392.4
392.4
392.4
392.4
)
;
    }
    minZ
    {
        type            calculated;
        value           nonuniform List<scalar> 
150
(
353.44477
274.43061
196.32485
117.66792
39.255081
353.44305
274.43201
196.30354
117.64305
39.253421
353.43903
274.43571
196.3005
117.65236
39.237968
353.44104
274.44168
196.30744
117.67869
39.226618
353.44575
274.44372
196.29771
117.67089
39.22414
353.46545
274.48843
196.23971
117.66092
39.23729
353.4813
274.51579
196.24288
117.65905
39.250805
353.47292
274.45821
196.25195
117.66849
39.24988
353.45832
274.42148
196.28042
117.65414
39.258035
353.45959
274.42262
196.29389
117.68115
39.258657
353.46243
274.42141
196.28505
117.67387
39.256403
353.45586
274.44272
196.24774
117.65696
39.253261
353.46015
274.48147
196.25239
117.67172
39.238702
353.45969
274.4905
196.26001
117.68583
39.231789
353.46455
274.47616
196.2674
117.68767
39.235326
353.46117
274.45295
196.25034
117.6696
39.233739
353.46873
274.41654
196.28279
117.67265
39.242821
353.45618
274.42083
196.2888
117.68904
39.247225
353.47801
274.44561
196.2604
117.67973
39.228782
353.46343
274.42992
196.26143
117.61343
39.240222
353.47237
274.40303
196.28335
117.68845
39.260929
353.46804
274.40358
196.27485
117.65882
39.247244
353.46945
274.44398
196.24213
117.63348
39.248584
353.47106
274.47438
196.26458
117.64719
39.229352
353.46909
274.48116
196.26889
117.67204
39.220351
353.4795
274.50246
196.26357
117.70919
39.236907
353.46424
274.48443
196.27424
117.68267
39.228478
353.47184
274.47271
196.24754
117.66991
39.234953
353.45929
274.42352
196.25114
117.65902
39.246972
353.46437
274.41812
196.2773
117.67642
39.24566
)
;
    }
    maxZ
    {
        type            calculated;
        value           nonuniform List<scalar> 
150
(
353.44038
274.46182
196.30873
117.62304
39.26941
353.45013
274.46579
196.294
117.62887
39.239015
353.44288
274.43304
196.31551
117.67827
39.232917
353.44251
274.4407
196.31686
117.68133
39.232996
353.45421
274.4641
196.2643
117.67267
39.236922
353.45662
274.49857
196.27485
117.67119
39.239409
353.45971
274.46736
196.26443
117.67461
39.227006
353.45167
274.44671
196.27743
117.65916
39.256919
353.44536
274.42478
196.27832
117.678
39.241301
353.44183
274.42654
196.30943
117.67795
39.255675
353.44074
274.43334
196.28311
117.65154
39.268
353.44127
274.42171
196.31237
117.68236
39.261411
353.44549
274.42122
196.3209
117.67453
39.259051
353.44164
274.41736
196.31001
117.67739
39.249825
353.44115
274.44357
196.28247
117.64652
39.236474
353.43864
274.46172
196.29204
117.63479
39.274827
353.44051
274.45637
196.28471
117.64818
39.254306
353.4652
274.46921
196.28128
117.66355
39.231403
353.46639
274.47499
196.27831
117.66597
39.222506
353.48201
274.49597
196.23215
117.6344
39.244508
353.47363
274.44095
196.2358
117.65684
39.259637
353.46686
274.40766
196.26473
117.6558
39.259841
353.47131
274.39906
196.29976
117.66278
39.259111
353.46917
274.40671
196.3065
117.64873
39.23427
353.46544
274.41256
196.3242
117.68626
39.23693
353.46622
274.42048
196.29936
117.68136
39.231317
353.47812
274.46345
196.26033
117.65615
39.221201
353.49437
274.466
196.23882
117.64165
39.245406
353.48042
274.38461
196.25586
117.6364
39.259168
353.48605
274.39314
196.29322
117.67918
39.265222
)
;
    }
    bottomWater_to_rightSolid
    {
        type            calculated;
        value           nonuniform List<scalar> 
130
(
0.0072245257
-0.011217648
0.00022214151
0.020929103
0.007244251
0.0085839071
-0.010647929
-0.019649335
-0.0030932909
-0.011521718
-0.0050474191
0.0069723479
0.005659678
0.0036618013
-0.0095693469
0.0043486163
0.014797538
0.022325008
0.020484865
0.011091966
-0.017650214
-0.019612373
-0.0012385543
0.0056927829
0.010664008
0.017333589
-0.0016483402
-0.0027453903
0.015577167
0.020303329
0.040677317
0.025810737
0.024551646
0.015148535
-0.010047694
0.02940039
0.011668323
0.030470972
0.029450066
-0.0065076046
-0.0064838978
0.010554342
0.020037233
0.032795789
0.041582429
0.021836089
0.027069292
0.010254952
-0.011578836
0.019221458
0.014552054
0.041167417
-0.011237793
-0.012196505
0.021232692
0.024415306
0.031776634
0.026709496
0.017540053
0.011852846
-0.013729656
-0.019957887
-0.0080198669
0.0012399043
0.023494328
0.003567421
-0.016274753
0.013197073
0.018344228
0.01861469
0.01253522
0.00060385347
0.0011263416
-0.01268545
-0.017975857
-0.0062740688
-0.022087849
0.010102762
-0.020303181
-0.019644655
0.0083588677
0.024754294
0.030635883
0.02776828
0.008520497
-0.0030119517
-0.016130425
-0.012127145
-0.01376714
0.0032209371
0.011665889
0.003278314
0.0088289455
0.017778559
0.028617309
0.042468212
0.028646247
0.013170325
0.0042430998
-0.009264709
-0.004314392
0.0066560066
0.016647874
0.036777971
-0.018593349
-0.0088199542
0.017038667
0.018267323
0.022851762
0.028828746
0.015244766
-0.01436161
-0.0088293589
0.0029660533
0.016392922
0.026365382
0.043431147
-0.0085968699
-0.017494298
0.0045080107
0.019636785
0.019840551
0.019110582
-0.0057295019
-0.0030696031
-0.0086828597
-0.018798662
0.0054064244
0.01916822
0.02522249
)
;
    }
    bottomWater_to_leftSolid
    {
        type            calculated;
        value           nonuniform List<scalar> 
130
(
0.015081439
0.013421028
-0.0020323774
-0.013381506
-0.015859612
-0.0027103409
0.010805205
0.0098803715
0.01803548
0.018657004
0.01640259
0.01326075
-0.0012980192
0.0088083015
0.018311458
0.0083218487
-0.013567815
-0.0051970508
0.0067249948
0.037073058
0.018787088
0.02902793
0.027122647
0.019436612
0.011608185
0.0081166041
-0.00023856341
-0.0053601882
-0.013189954
-0.023335766
-0.021976061
-0.0070882543
0.002290106
0.015426344
0.023743045
0.026031464
0.027986898
0.0077741877
0.0099292348
0.019732729
0.014903123
0.0095872097
0.0018156761
-0.019885627
-0.0099636198
-0.0086244654
0.0035780949
0.0082959861
0.0050022929
-0.0045974014
0.0061287567
0.024269143
0.029779573
0.025270343
0.01285995
0.011241791
-0.0030397008
-0.0097150039
-0.008596853
0.00027033037
0.013570414
0.019763965
0.032981736
0.028419793
0.029688158
0.015736358
0.026405216
0.033298558
-0.011208581
0.010326272
0.019642795
0.010530773
0.0077635101
-0.013566186
-0.014320862
0.0027927405
0.004731724
0.01911824
-0.0033839643
-0.016163829
0.020367782
0.023338869
0.017837736
0.021424466
0.014511034
0.021232791
-0.00023827351
-0.0018246903
-0.0093533729
-0.011314741
-0.0024081588
0.019358903
0.0041890361
0.027212531
0.015803979
0.027809762
0.021893817
0.016408791
0.014964617
0.0017672464
0.00039398442
0.016110837
0.018047812
-0.0019078671
0.017457393
0.029901113
0.022155894
0.00091778841
0.032293787
0.018707799
-0.00119267
0.0053866873
-0.0044042525
0.0080987536
0.025563117
0.028846328
0.0091968194
0.029410377
-0.00098474749
-0.0070829335
-0.0070041736
-0.0030775468
-0.00059132685
-0.012994478
0.016918609
0.0013014285
0.015675381
0.027999581
0.021411294
0.019051358
)
;
    }
    bottomWater_to_heater
    {
        type            calculated;
        value           nonuniform List<scalar> 
92
(
-0.008211358
-0.0046737795
-0.0062608889
0.0028207548
-0.0013210711
0.017886184
0.016250157
0.019333829
0.017794314
0.017721131
0.007354998
0.013234864
353.45973
353.45861
353.45094
353.46966
274.41773
274.41533
274.42343
274.47096
196.28425
196.28363
196.25312
196.23882
117.68603
117.68505
117.64919
117.66654
0.022892569
39.262893
0.018035294
39.258035
0.015191364
39.255191
0.0048885366
39.244889
353.45897
353.46143
274.42261
274.46612
196.29963
196.27951
117.68782
117.67428
39.269688
39.228762
353.45566
353.44335
353.44803
353.44378
353.45371
353.43639
274.41601
274.43608
274.4239
274.42664
274.44773
274.43638
196.30955
196.29926
196.30674
196.30297
196.31907
196.27435
117.66591
117.68832
117.71502
117.70076
117.69792
117.68178
39.259118
39.237059
39.242285
39.233284
39.243567
39.23294
-0.0029406815
0.0022853429
-0.0067155337
-0.007060241
-0.0026458869
-0.0060879299
-0.0052398984
0.0029017396
0.013762716
-0.018571013
0.0032385193
0.011896219
0.0098245161
-0.0035259601
0.034826947
0.014305946
)
;
    }
}


// ************************************************************************* //
