/*--------------------------------*- C++ -*----------------------------------*\
| =========                 |                                                 |
| \\      /  F ield         | OpenFOAM: The Open Source CFD Toolbox           |
|  \\    /   O peration     | Version:  v2012                                 |
|   \\  /    A nd           | Website:  www.openfoam.com                      |
|    \\/     M anipulation  |                                                 |
\*---------------------------------------------------------------------------*/
FoamFile
{
    version     2.0;
    format      ascii;
    class       volScalarField;
    location    "320/bottomWater";
    object      p_rgh;
}
// * * * * * * * * * * * * * * * * * * * * * * * * * * * * * * * * * * * * * //

dimensions      [1 -1 -2 0 0 0 0];


internalField   nonuniform List<scalar> 
1460
(
0.28477447
0.28305393
0.2790338
0.28104332
0.28575102
0.30544915
0.32130216
0.31292348
0.29831676
0.29958902
0.30242749
0.29586164
0.30015129
0.29968691
0.30455215
0.30117167
0.30872956
0.29617601
0.31801109
0.30343022
0.31236966
0.3080374
0.30944874
0.31105844
0.30909035
0.31950403
0.3042359
0.31184145
0.29929197
0.30437337
-0.24939362
-0.24799058
-0.24428939
-0.23831515
-0.23627539
-0.19157397
-0.16420603
-0.22178724
-0.25852351
-0.25738165
-0.25858507
-0.23727971
-0.19853278
-0.18950272
-0.20384019
-0.22704735
-0.26346159
-0.25916776
-0.2343935
-0.25007666
-0.27697322
-0.27641741
-0.2360209
-0.20561547
-0.19884168
-0.17753512
-0.19556783
-0.20728506
-0.25647924
-0.26187882
0.12485259
0.10353771
0.10050104
0.10744457
0.097712752
0.039712616
0.04288148
0.051949957
0.080416134
0.093888877
0.085051165
0.047742466
0.052389105
0.060011361
0.067404146
0.050337946
0.08278655
0.088798071
0.060403682
0.0614261
0.083350673
0.074850302
0.04213147
0.064584327
0.06889289
0.063569965
0.074244036
0.04754192
0.051143584
0.077304377
-0.052076632
-0.076948748
-0.067636414
-0.041308668
-0.049106662
-0.059082616
-0.060950845
-0.051506531
-0.065858695
-0.038849961
-0.046128285
-0.063038838
-0.048279035
-0.034165795
-0.032329662
-0.050399217
-0.047346514
-0.030955365
-0.040267562
-0.10657302
-0.031545927
-0.061179029
-0.086515031
-0.072813193
-0.047961454
-0.01081448
-0.037334961
-0.050085084
-0.060975726
-0.043580158
0.015081439
0.013421028
-0.0020323774
-0.013381506
-0.015859612
-0.0027103409
0.010805205
0.0098803715
0.01803548
0.018657004
0.01640259
0.01326075
-0.0012980192
-0.008211358
-0.0046737795
-0.0062608889
0.0028207548
0.0072245257
-0.011217648
0.00022214151
0.020929103
0.007244251
0.0085839071
-0.010647929
-0.019649335
-0.0030932909
-0.011521718
-0.0050474191
0.0069723479
0.005659678
0.28458491
0.28436973
0.28790309
0.27132806
0.28516571
0.28646271
0.28888024
0.29158272
0.29169108
0.293638
0.29295476
0.29114364
0.28400524
0.29618121
0.29524131
0.29619761
0.30545291
0.30501875
0.31611919
0.30589536
0.31137841
0.31305214
0.30581224
0.31925009
0.30291144
0.31674135
0.31116398
0.30546883
0.30247721
0.30886671
-0.25264127
-0.23723292
-0.21323901
-0.25428033
-0.25354546
-0.25630005
-0.25441165
-0.27609826
-0.27506516
-0.27513673
-0.27069188
-0.25898855
-0.24732473
-0.23982482
-0.25119475
-0.26698093
-0.25321365
-0.23771916
-0.21705885
-0.25234286
-0.27365098
-0.28356721
-0.27019096
-0.22197417
-0.23729013
-0.20969437
-0.21162937
-0.25993902
-0.28160311
-0.26997448
0.087253538
0.068109174
0.029072335
0.089172619
0.10101445
0.098673564
0.095392397
0.10741866
0.12542417
0.11576304
0.097481152
0.07093012
0.073587967
0.054299291
0.092357255
0.069619374
0.068562116
0.055597795
0.06317328
0.045654923
0.090192667
0.076791067
0.054589926
0.042034724
0.085320165
0.052877153
0.035881382
0.04000501
0.060166225
0.10203057
-0.054642344
-0.084857207
-0.086227119
-0.062067662
-0.063656002
-0.079241439
-0.084882424
-0.058770555
-0.045746265
-0.038527612
-0.054094225
-0.062577471
-0.066415501
-0.043625669
-0.067013673
-0.037868445
-0.092287691
-0.042256856
-0.046139215
-0.1063251
-0.045756908
-0.053773486
-0.10550532
-0.09484636
-0.081612375
-0.046965894
-0.07115441
-0.077615436
-0.063326627
-0.046427249
0.0088083015
0.018311458
0.0083218487
-0.013567815
-0.0051970508
0.0067249948
0.037073058
0.018787088
0.02902793
0.027122647
0.019436612
0.011608185
0.0081166041
-0.0013210711
0.017886184
0.016250157
0.019333829
0.0036618013
-0.0095693469
0.0043486163
0.014797538
0.022325008
0.020484865
0.011091966
-0.017650214
-0.019612373
-0.0012385543
0.0056927829
0.010664008
0.017333589
0.29428043
0.28715364
0.30645879
0.30204586
0.29887799
0.29841585
0.30046107
0.30270823
0.30108637
0.29640567
0.30651429
0.28862244
0.29869609
0.29125144
0.29650704
0.29207876
0.29768134
0.30197239
0.30699773
0.30820167
0.30403475
0.30916646
0.30067114
0.294368
0.29380488
0.29413596
0.29916602
0.30281918
0.30812486
0.30660075
-0.25320279
-0.24733433
-0.18078672
-0.18429991
-0.2337622
-0.24705982
-0.24456191
-0.26399078
-0.26910506
-0.26291463
-0.2317512
-0.25424883
-0.26136033
-0.25993015
-0.26541567
-0.26502719
-0.24898218
-0.21200919
-0.21755467
-0.25200245
-0.28513431
-0.28174496
-0.2839348
-0.25548239
-0.24518529
-0.25573246
-0.25439182
-0.28345345
-0.28115768
-0.2738121
0.085714656
0.057145423
0.041269152
0.048607518
0.074433126
0.11610135
0.099699707
0.11833356
0.10800367
0.085565274
0.051586417
0.10580829
0.098589122
0.10313135
0.10340968
0.074856013
0.051003972
0.05433166
0.055883663
0.049290345
0.077345012
0.12977223
0.083945164
0.085667357
0.088387781
0.10557306
0.07931182
0.092975933
0.12771716
0.12202152
-0.0335861
-0.066464091
-0.05501369
-0.046669012
-0.04056599
-0.049624812
-0.087518525
-0.046597596
-0.047689313
-0.067824272
-0.060881182
-0.056584553
-0.015698536
-0.057525081
-0.029176544
-0.048522513
-0.062937654
-0.040516683
-0.052653051
-0.099421809
-0.054857186
-0.046648395
-0.071753378
-0.11189678
-0.098258094
-0.077001769
-0.084455036
-0.059323012
-0.038542804
-0.03252378
-0.00023856341
-0.0053601882
-0.013189954
-0.023335766
-0.021976061
-0.0070882543
0.002290106
0.015426344
0.023743045
0.026031464
0.027986898
0.0077741877
0.0099292348
0.017794314
0.017721131
0.007354998
0.013234864
-0.0016483402
-0.0027453903
0.015577167
0.020303329
0.040677317
0.025810737
0.024551646
0.015148535
-0.010047694
0.02940039
0.011668323
0.030470972
0.029450066
0.29553623
0.28930174
0.29382449
0.30795864
0.297075
0.30778321
0.30582819
0.30658077
0.30705155
0.30479464
0.30840666
0.30045544
0.29161171
0.29972523
0.29861193
0.29093863
0.30965807
0.30613884
0.30911692
0.31575274
0.30937983
0.31120063
0.3127126
0.30692745
0.30361095
0.2979866
0.29995484
0.30239648
0.30130628
0.29163381
-0.25682926
-0.25884878
-0.23299613
-0.18095475
-0.19082872
-0.19936903
-0.22319904
-0.26139166
-0.26410178
-0.23739557
-0.19810921
-0.23255955
-0.25265878
-0.26226843
-0.26466878
-0.2565664
-0.2090387
-0.19461946
-0.21076898
-0.22826714
-0.2826829
-0.28505337
-0.28319817
-0.28339529
-0.26052495
-0.25935938
-0.2696492
-0.27862442
-0.28036094
-0.26524956
0.10239301
0.065323138
0.041643982
0.034690449
0.066571742
0.069882492
0.069790713
0.094823779
0.092751929
0.053533422
0.084644234
0.042789809
0.064952389
0.084254143
0.083629619
0.053118361
0.038816994
0.064853552
0.064518022
0.038801494
0.066828306
0.10676718
0.13234222
0.083272351
0.082890853
0.09043529
0.092313167
0.10634071
0.10773804
0.098562765
-0.046167426
-0.077719877
-0.078246751
-0.072005807
-0.057868238
-0.037778833
-0.064775842
-0.051115488
-0.048892652
-0.050088595
-0.049553751
-0.059317411
-0.08305034
-0.03397023
-0.034948688
-0.070809496
-0.053463951
-0.039445308
-0.055253364
-0.086316985
-0.083137158
-0.047173891
-0.045096029
-0.076470643
-0.096758777
-0.085705494
-0.071616765
-0.04747731
-0.0534149
-0.087196457
0.019732729
0.014903123
0.0095872097
0.0018156761
-0.019885627
-0.0099636198
-0.0086244654
0.0035780949
0.0082959861
0.0050022929
-0.0045974014
0.0061287567
0.024269143
0.022892569
0.018035294
0.015191364
0.0048885366
-0.0065076046
-0.0064838978
0.010554342
0.020037233
0.032795789
0.041582429
0.021836089
0.027069292
0.010254952
-0.011578836
0.019221458
0.014552054
0.041167417
0.29722049
0.29683734
0.29496101
0.29250797
0.30173405
0.30538842
0.29844811
0.30472549
0.30412174
0.31154486
0.30272608
0.29658436
0.29897121
0.30143336
0.29603907
0.31526373
0.30843912
0.31051908
0.31177419
0.30012423
0.31907236
0.3084628
0.30869669
0.30660716
0.30006865
0.32399385
-0.26345327
-0.27384632
-0.26477025
-0.25469001
-0.2221486
-0.21037538
-0.22007478
-0.26775623
-0.2608497
-0.20030277
-0.20240854
-0.24912638
-0.25739094
-0.2138775
-0.24090997
-0.21141826
-0.26272813
-0.2853492
-0.27486887
-0.2762844
-0.20955447
-0.21679667
-0.23636377
-0.25842279
-0.26025349
-0.2200911
0.13569292
0.10306408
0.06286176
0.053784777
0.044074733
0.067944182
0.092028685
0.06078948
0.066395134
0.028523043
0.050034006
0.062557702
0.099634852
0.079507922
0.086625932
0.052889259
0.061749895
0.085257153
0.088549811
0.047631737
0.032697508
0.051201668
0.062163933
0.084873908
0.058108769
0.043521523
-0.030944039
-0.038069036
-0.052632075
-0.07629067
-0.055385387
-0.040450904
-0.057570239
-0.023708736
-0.065730477
-0.057375379
-0.060658896
-0.072350958
-0.032179476
-0.045723571
-0.081828836
-0.073208411
-0.099418684
-0.040287547
-0.046071538
-0.11746953
-0.092201791
-0.084732093
-0.064000438
-0.071602936
-0.10278941
-0.084907844
0.029779573
0.025270343
0.01285995
0.011241791
-0.0030397008
-0.0097150039
-0.008596853
0.00027033037
0.013570414
0.019763965
0.032981736
0.028419793
0.029688158
-0.011237793
-0.012196505
0.021232692
0.024415306
0.031776634
0.026709496
0.017540053
0.011852846
-0.013729656
-0.019957887
-0.0080198669
0.0012399043
0.023494328
0.29223626
0.29691577
0.29532441
0.2977347
0.2892071
0.29190357
0.2931431
0.30001447
0.30865132
0.30235846
0.29711975
0.29295639
0.29566001
0.29371334
0.28682613
0.31241216
0.31930836
0.31942707
0.31451843
0.30482647
0.32690284
0.29648702
0.32036201
0.32243989
0.33117397
0.3306745
-0.26279038
-0.25225219
-0.23116632
-0.25981192
-0.25965279
-0.24513796
-0.25943804
-0.24546689
-0.21611686
-0.2122359
-0.24107272
-0.27555127
-0.26399082
-0.23227039
-0.2460717
-0.20116195
-0.22574425
-0.29035856
-0.27117955
-0.2645648
-0.19150137
-0.2343496
-0.19712859
-0.20824932
-0.23007695
-0.23766419
0.11707733
0.10402942
0.10725515
0.12451385
0.10082358
0.093920712
0.094450798
0.071891699
0.069668418
0.068482337
0.06828544
0.081596231
0.10955257
0.11906878
0.092172196
0.042545636
0.04605674
0.083607425
0.087510077
0.052109937
0.056159502
0.10823772
0.070371754
0.078517809
0.076938075
0.096619525
-0.058413396
-0.094125811
-0.10252721
-0.051647081
-0.055908455
-0.10496808
-0.042853548
-0.090958343
-0.035232993
-0.045847326
-0.081137763
-0.043128265
-0.054094262
-0.022083211
-0.059413455
-0.06812797
-0.081387897
-0.05052329
-0.049372147
-0.090600838
-0.075392627
-0.070279259
-0.035134486
-0.037850042
-0.078993499
-0.094424757
0.015736358
0.026405216
0.033298558
-0.011208581
0.010326272
0.019642795
0.010530773
0.0077635101
-0.013566186
-0.014320862
0.0027927405
0.004731724
0.01911824
0.003567421
-0.016274753
0.013197073
0.018344228
0.01861469
0.01253522
0.00060385347
0.0011263416
-0.01268545
-0.017975857
-0.0062740688
-0.022087849
0.010102762
0.29258807
0.30337329
0.31364443
0.29762285
0.30367023
0.30270484
0.29818062
0.30552208
0.30230802
0.29967958
0.29646569
0.29341522
0.277692
0.28335106
0.288035
0.28377946
0.27638731
0.28145897
0.29748944
0.31213756
0.30502731
0.30780154
0.31081105
0.29963119
0.3021188
0.31327778
0.31637708
0.32143609
0.32845668
0.32602525
-0.24127738
-0.21807585
-0.19921006
-0.24837817
-0.27131221
-0.26620891
-0.27666659
-0.22218783
-0.19420053
-0.18958912
-0.18810004
-0.21972237
-0.25623237
-0.24392104
-0.25609677
-0.25336435
-0.24362441
-0.24740705
-0.23291679
-0.21567444
-0.27606334
-0.28360283
-0.28041514
-0.27883507
-0.2564198
-0.21596249
-0.21222075
-0.2257546
-0.25833562
-0.2914008
0.10674157
0.080140199
0.038504364
0.075948889
0.076477786
0.10959423
0.079794351
0.044856676
0.067281395
0.064229635
0.073219318
0.044907585
0.077509125
0.099256376
0.10673527
0.10296887
0.074354952
0.098440435
0.049162276
0.041974011
0.056150664
0.085480546
0.11108283
0.055971503
0.049171703
0.056333672
0.059994914
0.06267688
0.028893507
0.069417158
-0.047259776
-0.057827769
-0.071904281
-0.086557191
-0.042884094
-0.039132319
-0.052284987
-0.075811753
-0.064628565
-0.039301025
-0.047275223
-0.056624987
-0.051410399
-0.031683559
-0.0049795035
-0.019244328
-0.038222547
-0.045221332
-0.072925803
-0.083243993
-0.097751869
-0.045293144
-0.045405584
-0.086424474
-0.092810855
-0.054445438
-0.053886445
-0.071689045
-0.11123679
-0.057704718
-0.0033839643
-0.016163829
0.020367782
0.023338869
0.017837736
0.021424466
0.014511034
0.021232791
-0.00023827351
-0.0018246903
-0.0093533729
-0.011314741
-0.0024081588
-0.0029406815
0.0022853429
-0.0067155337
-0.007060241
-0.020303181
-0.019644655
0.0083588677
0.024754294
0.030635883
0.02776828
0.008520497
-0.0030119517
-0.016130425
-0.012127145
-0.01376714
0.0032209371
0.011665889
0.28623087
0.29090937
0.29704071
0.29616944
0.29636189
0.29806157
0.29360516
0.29167766
0.29909912
0.2932215
0.30240249
0.28190957
0.2868189
0.29145793
0.287882
0.28663003
0.30667866
0.30877917
0.30880283
0.30895847
0.30884661
0.31274841
0.31139048
0.30798003
0.30429831
0.31435483
0.32050521
0.33001863
0.32846725
0.33038303
-0.24211013
-0.21874248
-0.20922899
-0.26250752
-0.27316118
-0.27581159
-0.27056195
-0.25063935
-0.22095982
-0.19126641
-0.18003396
-0.24615929
-0.25764824
-0.26069645
-0.24999135
-0.25052501
-0.19148479
-0.20343434
-0.26848342
-0.27028538
-0.28074224
-0.28485326
-0.28434236
-0.27355689
-0.25588627
-0.22744548
-0.21888818
-0.2408894
-0.30204358
-0.28957573
0.10159777
0.079924762
0.057508425
0.1082978
0.11123415
0.11593839
0.086496126
0.059889623
0.055489035
0.066830385
0.036630646
0.064305521
0.079464108
0.109668
0.087557191
0.06467621
0.037232512
0.051497321
0.08475003
0.084584147
0.11014303
0.14084249
0.12756438
0.089502566
0.086109527
0.06824056
0.066778771
0.060769479
0.075753467
0.13914065
-0.050873693
-0.058863383
-0.07514569
-0.073074939
-0.045010993
-0.046780736
-0.042174908
-0.086738655
-0.040823056
-0.04757234
-0.065492709
-0.067873428
-0.055604326
-0.02363204
-0.03634128
-0.073496537
-0.060186135
-0.070281006
-0.064152789
-0.064702972
-0.048914912
-0.037159188
-0.058252379
-0.08826219
-0.082920948
-0.06564232
-0.079175013
-0.1007891
-0.090146624
-0.04911112
0.019358903
0.0041890361
0.027212531
0.015803979
0.027809762
0.021893817
0.016408791
0.014964617
0.0017672464
0.00039398442
0.016110837
0.018047812
-0.0019078671
-0.0026458869
-0.0060879299
-0.0052398984
0.0029017396
0.003278314
0.0088289455
0.017778559
0.028617309
0.042468212
0.028646247
0.013170325
0.0042430998
-0.009264709
-0.004314392
0.0066560066
0.016647874
0.036777971
0.28795205
0.28969798
0.28718554
0.28733877
0.29385483
0.29968239
0.29856917
0.29512525
0.28729552
0.28178596
0.3005928
0.28013211
0.29163769
0.28372696
0.29482814
0.30815507
0.3099498
0.30682858
0.30617167
0.30860204
0.31090129
0.3107882
0.30839934
0.31766861
0.31657409
0.30661515
0.33011416
0.32703751
0.32456973
0.32873582
-0.25669971
-0.23927157
-0.24293934
-0.25411512
-0.24182506
-0.22661377
-0.26635163
-0.26099343
-0.25241895
-0.24382743
-0.21701554
-0.24621089
-0.25953922
-0.22942129
-0.22806515
-0.1833943
-0.19996009
-0.26549408
-0.28074261
-0.26087219
-0.28962185
-0.29005454
-0.27192619
-0.26197532
-0.23721928
-0.23776709
-0.21665906
-0.27926727
-0.31316602
-0.28945708
0.11222331
0.10443975
0.1021417
0.098145232
0.069934768
0.068812155
0.09908603
0.092486192
0.081834728
0.072250371
0.032603847
0.082289541
0.0629411
0.071251099
0.050450279
0.036841079
0.049665889
0.081366791
0.093182071
0.08231311
0.1100669
0.10068826
0.091850237
0.039780631
0.076031902
0.076394924
0.040375593
0.062102571
0.063597932
0.14601855
-0.051730154
-0.10933789
-0.081039472
-0.080601983
-0.10009839
-0.094542808
-0.072187351
-0.029921256
-0.061636719
-0.077519432
-0.061246816
-0.086307565
-0.040581446
-0.073478469
-0.047774637
-0.07407179
-0.057886983
-0.064890705
-0.052844252
-0.096565043
-0.053038476
-0.058433181
-0.086989111
-0.0953507
-0.063444356
-0.074484927
-0.099037083
-0.11270177
-0.067338316
-0.036684138
0.017457393
0.029901113
0.022155894
0.00091778841
0.032293787
0.018707799
-0.00119267
0.0053866873
-0.0044042525
0.0080987536
0.025563117
0.028846328
0.0091968194
0.013762716
-0.018571013
0.0032385193
0.011896219
-0.018593349
-0.0088199542
0.017038667
0.018267323
0.022851762
0.028828746
0.015244766
-0.01436161
-0.0088293589
0.0029660533
0.016392922
0.026365382
0.043431147
0.28037579
0.2901329
0.28288197
0.2825091
0.29421289
0.29661861
0.2997076
0.29167051
0.28535842
0.28183078
0.28073663
0.28127122
0.28548984
0.28164191
0.28115288
0.27864442
0.28051355
0.30520274
0.30638908
0.3220089
0.31363035
0.30686281
0.31130977
0.30916543
0.30543914
0.30621568
0.31812403
0.33436764
0.32042116
0.32604651
-0.21817619
-0.21421347
-0.24695546
-0.23930029
-0.21589894
-0.1814299
-0.21263933
-0.23329098
-0.25522267
-0.25346051
-0.24666111
-0.25829038
-0.25878021
-0.26264487
-0.23642744
-0.21827798
-0.22362988
-0.21079171
-0.20500744
-0.18403184
-0.23904553
-0.27233518
-0.28093708
-0.27329222
-0.26744266
-0.25952492
-0.21655073
-0.21400018
-0.29538516
-0.28686347
0.10872843
0.094002653
0.11550697
0.1168599
0.064300474
0.074847058
0.064427566
0.077429776
0.078320729
0.10942768
0.083108651
0.11236711
0.12090477
0.1100104
0.082468502
0.092039156
0.084714155
0.081280731
0.078313499
0.032146545
0.035796415
0.064730438
0.099759217
0.10649762
0.12419903
0.099362895
0.060330311
0.03882123
0.055861877
0.093220267
-0.096956776
-0.091134503
-0.041734364
-0.03866892
-0.047326302
-0.048810426
-0.045394937
-0.060839026
-0.041998658
-0.042047805
-0.068463414
-0.037643596
-0.045469015
-0.042612449
-0.073481003
-0.085211166
-0.071819643
-0.056454051
-0.054032386
-0.085604997
-0.063164169
-0.064201132
-0.057221957
-0.071270905
-0.033743187
-0.038644137
-0.06384677
-0.078346579
-0.083604513
-0.040817011
0.029410377
-0.00098474749
-0.0070829335
-0.0070041736
-0.0030775468
-0.00059132685
-0.012994478
0.016918609
0.0013014285
0.015675381
0.027999581
0.021411294
0.019051358
0.0098245161
-0.0035259601
0.034826947
0.014305946
-0.0085968699
-0.017494298
0.0045080107
0.019636785
0.019840551
0.019110582
-0.0057295019
-0.0030696031
-0.0086828597
-0.018798662
0.0054064244
0.01916822
0.02522249
)
;

boundaryField
{
    minX
    {
        type            fixedFluxPressure;
        gradient        uniform 0;
        value           nonuniform List<scalar> 
50
(
0.28477447
-0.24939362
0.12485259
-0.052076632
0.015081439
0.28458491
-0.25264127
0.087253538
-0.054642344
0.0088083015
0.29428043
-0.25320279
0.085714656
-0.0335861
-0.00023856341
0.29553623
-0.25682926
0.10239301
-0.046167426
0.019732729
0.29722049
-0.26345327
0.13569292
-0.030944039
0.029779573
0.29223626
-0.26279038
0.11707733
-0.058413396
0.015736358
0.29258807
-0.24127738
0.10674157
-0.047259776
-0.0033839643
0.28623087
-0.24211013
0.10159777
-0.050873693
0.019358903
0.28795205
-0.25669971
0.11222331
-0.051730154
0.017457393
0.28037579
-0.21817619
0.10872843
-0.096956776
0.029410377
)
;
    }
    maxX
    {
        type            fixedFluxPressure;
        gradient        uniform 0;
        value           nonuniform List<scalar> 
50
(
0.30437337
-0.26187882
0.077304377
-0.043580158
0.005659678
0.30886671
-0.26997448
0.10203057
-0.046427249
0.017333589
0.30660075
-0.2738121
0.12202152
-0.03252378
0.029450066
0.29163381
-0.26524956
0.098562765
-0.087196457
0.041167417
0.32399385
-0.2200911
0.043521523
-0.084907844
0.023494328
0.3306745
-0.23766419
0.096619525
-0.094424757
0.010102762
0.32602525
-0.2914008
0.069417158
-0.057704718
0.011665889
0.33038303
-0.28957573
0.13914065
-0.04911112
0.036777971
0.32873582
-0.28945708
0.14601855
-0.036684138
0.043431147
0.32604651
-0.28686347
0.093220267
-0.040817011
0.02522249
)
;
    }
    minY
    {
        type            fixedValue;
        value           uniform 0;
    }
    minZ
    {
        type            fixedFluxPressure;
        gradient        uniform 0;
        value           nonuniform List<scalar> 
150
(
0.28477447
-0.24939362
0.12485259
-0.052076632
0.015081439
0.28305393
-0.24799058
0.10353771
-0.076948748
0.013421028
0.2790338
-0.24428939
0.10050104
-0.067636414
-0.0020323774
0.28104332
-0.23831515
0.10744457
-0.041308668
-0.013381506
0.28575102
-0.23627539
0.097712752
-0.049106662
-0.015859612
0.30544915
-0.19157397
0.039712616
-0.059082616
-0.0027103409
0.32130216
-0.16420603
0.04288148
-0.060950845
0.010805205
0.31292348
-0.22178724
0.051949957
-0.051506531
0.0098803715
0.29831676
-0.25852351
0.080416134
-0.065858695
0.01803548
0.29958902
-0.25738165
0.093888877
-0.038849961
0.018657004
0.30242749
-0.25858507
0.085051165
-0.046128285
0.01640259
0.29586164
-0.23727971
0.047742466
-0.063038838
0.01326075
0.30015129
-0.19853278
0.052389105
-0.048279035
-0.0012980192
0.29968691
-0.18950272
0.060011361
-0.034165795
-0.008211358
0.30455215
-0.20384019
0.067404146
-0.032329662
-0.0046737795
0.30117167
-0.22704735
0.050337946
-0.050399217
-0.0062608889
0.30872956
-0.26346159
0.08278655
-0.047346514
0.0028207548
0.29617601
-0.25916776
0.088798071
-0.030955365
0.0072245257
0.31801109
-0.2343935
0.060403682
-0.040267562
-0.011217648
0.30343022
-0.25007666
0.0614261
-0.10657302
0.00022214151
0.31236966
-0.27697322
0.083350673
-0.031545927
0.020929103
0.3080374
-0.27641741
0.074850302
-0.061179029
0.007244251
0.30944874
-0.2360209
0.04213147
-0.086515031
0.0085839071
0.31105844
-0.20561547
0.064584327
-0.072813193
-0.010647929
0.30909035
-0.19884168
0.06889289
-0.047961454
-0.019649335
0.31950403
-0.17753512
0.063569965
-0.01081448
-0.0030932909
0.3042359
-0.19556783
0.074244036
-0.037334961
-0.011521718
0.31184145
-0.20728506
0.04754192
-0.050085084
-0.0050474191
0.29929197
-0.25647924
0.051143584
-0.060975726
0.0069723479
0.30437337
-0.26187882
0.077304377
-0.043580158
0.005659678
)
;
    }
    maxZ
    {
        type            fixedFluxPressure;
        gradient        uniform 0;
        value           nonuniform List<scalar> 
150
(
0.28037579
-0.21817619
0.10872843
-0.096956776
0.029410377
0.2901329
-0.21421347
0.094002653
-0.091134503
-0.00098474749
0.28288197
-0.24695546
0.11550697
-0.041734364
-0.0070829335
0.2825091
-0.23930029
0.1168599
-0.03866892
-0.0070041736
0.29421289
-0.21589894
0.064300474
-0.047326302
-0.0030775468
0.29661861
-0.1814299
0.074847058
-0.048810426
-0.00059132685
0.2997076
-0.21263933
0.064427566
-0.045394937
-0.012994478
0.29167051
-0.23329098
0.077429776
-0.060839026
0.016918609
0.28535842
-0.25522267
0.078320729
-0.041998658
0.0013014285
0.28183078
-0.25346051
0.10942768
-0.042047805
0.015675381
0.28073663
-0.24666111
0.083108651
-0.068463414
0.027999581
0.28127122
-0.25829038
0.11236711
-0.037643596
0.021411294
0.28548984
-0.25878021
0.12090477
-0.045469015
0.019051358
0.28164191
-0.26264487
0.1100104
-0.042612449
0.0098245161
0.28115288
-0.23642744
0.082468502
-0.073481003
-0.0035259601
0.27864442
-0.21827798
0.092039156
-0.085211166
0.034826947
0.28051355
-0.22362988
0.084714155
-0.071819643
0.014305946
0.30520274
-0.21079171
0.081280731
-0.056454051
-0.0085968699
0.30638908
-0.20500744
0.078313499
-0.054032386
-0.017494298
0.3220089
-0.18403184
0.032146545
-0.085604997
0.0045080107
0.31363035
-0.23904553
0.035796415
-0.063164169
0.019636785
0.30686281
-0.27233518
0.064730438
-0.064201132
0.019840551
0.31130977
-0.28093708
0.099759217
-0.057221957
0.019110582
0.30916543
-0.27329222
0.10649762
-0.071270905
-0.0057295019
0.30543914
-0.26744266
0.12419903
-0.033743187
-0.0030696031
0.30621568
-0.25952492
0.099362895
-0.038644137
-0.0086828597
0.31812403
-0.21655073
0.060330311
-0.06384677
-0.018798662
0.33436764
-0.21400018
0.03882123
-0.078346579
0.0054064244
0.32042116
-0.29538516
0.055861877
-0.083604513
0.01916822
0.32604651
-0.28686347
0.093220267
-0.040817011
0.02522249
)
;
    }
    bottomWater_to_rightSolid
    {
        type            fixedFluxPressure;
        gradient        uniform 0;
        value           nonuniform List<scalar> 
130
(
0.0072245257
-0.011217648
0.00022214151
0.020929103
0.007244251
0.0085839071
-0.010647929
-0.019649335
-0.0030932909
-0.011521718
-0.0050474191
0.0069723479
0.005659678
0.0036618013
-0.0095693469
0.0043486163
0.014797538
0.022325008
0.020484865
0.011091966
-0.017650214
-0.019612373
-0.0012385543
0.0056927829
0.010664008
0.017333589
-0.0016483402
-0.0027453903
0.015577167
0.020303329
0.040677317
0.025810737
0.024551646
0.015148535
-0.010047694
0.02940039
0.011668323
0.030470972
0.029450066
-0.0065076046
-0.0064838978
0.010554342
0.020037233
0.032795789
0.041582429
0.021836089
0.027069292
0.010254952
-0.011578836
0.019221458
0.014552054
0.041167417
-0.011237793
-0.012196505
0.021232692
0.024415306
0.031776634
0.026709496
0.017540053
0.011852846
-0.013729656
-0.019957887
-0.0080198669
0.0012399043
0.023494328
0.003567421
-0.016274753
0.013197073
0.018344228
0.01861469
0.01253522
0.00060385347
0.0011263416
-0.01268545
-0.017975857
-0.0062740688
-0.022087849
0.010102762
-0.020303181
-0.019644655
0.0083588677
0.024754294
0.030635883
0.02776828
0.008520497
-0.0030119517
-0.016130425
-0.012127145
-0.01376714
0.0032209371
0.011665889
0.003278314
0.0088289455
0.017778559
0.028617309
0.042468212
0.028646247
0.013170325
0.0042430998
-0.009264709
-0.004314392
0.0066560066
0.016647874
0.036777971
-0.018593349
-0.0088199542
0.017038667
0.018267323
0.022851762
0.028828746
0.015244766
-0.01436161
-0.0088293589
0.0029660533
0.016392922
0.026365382
0.043431147
-0.0085968699
-0.017494298
0.0045080107
0.019636785
0.019840551
0.019110582
-0.0057295019
-0.0030696031
-0.0086828597
-0.018798662
0.0054064244
0.01916822
0.02522249
)
;
    }
    bottomWater_to_leftSolid
    {
        type            fixedFluxPressure;
        gradient        uniform 0;
        value           nonuniform List<scalar> 
130
(
0.015081439
0.013421028
-0.0020323774
-0.013381506
-0.015859612
-0.0027103409
0.010805205
0.0098803715
0.01803548
0.018657004
0.01640259
0.01326075
-0.0012980192
0.0088083015
0.018311458
0.0083218487
-0.013567815
-0.0051970508
0.0067249948
0.037073058
0.018787088
0.02902793
0.027122647
0.019436612
0.011608185
0.0081166041
-0.00023856341
-0.0053601882
-0.013189954
-0.023335766
-0.021976061
-0.0070882543
0.002290106
0.015426344
0.023743045
0.026031464
0.027986898
0.0077741877
0.0099292348
0.019732729
0.014903123
0.0095872097
0.0018156761
-0.019885627
-0.0099636198
-0.0086244654
0.0035780949
0.0082959861
0.0050022929
-0.0045974014
0.0061287567
0.024269143
0.029779573
0.025270343
0.01285995
0.011241791
-0.0030397008
-0.0097150039
-0.008596853
0.00027033037
0.013570414
0.019763965
0.032981736
0.028419793
0.029688158
0.015736358
0.026405216
0.033298558
-0.011208581
0.010326272
0.019642795
0.010530773
0.0077635101
-0.013566186
-0.014320862
0.0027927405
0.004731724
0.01911824
-0.0033839643
-0.016163829
0.020367782
0.023338869
0.017837736
0.021424466
0.014511034
0.021232791
-0.00023827351
-0.0018246903
-0.0093533729
-0.011314741
-0.0024081588
0.019358903
0.0041890361
0.027212531
0.015803979
0.027809762
0.021893817
0.016408791
0.014964617
0.0017672464
0.00039398442
0.016110837
0.018047812
-0.0019078671
0.017457393
0.029901113
0.022155894
0.00091778841
0.032293787
0.018707799
-0.00119267
0.0053866873
-0.0044042525
0.0080987536
0.025563117
0.028846328
0.0091968194
0.029410377
-0.00098474749
-0.0070829335
-0.0070041736
-0.0030775468
-0.00059132685
-0.012994478
0.016918609
0.0013014285
0.015675381
0.027999581
0.021411294
0.019051358
)
;
    }
    bottomWater_to_heater
    {
        type            fixedFluxPressure;
        gradient        uniform 0;
        value           nonuniform List<scalar> 
92
(
-0.008211358
-0.0046737795
-0.0062608889
0.0028207548
-0.0013210711
0.017886184
0.016250157
0.019333829
0.017794314
0.017721131
0.007354998
0.013234864
0.29972523
0.29861193
0.29093863
0.30965807
-0.26226843
-0.26466878
-0.2565664
-0.2090387
0.084254143
0.083629619
0.053118361
0.038816994
-0.03397023
-0.034948688
-0.070809496
-0.053463951
0.022892569
0.022892569
0.018035294
0.018035294
0.015191364
0.015191364
0.0048885366
0.0048885366
0.29897121
0.30143336
-0.25739094
-0.2138775
0.099634852
0.079507922
-0.032179476
-0.045723571
0.029688158
-0.011237793
0.29566001
0.28335106
0.288035
0.28377946
0.29371334
0.27638731
-0.26399082
-0.24392104
-0.25609677
-0.25336435
-0.23227039
-0.24362441
0.10955257
0.099256376
0.10673527
0.10296887
0.11906878
0.074354952
-0.054094262
-0.031683559
-0.0049795035
-0.019244328
-0.022083211
-0.038222547
0.01911824
-0.0029406815
0.0022853429
-0.0067155337
0.003567421
-0.007060241
-0.0029406815
0.0022853429
-0.0067155337
-0.007060241
-0.0026458869
-0.0060879299
-0.0052398984
0.0029017396
0.013762716
-0.018571013
0.0032385193
0.011896219
0.0098245161
-0.0035259601
0.034826947
0.014305946
)
;
    }
}


// ************************************************************************* //
