/*--------------------------------*- C++ -*----------------------------------*\
| =========                 |                                                 |
| \\      /  F ield         | OpenFOAM: The Open Source CFD Toolbox           |
|  \\    /   O peration     | Version:  v2012                                 |
|   \\  /    A nd           | Website:  www.openfoam.com                      |
|    \\/     M anipulation  |                                                 |
\*---------------------------------------------------------------------------*/
FoamFile
{
    version     2.0;
    format      ascii;
    class       surfaceScalarField;
    location    "320/bottomWater";
    object      phi;
}
// * * * * * * * * * * * * * * * * * * * * * * * * * * * * * * * * * * * * * //

dimensions      [1 0 -1 0 0 0 0];
oriented        oriented;


internalField   nonuniform List<scalar> 
3858
(
-0.00010153182
0.0001456546
-4.0536486e-05
-0.00020396876
0.00015192562
-4.5371097e-05
-0.00030001863
0.00015422445
-5.3008544e-05
-0.00034599525
0.00012900438
-7.819605e-05
-0.00034090176
6.6468224e-05
-6.7791869e-05
-8.1445747e-05
-0.0002459457
-1.4195312e-05
0.00026042271
-0.00038378297
3.7802188e-05
0.00040627949
-0.00017180039
2.3762606e-05
0.00031958416
6.7370128e-05
2.0320735e-05
8.3883376e-05
0.00014193727
9.4335805e-05
-9.6586114e-05
0.00011239208
6.7791507e-05
-0.00013768734
-6.3791416e-05
0.00010609813
-2.4880937e-05
-0.00022533541
0.00011286365
0.00012591415
-0.00025156382
0.00010120854
0.00022161356
-0.00021808589
0.00012190367
0.00021830301
-0.00010870253
0.00011225425
6.5250359e-05
5.7894125e-05
9.3539666e-05
-2.2282307e-05
0.00011179114
-2.3272363e-05
0.0001836041
-0.00021685852
7.2947067e-06
0.0001208176
6.9752123e-05
-7.4554161e-06
-7.2822035e-05
0.00015072361
4.0448243e-05
-0.00025680568
0.00011799403
6.4589229e-05
-0.0002796065
-7.8343063e-05
9.9602743e-05
-0.00021380657
-0.0001422002
7.4500506e-05
-0.00012738357
-0.00019731867
0.00010937737
8.6532533e-05
-0.0003219599
0.00010421976
0.00019193082
-0.00017702297
7.1077148e-05
0.00028121602
-0.00020303047
0.0001117393
0.00018810812
2.5034216e-05
6.8649409e-05
0.00016288865
2.4534416e-05
-0.00027755499
0.0004006083
2.2601297e-05
-0.00036246785
0.00020200124
3.4837244e-05
-0.00037528603
0.00015015733
1.6885304e-05
-0.00035621737
0.00015763427
-4.769855e-05
-0.00022978849
-1.1834098e-05
-4.8126561e-05
6.7585645e-05
-0.00054048492
-2.8349219e-06
0.00031517728
-0.00069769689
6.6322289e-05
0.00049566639
-0.00039816474
4.5875242e-05
0.00043612896
0.00011529361
1.1613938e-05
-3.519192e-06
0.0005526356
2.8949822e-05
-0.00028607125
0.00033301664
6.1927501e-05
-0.00018414458
-0.00026957437
0.00010385629
-3.218477e-06
-0.00053219131
0.00012592979
0.00023039702
-0.00053858549
5.3406178e-05
0.00037784118
-0.00050574524
0.00014021519
0.00051462427
-0.00031810488
7.2619256e-05
0.00010789311
0.00047838007
-1.375478e-05
-6.2469736e-05
0.00032162733
-3.9473341e-05
0.00033887651
-0.00057483788
-4.3366877e-05
0.00039930569
1.4008004e-05
-4.6850654e-06
-0.00013033955
0.000660205
2.0163853e-05
-0.00053663669
0.00040200973
0.00012228145
-0.00044932441
-0.00030449739
0.00013884205
-0.00029246228
-0.00035877173
5.9709412e-05
-0.00016825384
-0.0004344145
0.00011288738
5.6639813e-05
-0.00061275737
6.5903811e-05
0.00020032385
-0.00040382323
8.3116222e-05
0.00035938702
-0.00051299409
0.00015090045
0.00033929819
-0.00011804805
0.0001631711
0.00037504126
0.00012714558
-9.4677478e-05
0.00034323568
0.00015205011
-0.00023019484
8.9238718e-05
0.00024827989
-0.00028123147
-7.1297284e-05
0.00027249123
2.1055243e-05
-0.00026638597
0.00012173354
0.00038026743
-0.00032555769
-4.5488601e-05
0.00020524005
-0.00011523336
-0.00025022419
-8.1669291e-05
-9.8508557e-05
-0.000312279
-0.00012615294
-0.00010653348
-0.00024714761
9.7949876e-05
4.1032762e-05
-0.00014984198
0.00020842683
0.00046502406
-2.2865412e-05
0.00030112533
0.00021186993
2.8448208e-05
0.00021348625
-7.195397e-05
-0.00010998132
0.00010075092
-0.00022179523
-0.00019766075
0.00011219066
-0.00042189728
-0.00012812795
0.00011018488
-0.00043321116
-7.05283e-05
8.9415029e-05
-0.00023198817
-6.5346857e-05
8.3586981e-05
0.00037915527
0.00010505285
0.00012051473
0.00014396659
0.00014073299
-3.9627293e-05
-0.00042306908
8.3732233e-06
-5.4937292e-05
-9.699582e-05
0.00012631383
-2.1999352e-06
0.00058870922
1.8758432e-05
2.9564412e-05
0.00030928019
6.0965189e-05
-3.0859533e-05
-0.00014511127
-9.8962171e-05
-0.00015225438
-0.00019751079
-3.9866092e-05
-4.6348442e-05
-0.00046039228
-7.9928154e-05
-3.9536492e-05
-0.00056176308
-5.7806236e-05
-2.8917895e-05
-0.00040610753
-8.3342979e-06
-0.00021775477
-0.00021615626
-0.00010800096
-0.00014909414
-0.00011854491
-6.8163776e-05
0.000221908
4.0391119e-06
1.0153362e-05
0.00023996548
9.3116839e-05
-0.00025365619
0.00025490823
9.8140043e-05
-0.00031531439
-4.2498102e-05
3.2859016e-05
-0.00020200668
-0.00041994422
4.0250529e-05
-0.00013159909
-0.00033735445
-5.8610843e-05
-0.00015148339
-4.1046504e-05
-5.4302561e-05
-0.00025226804
4.1614034e-05
-3.9337951e-05
-0.0001652741
-6.6517947e-05
-0.00012700949
-3.05118e-05
3.8703705e-05
-0.00013243325
0.00025006099
0.00016865585
1.5795407e-05
0.00032057042
0.00010634765
3.5012843e-05
0.00015473248
0.00012250249
-2.8618521e-05
0.00012221566
-0.00010428673
-8.4991666e-05
0.0001480656
-0.00038350067
-6.4246554e-05
0.00014702846
-0.00040328878
-2.8885235e-05
9.563426e-05
-0.00012833018
-5.2263791e-05
5.2545301e-05
0.00024455999
0.00017768425
0.00011607634
-2.3233682e-05
0.00010366924
9.7916505e-05
-0.00039637428
-8.5349722e-06
-7.1460615e-05
3.8687621e-05
3.3693681e-05
0.00011676091
0.00032565355
7.4834135e-05
0.00029582053
0.00010521751
2.5003064e-05
7.232546e-05
7.5235531e-05
3.1482759e-06
-8.4419659e-05
-0.00011077287
7.0007201e-05
-5.3974307e-05
-0.00046147404
-2.9363589e-05
-7.0186708e-05
-0.0005212708
-2.4279875e-05
-0.00010730938
-0.0004119648
4.2979943e-05
-0.00017673396
-0.00012546763
-2.1264056e-05
-0.00023386594
4.2814554e-06
-6.5694389e-05
5.3723256e-06
-1.7330272e-05
0.0001102932
0.00012967229
0.00025844104
0.0001067604
0.00015611627
5.9826663e-05
-0.00027214673
8.3187704e-06
-0.00050022731
-0.00010927387
-0.00041721798
-0.00012405583
-0.00025117832
-0.00012442563
-0.00018691915
-0.00013077713
-2.5025067e-05
-0.00012319038
0.00017983356
-3.6202777e-05
0.00031112559
-2.4944384e-05
0.00045009204
-1.6463963e-05
0.00042002281
-7.4217493e-05
0.00018052778
-0.00014400564
-3.981233e-05
-0.00018294867
-8.3539016e-05
-8.4603486e-05
9.5865582e-05
6.5155394e-05
-3.5376721e-06
7.6169575e-05
-0.00034295404
-5.6957902e-05
-0.00027494651
-2.931991e-05
2.6065259e-05
2.4641787e-05
0.00022745884
-9.6176068e-05
0.00042618393
-0.00012348956
0.00047362627
-0.00015821521
0.00019184895
-0.00017969671
-0.00017920979
-0.00015021207
-0.00038250827
-0.00020866632
-0.00032994106
-0.00017803485
-0.00016099882
-0.00016466079
-0.00015562649
-0.00013797873
0.00014778864
-4.6659102e-05
-0.00015043816
-2.4247727e-05
-4.9548363e-06
-1.0539824e-05
-0.00018828547
-1.6623599e-06
2.7503388e-05
4.3647257e-05
-0.00015332563
1.4959821e-05
0.00011496057
-0.00016665352
2.8336021e-05
0.00012796213
-0.00015230817
4.5121478e-05
0.00011742849
-9.3734315e-05
2.4915078e-05
0.00016378402
-0.0001176942
1.2013951e-05
0.00015910067
-0.00012381044
9.4300211e-06
0.0001517298
-5.3189088e-05
-2.474747e-05
0.00019118971
-8.7399638e-05
-8.1685077e-05
0.00017505815
-9.7865039e-06
-0.00012815304
0.00010415344
5.9064335e-05
-1.2328163e-05
-0.00012910224
0.00011567884
-4.8168662e-05
4.9812377e-05
0.00010921476
-0.00017965174
0.00016374779
8.1259193e-05
-0.00019781557
8.286047e-05
2.8064528e-05
-9.1618512e-05
-0.00012038893
-9.8795881e-06
0.00014846072
-0.00024876486
1.2781106e-05
0.00015613174
-5.8834205e-06
-1.0332469e-05
2.1801753e-05
0.00012805444
4.4472552e-05
-0.000153252
0.00015749726
7.9597361e-05
-0.00023410071
6.7729345e-05
0.00011193482
-0.00012215671
-0.0001811839
0.00014006105
-7.9555456e-05
-4.424893e-05
0.00011071137
0.00010878849
-0.00028825569
0.00020103157
0.00027951443
-0.00025435303
0.00015290604
0.00029614719
-2.4230925e-05
0.000118763
0.0001536008
0.00016955235
4.1644722e-05
0.00016806418
8.3640994e-06
-0.0002978096
0.00037019414
9.8005398e-05
-0.00027581187
-0.00018983379
0.00017842558
-1.7717338e-06
-0.0005593766
0.0001139363
0.00018277267
-0.00011349908
-7.5096626e-05
0.00019451541
0.00019952218
-0.00014443091
0.00022471817
0.00022136448
-0.00012644005
0.00035822706
7.6112607e-05
-2.5870714e-05
0.00026363918
0.00033676922
-3.2522084e-05
3.1112304e-05
0.00048477993
-8.1538448e-05
-0.00019217568
0.00051160772
-0.00010764012
-0.00026700989
0.00036032731
-3.2375884e-05
-0.00023732838
0.00024948877
-2.5585819e-07
-7.9965579e-05
-4.2961773e-05
0.00011568221
0.00020026395
-0.00045242855
9.6502964e-05
6.8083955e-05
0.00016181313
0.00016039443
-0.00034367436
0.00062475939
2.3365979e-05
-0.00034778998
0.00012417099
-5.0949684e-05
-9.2621829e-05
-0.00039804123
-1.6989191e-05
0.00023491982
-0.0005851453
-3.4528082e-05
0.0003920393
-0.0001525497
-1.513827e-05
1.9342059e-05
0.00049005493
3.0860613e-05
-0.00049131209
0.00067566664
0.00011476622
-0.00046261166
2.873277e-06
0.00017499769
-0.00019756541
-0.0005263233
0.00013980257
-0.00010278193
-0.00017004329
0.00014389826
0.0001168727
-0.0006278683
0.0001858618
0.00037360485
-0.00060893479
0.00018096584
0.00044630616
-0.00015313689
0.00020710509
0.00029821219
0.00033620159
0.00014461583
0.00055830087
3.5121083e-05
0.00011205036
0.00028126794
0.00012892595
1.9645404e-05
-6.3667806e-05
0.00021451886
-0.00036562535
-8.5421263e-05
0.00018380666
-0.0001832361
-0.00036372738
0.00018957258
6.1043328e-05
-0.0001234325
3.3186648e-05
0.00013827466
4.5972617e-05
-0.00015206367
0.00010624859
-4.642373e-05
-0.0001577166
0.00012631027
0.00021295718
-0.00014339726
0.00011755938
0.00042942153
-8.5732698e-05
0.0001116812
0.00045996796
3.465252e-05
0.00010781753
0.00027987124
0.00011276796
0.00012721258
0.00011126132
8.8510765e-06
0.00013535039
-0.00014384185
-0.00010491848
3.0183131e-06
-0.00034007318
-0.00010815124
-2.4100105e-05
6.9741061e-05
4.8662189e-05
-3.6878285e-05
0.0005240698
4.8120913e-05
1.8101897e-06
9.3198665e-06
0.0001812155
-8.8438646e-06
-0.00036488509
0.00011823091
-0.00011722643
-0.0004654595
-2.9300075e-06
-8.9195245e-05
-0.00010532314
5.1056082e-05
-2.5844919e-05
0.00037335931
7.2103726e-05
6.1690132e-05
0.00063133157
1.7765205e-05
0.00014268453
-6.8888164e-05
-0.00010819512
-9.3529853e-05
-0.00011333702
-0.00021663799
4.7504523e-05
-0.00032913054
-6.1875281e-05
8.4889395e-05
-0.0005704124
-0.00015264701
-0.00013745449
-0.00020269915
-0.00019222606
-0.00018438077
-9.1200177e-05
-0.0001230114
-7.5765053e-05
0.00022102577
-6.1603683e-05
0.00051312428
-2.6549349e-05
0.00028336235
3.9850567e-05
5.1171862e-05
0.00010934922
0.00018862434
1.9861024e-05
-1.0955396e-05
0.00010587281
-3.8130437e-05
4.9674776e-06
-0.00037687084
3.7471108e-05
0.00010534305
-0.00023285039
-4.9568533e-05
6.4056533e-05
0.00017341753
-0.00014046097
-0.00020101996
0.00030352207
-0.00012420726
-7.892303e-05
0.00012503397
-0.00016118322
7.0891835e-05
0.00024594343
-9.8770025e-05
0.00022738671
0.00028359443
3.5674058e-05
0.00027952009
0.00019584855
6.6902141e-05
0.00021724642
0.00010411695
4.0799534e-05
8.7673096e-05
-6.0928913e-05
-3.8331281e-05
-7.6385025e-06
-0.00028291977
-2.6088357e-05
-1.7860327e-05
5.1318352e-05
-2.4069722e-07
0.00013757448
0.00023110908
8.5262127e-05
2.4945464e-05
0.000202145
9.7488132e-05
-3.0927948e-05
-0.00028523303
7.9890589e-05
-6.0228865e-05
-0.00043377769
-1.0915866e-05
-0.00023449865
5.8595311e-05
4.4045022e-05
-6.9556274e-05
0.000173642
0.00010960907
0.00027795193
0.00031030625
-1.4798123e-06
0.00018504702
0.00017159813
-0.00014443311
3.2383193e-05
0.00015375498
-4.4420973e-05
-1.4486253e-05
-0.00030462577
-6.998908e-06
-1.6004783e-05
-0.00056231929
-3.0854456e-05
-0.00015907348
-6.7659644e-05
5.1009129e-05
-0.00033227479
0.00014855354
-8.7816466e-05
-0.00022355227
0.0001270316
-8.042275e-05
0.00026129314
1.0948589e-05
9.1267069e-05
7.8255788e-05
0.0002842708
0.00010238102
0.00036724019
8.2730076e-05
-4.9782526e-05
4.8470641e-05
-0.00037701258
-1.4894207e-05
-0.00032555584
-2.0950492e-06
-0.00015795983
1.1500411e-05
-9.8090673e-05
-6.5612323e-05
6.1287259e-05
-3.6624881e-05
0.00026159767
4.7081245e-05
0.00036364226
6.8859568e-05
0.000370973
8.032224e-05
0.00028018463
-4.4358035e-05
-6.0460659e-07
-0.00014613616
-4.2484866e-05
-8.975006e-05
0.00010630944
-2.2887064e-06
0.00028257575
9.1034082e-05
-2.1372367e-05
9.4884667e-05
-0.00043937747
-7.2730482e-05
-0.00036079832
-4.9303745e-05
-0.00015365705
-8.8574812e-06
0.00015043095
-8.9957815e-05
0.00034950751
-0.00015096799
0.00051092469
-0.0001658774
0.00025796143
-0.00023135923
-0.00025897409
-0.00019559584
-0.00039237784
-0.00014292222
-0.00029681274
-0.00012504641
-0.00021100324
-0.0001234387
-0.0001053366
-0.00020041179
0.00013207671
2.3239678e-05
-0.00027249384
-5.7451984e-06
7.6120096e-05
-5.6336789e-05
-0.00034068264
0.00012203989
0.00012255699
-0.00032039181
-1.17847e-05
0.00014037302
-7.9156147e-05
-0.00010461366
0.00011537966
3.1385522e-05
-0.0001579112
0.00010823108
7.925468e-05
-0.0001655322
2.5926691e-05
0.00011703681
-0.00015264892
-9.1832386e-05
0.0001344443
-0.00014036371
-9.3819713e-05
8.0547852e-05
-0.00013063647
9.3002398e-05
-0.00019300572
-8.2256614e-05
3.7215771e-05
0.00010139994
-5.2688296e-05
-7.7206863e-05
0.00014836039
2.5648627e-05
-0.00012384504
0.00015057555
1.4020978e-05
-0.00017978473
0.0001550841
1.1266691e-05
-0.00026268941
0.00015669281
9.7347482e-06
-0.00020471334
-4.8207161e-06
-2.41989e-05
-1.1709167e-05
-0.00021395629
1.0954293e-05
0.0001801507
-0.00022538307
4.5094139e-05
0.00021173173
-3.4549609e-05
-8.8658335e-06
0.00011516281
0.00013880586
1.7119016e-06
2.6399914e-05
0.00013536202
3.1233511e-05
-7.5011197e-05
0.00019024259
2.3253542e-05
-0.00010162592
0.00012130224
4.6966482e-05
-1.9720701e-05
9.4591552e-05
-6.4145654e-05
5.7234592e-05
6.7380908e-05
5.8273303e-05
0.00011343161
5.6859746e-05
4.0328138e-05
0.00010509664
0.00015426573
-2.7416383e-05
5.8779557e-05
0.000145571
-5.912361e-05
0.00015211036
-8.6212903e-05
-0.00036943385
0.00044872877
0.00015078719
-0.00030462214
-9.905598e-05
0.00020692465
-5.2991443e-05
-0.00067501335
0.0001966363
0.00016232617
-0.0006278031
1.6997057e-05
0.00030971137
-0.0002518988
-0.00011907346
0.00034102297
7.0250193e-05
-0.00019661632
0.00043999394
0.00014344191
-0.00018902892
0.00015905092
0.00052354939
-0.00015809165
-0.00024036383
0.00061349981
-0.00016117922
-0.00027795156
0.0001357996
-0.00012530414
0.00011874178
-0.00054738771
-7.4687241e-05
0.00020440024
6.1316257e-05
-4.5830637e-05
4.4098797e-05
0.00039353514
3.0808905e-05
-5.1478112e-05
0.0002547473
8.7908125e-05
-0.00024321516
0.00046568545
4.153013e-05
-0.00035192601
0.00031002517
-2.1255525e-05
-0.00022110119
-0.00016782072
-1.8774509e-05
8.7084178e-05
-0.0005429909
3.8600547e-06
0.00037811844
-0.00056764179
1.6696374e-05
0.00053579854
-0.00015574201
-5.1625969e-05
0.00023675358
0.00050645245
-3.7741014e-05
-0.00023096135
0.00068487692
3.296625e-05
-0.00046336977
0.0005190764
7.8572315e-05
-0.00029877207
-7.1096163e-06
0.00010361673
-3.0407407e-05
-1.8763207e-05
-1.1111636e-05
0.00020196388
-2.2359702e-05
4.3231125e-05
0.00040238376
-5.3189369e-05
9.0595075e-05
0.00033128435
0.00041889941
1.357082e-05
0.00012899797
0.00056129149
-6.8818294e-05
0.00047912665
-0.00016289724
0.00017609683
0.00033399964
6.7558247e-05
0.00034059855
-0.00013046503
8.1426199e-05
-3.4171438e-05
-0.00014500525
2.856855e-05
-0.00026114126
-0.0002272871
1.6026388e-05
-8.2933989e-05
-0.00042877533
3.1855906e-05
0.0001392633
-0.00028372379
-2.0286979e-05
0.00021354388
-4.1198325e-05
-4.735695e-05
0.00022870586
0.00039385863
-2.8868478e-05
0.00024081493
0.00055640869
-4.0750649e-05
0.00016449942
0.00010255971
0.00014420791
-0.00022036465
-9.7362054e-05
4.7606376e-05
-6.1580232e-05
-0.00024757682
0.00015895973
5.8614537e-05
0.00012156668
4.6855199e-05
2.3568774e-05
0.00014111562
4.0526205e-05
0.00011358698
0.00034259054
8.1738896e-05
0.00018852932
0.00017542082
0.00010778292
0.00014861072
-0.00011105012
0.0001643635
7.8955369e-05
-0.00041102975
5.5925116e-05
-0.00010643371
-0.0003939153
8.7325761e-06
-0.00013195125
-9.9400286e-05
2.0231902e-05
-1.5770251e-05
0.00041429342
4.8081758e-05
-8.0537886e-05
0.00071448709
5.292267e-05
-7.1630814e-05
0.00044619936
-4.4225156e-05
-0.00012451662
-0.00010065163
-7.0210159e-05
-0.00015443384
-0.00013436709
8.364582e-05
-7.3882359e-07
-0.00036413601
3.5434284e-05
1.4694495e-05
-0.00014392077
-0.00011692799
6.6682973e-05
0.00032472223
-8.0822711e-05
8.5169507e-05
0.00052973105
-4.8529784e-05
0.00041089179
0.00012685501
0.00030853203
3.5591535e-05
4.1047947e-05
0.00028125178
-5.8361773e-05
-2.4961985e-05
0.00021135915
-7.3638035e-05
-3.9605031e-05
0.00019843537
-0.00021609278
3.9200572e-05
0.00021258107
-0.00045675467
-3.57349e-05
0.00019618501
-0.00028744436
-0.00012034436
5.2798391e-05
0.00012027532
-0.00014229429
0.00011824824
0.00025057784
-8.3352284e-05
0.00027978186
0.00029222026
3.8847736e-06
0.00020759136
0.00018576308
2.4661182e-05
4.4302107e-05
0.00013187794
9.5139344e-07
-3.1466641e-06
-0.00024946506
9.0136541e-05
0.00013563255
-0.00016205435
0.00010651054
8.6075816e-05
0.00016299701
1.5869895e-06
0.00020789694
0.00019100564
2.9523088e-05
0.00027586382
5.7380671e-05
0.0001353354
0.00016490833
4.8826364e-05
4.8567139e-05
0.0001486803
-0.00039105909
7.6147961e-05
-3.5230062e-05
-0.00028734401
6.6423209e-05
-0.00028326905
0.00016757749
2.5106242e-05
-0.00012047659
0.00020481475
0.00015629528
0.00013233602
0.00042860721
3.1587457e-05
0.00034300839
0.0002059778
-0.0001148839
7.7583033e-05
0.00020514142
-8.478866e-05
-0.00013334542
6.1173918e-05
8.3885437e-06
-0.00014052147
-0.0003970614
9.2469811e-06
-0.00029361334
5.8875944e-05
1.3042826e-06
-0.00016128275
0.00019070087
-8.6125708e-05
-3.4121455e-05
0.00031032915
1.1817844e-05
0.00023765093
0.00015006799
0.00017926707
-6.5419743e-05
0.0002937027
-7.0416388e-05
0.00038589901
-8.3104274e-05
0.00032629482
-0.00010801795
-4.9778663e-05
-9.5575407e-05
-0.00028070182
-5.8616256e-05
-0.0002252587
7.6332603e-05
-6.2836496e-05
2.2543316e-05
0.00011808126
7.4677621e-05
0.00022541822
0.00012550737
0.00037432914
5.1826588e-05
0.00017879026
2.6396059e-05
1.4705742e-05
-4.2327869e-05
9.2544981e-05
-6.0978387e-05
0.00019745332
-3.6527613e-06
0.00023223939
2.0305903e-05
0.00029183917
8.0260667e-05
-9.3195841e-05
8.8860588e-05
-0.00045798235
4.7120117e-06
-0.00034623924
6.5306427e-06
-0.00018535273
3.5070756e-05
0.00014041274
1.2883929e-05
0.00030765963
-0.00011223706
0.00043069681
-8.3773162e-05
0.00037229634
-0.00011178484
-0.0001216873
-9.8673604e-05
-0.00027505563
6.9322049e-05
-0.00022543428
1.6033095e-05
-9.322408e-05
5.468025e-05
3.9090248e-05
-0.00018155173
0.00015546954
5.061449e-05
-0.00029418784
0.00013257602
5.9098983e-05
-0.00021125043
-7.3459238e-05
0.00011454096
-1.9467537e-05
-0.00029583061
9.0970833e-05
6.969296e-05
-0.00017352621
-1.933461e-05
0.0001829251
-0.00023773659
-3.4615038e-05
0.00018049862
-0.00016032047
-3.5537064e-06
2.1126851e-06
5.7430229e-05
-3.2852764e-05
-0.00013022946
6.4242326e-05
-7.3540783e-05
-7.6428904e-05
-0.00010498227
-8.013786e-05
0.00012344065
-0.00029294256
9.3871878e-06
0.00023699375
-0.0002383177
7.2519228e-05
0.00011433886
0.00010538225
4.51579e-05
-2.4020431e-05
0.00015264737
-0.00017118944
0.00015899922
-0.00026122538
0.00010217757
-4.9927473e-05
-0.00023720417
0.00011286694
-0.00023198152
7.9129497e-05
0.00020110892
-0.00018477009
0.00014012042
0.00029626341
-0.0001136583
6.6215778e-06
0.00023041622
9.8630929e-05
-3.2652182e-05
0.00014349297
0.00014676621
-3.0658009e-05
7.5712016e-05
0.00013902914
-5.0506693e-05
-1.059381e-06
0.00017629453
-5.3853615e-05
1.9815292e-05
6.1622484e-05
-0.00014725539
4.4817085e-05
0.00012752361
-9.3575843e-05
6.8135554e-05
0.00015534767
-0.00013801306
7.8926695e-05
0.0001508405
-0.00018920714
3.1397979e-05
0.00015985464
-0.00017137898
0.00010807581
-0.00016075386
-0.00034851672
0.00055203306
0.00010274039
-0.00037626302
0.00023461902
0.00013262795
-0.00021077194
-0.00020844728
0.00016613326
-5.7424615e-06
-0.00060599968
0.00012213664
0.00014807916
-0.00039756246
-4.8858839e-05
0.00030586244
-0.00053390944
-5.8226756e-05
0.00040178958
-0.00042409694
-2.1179584e-05
-7.9168695e-06
0.00039393136
-8.4886331e-05
-0.00036944357
0.00041185619
-0.00014726639
-0.00019653936
-0.00032888392
-7.4306696e-05
6.8088186e-05
-0.00060328743
-2.8969922e-05
0.00027689744
-0.00062587862
0.00013292102
0.00029753987
1.3950593e-05
0.00010159814
-7.8459701e-05
0.00061655507
-0.00041979421
0.00054186386
-0.00033144499
-7.4271787e-06
-6.7795393e-06
-0.00058064413
0.00023162707
-0.00051538198
4.8853891e-05
0.00039034679
-0.0004509989
0.00012420547
0.00061097409
-0.00035083215
-3.5079418e-05
0.0005534716
0.00022285532
-0.00010446291
0.00018766281
0.00061484885
-6.9307584e-05
-0.00022499337
0.00070031003
-7.0052387e-05
-0.00034906123
0.00046692147
-6.2942355e-05
-0.00011463365
-8.624909e-05
-9.7667637e-05
0.00015366356
2.3251034e-05
-0.00012079351
0.00027721489
0.00023596292
-0.0001135715
0.00011726058
0.00055878968
-0.00023442407
-9.7727556e-05
0.00057692362
-0.00027089914
-3.4260486e-05
-0.00011828851
0.00010649993
0.0005052139
7.8774822e-06
0.00032959987
0.00012230068
-2.9355401e-05
0.00029548268
-6.4581562e-05
-8.1179977e-05
1.6862588e-05
-8.1296649e-05
-0.00023005655
3.8859507e-05
-0.00027148936
-0.00011621412
3.7420778e-05
-0.00047360569
-7.9152003e-05
2.9047849e-05
-0.0003576627
-0.00010541827
6.8903948e-05
0.00029834601
2.6860769e-05
7.6258212e-05
0.00030139597
6.2355307e-05
3.3544577e-05
-0.00024923478
0.00010727242
-5.8888545e-05
-0.00041963035
-4.3617584e-05
-0.0002588218
-0.00025488306
-1.2102576e-05
-0.00015447359
-6.2855418e-05
1.9312999e-05
-2.749465e-05
0.00053010233
0.00015837885
0.00043772926
0.00034007736
-8.1342763e-05
0.00012925838
-0.00020546164
0.00015754604
-0.00045343608
-3.4308434e-05
0.00011457905
-0.0003838655
-1.5433823e-05
-8.5067082e-05
-0.00013353258
2.578458e-06
7.1657576e-06
0.00011578689
6.2917344e-05
4.2425781e-05
0.00060357873
2.893277e-05
-1.7229646e-05
0.00072951139
-1.3771087e-05
-8.841545e-05
0.00033129845
0.00013659867
-0.00017428916
-0.00014057167
0.00022384211
-0.0001428987
-0.00013282675
0.00016012161
3.6472913e-05
-0.00014529713
8.4960446e-05
0.00010284564
0.00046203741
-5.0443179e-05
0.00010754215
0.00054475626
-2.1058956e-05
-3.9092701e-05
0.00023922937
0.00028228956
0.00025051802
1.3454271e-05
0.00033790129
8.57569e-05
-4.4029933e-05
0.00021921035
5.7148154e-05
-4.2643816e-05
0.00011172026
7.7399812e-05
-1.2005798e-05
0.00017855179
-0.0002640433
-0.0001100125
0.00016820402
-0.00048863917
-9.4963115e-05
2.9972144e-05
-0.00027880285
-8.2922275e-05
3.7498275e-05
0.00019084083
1.6626756e-05
4.5233253e-05
0.00022866301
6.8882749e-05
-3.7406154e-05
-0.00014810844
6.1742373e-06
-3.592073e-05
-0.00041871996
-1.4444265e-06
-9.8440766e-05
-0.00011238185
1.0155361e-05
-0.00027515003
0.00020328458
1.7079807e-05
-2.6096513e-05
0.00028263581
0.0002519757
0.00018918014
0.00018750431
0.00011846404
0.00013729186
-0.00010668206
0.00016272942
-0.00046969593
6.6970248e-05
9.7810214e-07
-0.00030180574
0.00014611477
-0.00022966054
0.00011680032
5.4119837e-06
-0.00022907843
0.0001378156
0.00013368447
2.4238265e-05
0.0003510424
3.0807094e-05
0.00023368127
0.00043243895
-2.7254461e-05
0.00029316609
0.00015942547
2.7599505e-05
-5.3350789e-05
0.00026214158
-4.7807813e-05
-0.00024589825
5.9180113e-05
9.7875778e-06
-9.729857e-05
-0.00034825723
5.5664697e-05
0.00010876255
0.00013049916
3.9351412e-05
0.00029146495
0.00025343721
0.00012043449
0.00024501549
0.00015742473
0.00023605477
-5.095649e-05
0.00034987675
-9.8481464e-05
0.00044665944
-0.00012273882
0.0005348382
-0.0001187969
0.00037614529
-0.0002009258
2.9168266e-05
-0.0002002784
-0.00020393681
3.0634823e-05
-7.2353833e-05
8.1801172e-05
9.8498298e-05
0.0001324885
-2.5826892e-05
0.00010172412
-0.00034408445
-4.8635821e-05
-0.00036873492
-6.133532e-05
-0.00018410918
-2.3669031e-05
3.7548252e-05
0.00022307563
0.00036184557
0.00033542418
-0.00012669577
8.1284609e-05
-0.000491021
6.7231509e-05
-0.00039990519
3.2215162e-05
-0.00029479187
6.7773031e-05
-8.8457787e-07
7.001904e-05
0.00029121644
2.8100861e-05
0.00032583097
4.1037792e-05
0.00043561828
4.0569434e-05
0.00032462856
7.1496229e-05
-0.00010422591
0.00014991928
-0.00017277637
0.0002150827
-7.4108767e-05
0.00020944984
0.00020999696
-0.00010706343
0.00013599622
2.2523837e-05
-0.00016896072
0.0001606697
-3.858685e-05
-0.00018751463
0.00016012891
-2.5433813e-05
-0.0002062782
8.8816308e-05
2.3011995e-05
-7.98895e-05
-0.00018936668
4.3650624e-05
0.000106006
-0.00028021647
5.8921644e-05
6.9148221e-05
-5.998708e-05
9.3858494e-05
-0.00010172317
0.00012077064
1.6428955e-05
-0.00012865616
6.224068e-06
-5.3499909e-05
8.7907812e-05
-0.00026086732
-3.7948054e-05
0.0002280862
-0.00014368583
1.2635204e-05
0.00018048127
6.7895192e-05
5.3426954e-05
0.00013463439
9.1570714e-05
7.0293306e-05
-0.00013178864
0.00014062072
1.7800318e-05
8.1487138e-05
0.0001122975
0.00015631999
-0.00017062865
3.5614773e-05
0.00013783259
-1.2884832e-05
-2.9217995e-06
-2.0681e-05
0.0001336755
-7.9330095e-06
-0.00018405277
0.00013795792
-2.7406798e-05
-0.0002629324
6.8898538e-05
-4.3447684e-05
-7.4660457e-05
-0.0002930047
-4.609984e-05
4.2694179e-05
-0.00016210802
-5.0400266e-05
0.00011187386
-0.00010607525
-0.00010268122
2.1086446e-06
6.2083921e-05
-0.00014262178
-0.00016401373
0.00015123486
-0.00015602873
-0.00029288557
-3.6673445e-05
-0.00019645566
0.00051936255
-8.4170284e-05
-0.00032160206
0.00055706373
-0.00013861968
-0.00033969014
0.00047038105
-0.00012603081
-0.00025521281
2.6654114e-05
9.9821509e-05
-4.0949567e-05
-0.00052396474
7.1475971e-05
0.00021066017
-0.00063640627
4.6353302e-05
0.00020595388
-0.00016908652
9.262614e-05
-0.00028745604
0.00064509112
-0.00011579689
-0.00034346349
5.5672715e-05
-0.0001407076
1.3083827e-05
-0.0006134282
-7.8293124e-05
0.00031776588
-0.0004091665
-6.8171302e-05
0.00041345994
0.0001156229
-1.0500735e-05
0.00058425198
6.5440477e-05
0.00015109895
-0.00037722612
0.00014319242
0.00018878074
6.3930727e-05
0.00010408008
0.00046522846
-0.00049925043
1.7094645e-05
0.00051763268
-0.00010344327
-6.6308695e-05
-1.3266577e-05
0.00062834837
-3.3081189e-05
-0.00049620069
0.00062624696
-7.54073e-05
-0.00041587376
8.7445091e-06
-8.3115254e-05
-9.369985e-05
-0.00068396173
-2.8884512e-05
8.0030933e-05
-0.00043819536
-1.8436943e-05
0.00027231249
-0.00034249775
-6.9430567e-05
6.4893042e-05
0.00017631
-0.00014123071
-6.7011451e-05
0.00011506671
-0.00010282651
-0.00066404965
0.00018586411
8.1207791e-05
0.00048988237
-4.3850126e-05
7.6339181e-05
0.00050499916
2.7577783e-05
0.00012374928
0.00034262096
-8.2998642e-07
0.00022039941
-8.132284e-05
-0.00021872972
5.3419229e-05
-0.0002422216
-0.00023097709
-9.3897996e-05
-0.00038328043
-0.00018496062
-6.793684e-06
-0.00033190551
-2.9703584e-05
0.00014941801
0.00046523695
5.0503245e-05
0.00023715111
-2.118997e-05
5.1484894e-05
-0.0001066259
-0.00011859759
-4.3781188e-05
-0.00028810942
-0.00010589503
-0.00016540553
-5.5957488e-05
9.522585e-06
-0.0001381542
0.0005111988
3.6408693e-05
0.00010894252
-0.00047228132
-4.8195749e-05
0.00029459027
-0.00015903255
2.1881706e-05
-0.00012544449
-0.0001126183
3.5981094e-05
-7.0719026e-05
-0.00010568273
1.0431344e-05
3.190568e-05
0.00055865234
-3.9958974e-06
0.0001217786
0.00057775024
-5.514728e-05
0.00028644734
-3.3129662e-05
1.3804102e-05
-6.5721993e-05
-0.00010503826
-2.9120142e-06
-0.00013770629
-0.00020830024
2.2107763e-06
3.9842263e-05
-0.00050318322
6.8097361e-05
0.00028461292
-0.00018336655
6.4462709e-05
0.00033418468
-2.4049029e-05
6.8484995e-05
-8.6882389e-05
-3.7532276e-06
0.00015033346
0.00035041659
2.5865973e-06
0.00026678607
0.0003161126
2.8404012e-05
0.00032537497
0.00018297904
5.8409205e-05
0.000167093
0.00011623636
-5.1283032e-05
9.7180799e-05
-0.00015648895
-0.00012583295
-4.1561125e-05
-0.00032181037
-1.7691257e-05
-8.8034988e-05
-0.00034601465
-2.2339278e-05
0.00026987317
-8.3954785e-05
0.00020791033
0.00024075701
5.3727311e-05
2.3081628e-05
5.3236274e-05
4.7301121e-05
2.7796257e-05
-0.00018340338
0.00018915862
-5.985843e-05
-0.00023970425
0.00018131226
-0.00010533345
0.00025894573
2.9628624e-05
5.1412363e-05
-0.00048348827
2.676483e-05
6.7442144e-05
-7.6589007e-05
4.7641441e-05
-0.0001652749
0.00018029651
-5.4785794e-05
-0.00023203061
0.00012023429
-2.5476833e-05
8.1671258e-05
0.0002649693
1.0788271e-05
0.00037790367
0.00028304807
-2.8784692e-05
0.00027121428
0.00016860725
-6.7448011e-05
5.9242458e-05
0.00018613861
-0.00012701287
5.4024228e-05
-9.7058641e-05
-9.6235787e-05
0.00011330385
-0.0005367102
2.9912041e-05
0.00018631448
-0.00030790671
9.0880923e-05
0.00011734448
5.856609e-05
0.00010678934
0.00017303435
1.4852454e-05
0.00019674498
0.00010271512
0.00034020602
7.4170093e-05
0.0003882056
1.2240637e-05
0.00039558098
-9.9359235e-06
0.00024307213
-0.0002049059
-5.5917414e-05
-0.00022309924
-0.00028567192
-8.5625325e-05
-0.00026419759
-2.3627951e-05
-0.00020312709
0.00012514531
-0.00022932533
0.00017522348
-0.00019978072
0.00011097819
-0.00015958884
7.9785064e-05
7.5687856e-05
-0.00045459393
5.2390272e-05
-0.00052059649
5.6645063e-05
-0.00033773916
2.9654346e-05
-0.00018193592
3.2204086e-05
9.5390824e-05
5.7661597e-05
0.00032002811
8.6511643e-05
0.00041793778
0.00011173538
0.00055486161
8.9784209e-05
0.00043866986
9.0629337e-05
-4.4961648e-05
9.6840585e-05
-0.00031153872
0.00017375305
-0.00023092822
0.00018740541
0.00015210309
-7.7873939e-05
0.0001389024
-3.659029e-05
-1.8492558e-05
5.8667246e-06
-0.00010300354
4.4903099e-05
3.4708363e-05
-0.00012235164
2.0825563e-06
0.00011968182
-5.320115e-05
-9.2298766e-05
0.00015726907
-1.6640321e-05
-0.00011616553
7.4952718e-06
7.7323452e-05
-0.00022098382
0.0001175266
8.313179e-05
-0.00022528527
-1.5343297e-05
3.6441085e-05
1.3977752e-05
-0.00029199998
-2.2443027e-06
0.00020571546
-0.00018460359
-4.525523e-05
0.00024295653
4.940784e-05
-7.2949126e-05
0.00016072314