/*--------------------------------*- C++ -*----------------------------------*\
| =========                 |                                                 |
| \\      /  F ield         | OpenFOAM: The Open Source CFD Toolbox           |
|  \\    /   O peration     | Version:  v2012                                 |
|   \\  /    A nd           | Website:  www.openfoam.com                      |
|    \\/     M anipulation  |                                                 |
\*---------------------------------------------------------------------------*/
FoamFile
{
    version     2.0;
    format      ascii;
    class       volVectorField;
    location    "320/bottomWater";
    object      U;
}
// * * * * * * * * * * * * * * * * * * * * * * * * * * * * * * * * * * * * * //

dimensions      [0 1 -1 0 0 0 0];


internalField   nonuniform List<vector> 
1460
(
(-0.00046717155 -0.01491017 -1.3514465e-05)
(-0.0020338495 -0.015692138 -0.00034459924)
(-0.0032507113 -0.015202124 -0.0003353818)
(-0.0041406997 -0.015246886 0.00042208439)
(-0.0047850731 -0.014664757 0.00057895098)
(-0.0033805409 -0.012341227 0.00086432444)
(0.0015374808 -0.013837432 0.00017457244)
(0.0046586668 -0.012436489 0.00086562613)
(0.0050871343 -0.013962269 0.0016287923)
(0.0032065786 -0.016179243 0.002388725)
(-0.00097570774 -0.01575765 0.002673835)
(-0.0016534582 -0.011245602 0.0015825388)
(-0.0015767653 -0.011319247 0.0014931656)
(0.0008799972 -0.011707447 0.0012353014)
(0.0024555526 -0.011527298 0.0014036382)
(0.0027882598 -0.012385848 0.0017532305)
(0.0030600103 -0.01704833 0.0020692337)
(-0.0017222093 -0.017713013 -0.00070127144)
(0.0013618792 -0.01043669 1.8352714e-05)
(0.0027158563 -0.015255911 -0.00025092132)
(0.00063066305 -0.016965725 0.00051563939)
(-0.0026292288 -0.014925451 0.0011157715)
(-0.0036365091 -0.013570571 0.001445674)
(-0.0032236747 -0.013153883 0.00098095095)
(-0.0023869783 -0.012561493 0.0014472239)
(-0.00046458417 -0.013089808 0.001327951)
(0.0023123636 -0.012682071 0.0010883958)
(0.002918472 -0.012080482 0.001820002)
(0.0036287912 -0.014027533 0.0014119783)
(0.0013844404 -0.014883242 0.00076197961)
(-0.0027409919 0.016588676 -0.00052923094)
(-0.0042679863 0.017529165 -0.0013751078)
(-0.0047213475 0.017112791 -0.0012538692)
(-0.0044825922 0.016634582 0.0006008133)
(-0.005020922 0.014869564 0.00035304335)
(-0.0001631255 0.0016427054 -0.00082361437)
(0.0021741606 -0.001773545 -0.0022983805)
(0.0048638883 0.0044126578 -0.0020596554)
(0.0071761419 0.014136159 -0.00069928851)
(0.004295965 0.017753888 0.0010594136)
(-0.0044367101 0.01672941 0.0014527433)
(-0.0025276128 0.0075769341 -0.00023900088)
(-0.001647918 0.001364623 -0.00050665016)
(0.0015470412 0.00080702201 0.00051654775)
(0.0039677855 0.0018126592 9.342616e-05)
(0.0056546933 0.006850415 0.00035211915)
(0.0064640892 0.017043429 0.00025517598)
(-0.0035438277 0.018682545 -0.0014075827)
(0.0022822301 0.00064049272 -0.0004551746)
(0.0057660846 0.015475827 -0.00062072099)
(0.0036637438 0.018655537 -0.0001526073)
(-0.00709713 0.015973236 0.0019703517)
(-0.0056158214 0.0092631283 0.0019931064)
(-0.005321888 0.0062985553 0.0016976802)
(-0.0024594943 0.0036143063 0.00095254684)
(-0.0013028119 -0.00039549142 0.0011367594)
(0.0024748011 0.0045137424 0.0020961297)
(0.0029638194 0.0029122879 0.0018949822)
(0.0052366018 0.013111436 0.0023047368)
(0.0037611134 0.016879899 0.0020329403)
(-0.00091325891 -0.00081963485 0.0019765845)
(-0.0017450469 -0.0088325518 0.0032866248)
(-0.0038312887 -0.010361508 0.0039997675)
(-0.0028075629 -0.0096221078 0.0012873826)
(0.0034595402 -0.014119754 -0.0011173729)
(0.0050966667 -0.014209425 -0.0039922122)
(0.00052104829 -0.015169836 -0.0059253771)
(-0.0027198914 -0.013019485 -0.0057394728)
(-0.00011756675 -0.0086927213 -0.0037993124)
(0.0026698094 0.0030806054 -0.00043339546)
(0.0026623615 -0.003418375 -0.00030972326)
(0.0041825602 -0.012844247 -0.0023171396)
(0.0015807617 -0.013623813 -0.003181886)
(0.00091231097 -0.013269735 -0.001988018)
(0.0021343423 -0.013305231 -0.0027110753)
(0.0001850315 -0.013395811 -0.0031240785)
(0.0024483702 0.0012924311 0.00049404275)
(-0.00024053624 -0.0057653123 0.0016741793)
(0.0028352159 -0.013790509 0.00049573406)
(-0.0037390118 -0.013943182 0.0025302457)
(0.0026245829 0.0058285435 -0.00036541082)
(-0.0026974575 -0.0002126446 0.0017314981)
(0.0031982875 -0.015404798 -0.00026964596)
(-0.0037349662 -0.013864315 0.0013415886)
(-0.00022248302 -0.013199415 -0.0013039001)
(-0.0011000926 -0.014120879 -0.00019732543)
(0.00033503986 -0.013293481 0.0012463936)
(-0.0012749963 -0.014627914 -0.00080683097)
(-0.0039880771 -0.014726899 -0.0012699662)
(0.00066836569 -0.0021184221 -7.0490981e-05)
(0.0014033268 0.0085627209 0.0018801506)
(-0.0012718303 0.010183959 0.0024499725)
(-0.0047717289 0.0070799098 0.0012036924)
(-0.0025286105 -0.00043292546 -0.00042401669)
(-0.0028842102 0.0020910263 -0.001026262)
(-0.00057598169 0.0095922868 0.00053098302)
(-0.0032749466 0.011139572 -0.00023310327)
(-0.0025986283 0.0086412447 -0.0021188911)
(-0.0020322491 0.0090627257 -0.0027731385)
(0.0015042782 0.0081728681 -0.00018868359)
(0.0043787569 0.0079414518 -0.00029377855)
(0.0031214831 0.0096728622 -0.0010458438)
(0.001077207 0.0053464008 -0.0010427562)
(0.0021516526 -0.0014990392 -0.0016943342)
(0.0016808749 -0.0019114797 -0.0016882535)
(0.0016278531 0.0047330346 -0.002576587)
(0.00090505595 0.0076586117 0.0024019063)
(0.00062803608 0.0086087026 0.0017314622)
(0.0025675954 -0.0011669647 0.00023235816)
(-0.00080392769 0.0096864257 0.0001198185)
(-0.00032863981 0.0089033045 0.00063748832)
(0.0027042698 0.007226196 0.001238285)
(0.0042156028 0.0095565619 0.002278963)
(-0.0021904178 0.0062344666 0.0013218923)
(3.8329158e-05 -0.0029786501 -0.00068720651)
(-0.0010772519 -0.0049545514 -0.00061993392)
(-0.0010334701 -0.0011069897 -0.0011819451)
(-0.0014847233 0.0065460633 0.00017143027)
(-0.0032566241 0.0098524376 -0.0007299063)
(-0.0020961728 0.0069358547 -0.00032493189)
(0.0013060603 -2.7782057e-05 0.0018499514)
(0.0016199347 -0.0010579691 0.0016277875)
(0.0045344632 -0.0077959206 0.00039007745)
(-0.00075566893 -0.010788426 -0.0015328425)
(-0.0062109078 -0.01094546 -0.0028171458)
(-0.0059613189 -0.010362275 -0.0029331503)
(-0.0041275478 -0.0093878577 -0.0031011249)
(-0.0025043147 -0.010035269 -0.0027142435)
(-0.0019166923 -0.0073541645 -0.0027370506)
(0.0012431522 -0.0021155211 -0.0012792766)
(0.0032204717 -0.0039399481 -0.0011686425)
(0.0048046431 -0.0051195606 -0.001192766)
(0.0060378894 -0.0077753964 -0.0018400533)
(0.0045201409 -0.0089105477 -0.0026287349)
(0.00022382063 -0.0090211775 -0.0037699055)
(-0.0013429172 -0.007822166 -0.0026562298)
(-0.0005719899 0.00082831828 0.00094943079)
(0.003174197 -0.0089704745 0.0007700345)
(-0.0033296349 -0.0095497332 -0.00051859366)
(-0.0048670639 -0.0079254636 0.00010523144)
(-0.0014895417 0.0021394716 0.0011134701)
(0.0019668483 -0.0032352766 -0.0011291866)
(0.0041431403 -0.0065324714 -0.0012907275)
(0.0060047956 -0.0087261583 -0.0023766299)
(0.0054972705 -0.0095592098 -0.0026853161)
(-0.00024518775 -0.0097234831 -0.0024343753)
(-0.0046252015 -0.010046727 -0.0039931368)
(-0.0047019517 -0.0095637681 -0.003561278)
(-0.0031976987 -0.0095187186 -0.0033222822)
(-0.0010547287 -0.0065927839 -0.0033414181)
(-0.001228897 -0.013932853 -0.0016045205)
(-0.002323705 -0.013258252 -0.0013822517)
(-0.0011504719 -0.01002215 -0.0017000292)
(0.00077048365 -0.011831772 -0.0036545559)
(8.7433359e-05 -0.015548053 -0.0032669621)
(0.00021559719 -0.017941279 -0.0015276293)
(0.00048279523 -0.017921408 0.00097880806)
(0.0007010498 -0.015745256 -0.00015047456)
(-0.0001288882 -0.015524504 -0.00097330685)
(0.00046549118 -0.01555051 0.00097509018)
(-0.00024989589 -0.013372929 -0.00035784598)
(-0.00031726663 -0.013855429 0.0022669117)
(-0.0019438812 -0.012819745 0.0023901352)
(-0.00094768823 -0.010273003 0.0024884839)
(0.00057170411 -0.016124742 0.0029395926)
(-0.0018609126 -0.016259833 0.0023457199)
(-0.002362309 -0.016423553 0.0014583902)
(-0.0028886232 -0.011088093 -6.376293e-05)
(0.00086325989 -0.011489615 0.00028465959)
(0.0024922803 -0.014139821 -6.0661995e-06)
(0.0016715572 -0.016594177 0.0010657873)
(-0.0010721711 -0.016628408 0.0014458384)
(-0.0030790279 -0.014911405 0.002250308)
(-0.0022599579 -0.01259777 0.002074805)
(-0.0012087189 -0.013901013 0.0025629172)
(-0.00047552406 -0.011936931 0.0027714154)
(0.0029808125 -0.011600829 0.001777888)
(0.0038851766 -0.013017404 0.0022233772)
(0.0033377669 -0.013553309 0.0011935652)
(0.00073325532 -0.015275514 0.00023731541)
(-0.0037250425 0.015676852 0.0013231269)
(-0.0036316389 0.010944282 0.0028376333)
(-0.0025931389 0.0014730025 0.0019937825)
(0.0024430931 0.011532979 -0.002728206)
(0.0025584467 0.016610828 -0.0024049981)
(0.0021852994 0.019255554 0.00060847545)
(0.0038018818 0.019023802 0.0042431491)
(0.0045679924 0.017746968 0.0034235522)
(0.0023728327 0.017414779 0.0010320092)
(-0.0016582283 0.017288017 -0.00015127265)
(-0.0032156644 0.015980111 0.00056959083)
(-0.0032938578 0.01616226 0.0037976721)
(-0.0024981241 0.013701231 0.0047409486)
(0.0006576824 0.0039036742 0.0011708545)
(0.0041004315 0.015939693 0.0046689707)
(-0.0026234932 0.018299762 0.002008134)
(-0.005545208 0.01686068 -0.00070034632)
(-0.0031831992 0.0050441529 4.3970711e-05)
(0.001228042 0.00055914435 -0.00098512088)
(0.004048427 0.01228432 0.00043313679)
(0.0056818614 0.017825538 0.00099839513)
(-0.0052726227 0.018452071 0.0024363202)
(-0.0072455632 0.015074158 0.0028284235)
(-0.0033608787 0.0042020837 0.0005862661)
(-0.00226439 0.010910378 0.002872424)
(0.00010675162 -0.00040008688 0.0011858113)
(0.0030121465 0.00053854382 0.0011513748)
(0.005585797 0.010609603 0.0032571759)
(0.005405177 0.015680549 0.003407602)
(0.0025647861 0.017337557 0.0025687761)
(-0.0013801468 -0.0010955364 0.0032350088)
(0.0042134063 -0.014206485 0.0054664695)
(-0.0039628934 -0.014471117 0.0052725248)
(-0.0041038771 -0.012982184 0.0032749294)
(-0.00083172096 -0.0080005721 -0.00040216559)
(0.0022167348 -0.0098407515 -0.0046707947)
(0.0010305446 -0.015107868 -0.0049811465)
(0.0017544222 -0.0041651045 -0.0028043787)
(0.0017068409 0.001336341 -0.0012228636)
(0.0010165697 0.0023376657 -0.00022520774)
(0.0017923013 -0.0016263557 0.0015916781)
(0.00059821684 -0.0058240572 -0.0016500264)
(0.0029725884 -0.013807579 -0.0039788775)
(-8.8298552e-05 -0.013854243 -0.0032203968)
(0.00028090833 -0.0087241266 0.00031530657)
(-0.0011038928 0.0048688665 0.00089321612)
(0.00035409566 -0.01109675 0.0033018193)
(-0.00034557137 -0.013568084 0.0031531887)
(0.00022297019 -0.014057863 -0.00013309476)
(-0.0036416438 -0.01464122 0.0018804093)
(0.0019185211 0.00097995184 0.0011742416)
(-0.0027393265 0.0065675369 0.00029633547)
(0.0041263924 -0.013846845 -0.0035187102)
(-0.00094731501 -0.016147003 -0.0031232438)
(-0.00085157557 -0.0136367 -0.0014705144)
(0.0017180967 -0.014360081 -0.0022773654)
(0.00030365376 -0.014836646 -0.0017135265)
(-0.0036151724 -0.013021184 -0.0036470572)
(-0.0011399058 -0.0022561475 -0.0015625066)
(-0.00042023759 0.0038133946 0.00027485342)
(0.0021070625 0.0073852695 0.0013816844)
(0.0043662194 0.011239801 0.00095617589)
(-0.001565738 0.010824306 -0.00020514448)
(0.0014087914 -0.0003631085 0.0017045784)
(-0.0013221159 0.0027957121 -0.0014364454)
(0.0037091331 0.010272485 -0.0028689275)
(-0.002283159 0.012737907 -0.0014467154)
(-0.0022987026 0.0085417583 -0.0029094943)
(0.00022409173 0.0086849957 -0.0018531693)
(0.0017091361 0.0085985676 0.00088660091)
(0.0036022984 0.0077939679 0.0015406575)
(0.0034680259 0.0078101654 -8.701863e-05)
(0.0016499426 0.0079513283 -0.0025616434)
(0.00092848155 0.0015941203 -0.00080348163)
(-0.0012582248 0.0096733259 0.00033149431)
(0.0010550781 0.0081570745 0.00082216119)
(0.0015982783 0.010750572 0.0035646554)
(-0.00066256155 0.00048116389 0.0019306088)
(-7.0405803e-05 -0.0023011656 -0.00058530167)
(-0.0019443514 0.010123121 0.0010792963)
(-0.0028971098 0.0077553048 0.0019875381)
(0.00096585131 0.0092238431 -0.00023945194)
(0.0051709394 0.010635879 -0.0022332494)
(-4.2752408e-05 0.011416028 0.0010967791)
(0.00073396569 0.0013764868 -0.0006012377)
(-0.00092857405 -0.0052419912 -0.00044371931)
(0.00035631766 0.0071524496 0.0025590296)
(-0.0043902197 0.0091120125 -0.001162042)
(-0.0035734393 0.0070144203 -0.0019397379)
(-0.0017250867 0.0086274451 -0.00041461264)
(-0.00014088036 -0.0056749175 0.0029544828)
(0.0026714731 -0.0043080881 0.0026565536)
(0.0042357864 -0.0067611558 0.0020935712)
(0.0043791696 -0.0094794727 0.0018871096)
(-0.0054511219 -0.0085294589 -0.00098690299)
(-0.0042681175 -0.00386537 -0.00142983)
(-0.0031839573 -0.0018908787 -0.0010721483)
(-0.0012982746 -0.0038074365 -0.0019472582)
(-0.00084674163 5.8251315e-05 -0.001604775)
(0.0022884658 0.0012821021 4.472979e-05)
(0.0040893365 -0.00074733309 0.00019717415)
(0.0048474364 -0.0038488739 0.00057383005)
(0.0046704167 -0.0091208982 -0.00078277682)
(0.0018893363 -0.0089962918 -0.0028766634)
(-0.0018553198 -0.0074866685 -0.0026694985)
(0.00063287428 -0.00014405729 -0.00018878845)
(0.0022622892 -0.0033213739 0.0017371417)
(0.0044481591 -0.0079228663 0.002011336)
(-0.0050938132 -0.0093942729 -0.001678248)
(-0.0053843225 -0.0076357658 -0.0012493879)
(-0.0036596384 -0.0015222656 -0.0002896373)
(-3.5888803e-05 0.0014999785 -0.0023257693)
(0.0037291422 -0.0041887551 -0.0031327838)
(0.0052621228 -0.0056746519 -0.0032599492)
(0.0068555732 -0.009078427 -0.0043514732)
(-0.00025988172 -0.010297322 -0.0035534027)
(-0.0058095536 -0.0085485796 -0.0040002186)
(-0.0042471507 -0.0036564096 -0.0028965451)
(-0.0032865232 -0.0022997053 -0.0030443458)
(-0.0018063253 0.00050631518 -0.0023053302)
(-0.0015023309 -0.015610179 -3.9272902e-06)
(-0.003901532 -0.014391995 0.0012122786)
(-0.0023563809 -0.012590025 0.001678277)
(0.0007703886 -0.01241848 -0.0016177992)
(0.0021831656 -0.013830053 -0.0026640505)
(0.0014160811 -0.016639159 -0.0038486185)
(0.0015275947 -0.017564953 -0.0041619699)
(0.0012716105 -0.018419029 -0.0039362365)
(-0.00064508487 -0.017124858 -0.0034417948)
(-0.0018441586 -0.013366446 -0.0029246714)
(-0.00019376796 -0.010463317 -0.0026558715)
(0.0021673201 -0.014928792 -0.0026876271)
(-0.0010343145 -0.016342322 9.7199307e-05)
(-0.0011310989 -0.014682013 0.001658454)
(-0.001714159 -0.016109077 0.0013010817)
(-0.0030586982 -0.014914067 0.00064155541)
(-0.0032574048 -0.014023813 -0.00053252141)
(-0.0019693721 -0.011041272 -0.00037332116)
(0.0017123091 -0.010848907 0.00012006988)
(0.0028444365 -0.01485329 -0.00041653734)
(0.0021865062 -0.015695824 0.0004627459)
(0.00094054581 -0.017334229 0.0013797052)
(-0.00037930618 -0.014831726 0.0017335975)
(-0.0015747877 -0.015821979 0.002704487)
(-0.00085518484 -0.01660421 0.0013628579)
(0.00032322337 -0.014975447 0.0043181336)
(0.0012020102 -0.016371568 0.0036371464)
(0.0015397704 -0.015291915 0.0022965763)
(0.0012300403 -0.016349621 0.00048641152)
(0.00013220853 -0.015449786 0.00010968298)
(-0.0042608078 0.017007209 0.0024558568)
(-0.0056246263 0.01261151 0.00360566)
(-0.0010597932 -0.0014791157 0.0027353948)
(-0.00042998966 -0.00094444165 0.00042950638)
(0.0039419972 0.0095108794 -0.0028246748)
(0.0041530814 0.015887162 -0.0050358228)
(0.0048763715 0.017945315 -0.0049794297)
(0.0055824764 0.019458151 -0.0044041066)
(-0.0015307109 0.018511256 -0.0038961939)
(-0.0047204068 0.013755156 -0.003698585)
(-0.0015379298 0.0016202807 -0.0015784776)
(0.0040704393 0.015714346 -0.0037996452)
(0.0012195848 0.018033643 -0.00023019079)
(5.5768697e-06 0.01643847 0.0026043944)
(-0.0014134488 0.017941494 0.0015939319)
(-0.0048726182 0.01681504 -0.00099528027)
(-0.0040557695 0.012233781 -0.0014282686)
(-0.00091510538 0.0014672545 -0.00061136531)
(0.0029326343 0.00082113002 -0.00044994464)
(0.0060570138 0.012132598 -0.0010860726)
(0.0067698529 0.017153091 1.7309865e-05)
(-0.00040866209 0.018681207 0.0020220669)
(-0.0057686699 0.017385288 0.0037342868)
(-0.0051563486 0.016999354 0.0044111216)
(-0.0023888078 0.017283793 0.0028458859)
(0.0014728566 0.015145223 0.0053101327)
(0.0040124522 0.016381042 0.005191138)
(0.0053350523 0.017065479 0.0045210877)
(0.0033454373 0.017907947 0.0022677557)
(5.4970374e-05 0.017158362 -0.0013279027)
(-0.0014178551 0.00023418173 0.0018055767)
(0.0054273362 -0.013833953 0.0027217145)
(0.0028454564 -0.014806074 0.0022202323)
(-0.0036718977 -0.013991749 0.0034142236)
(-0.0026794067 -0.01430862 0.0014547619)
(0.00098284771 -0.012196681 -0.00076421497)
(0.0019459604 -0.011412386 -0.0011330541)
(0.003937353 0.00052523368 -0.0027185798)
(0.0015269562 0.0044756277 -0.0023337656)
(0.0045349643 -0.0075164266 0.0013262213)
(-0.0010363441 -0.014089795 0.0020454505)
(-0.0035969108 -0.012401953 0.0021345394)
(0.0017303076 -0.0025904687 0.00042593466)
(-0.00011346328 -0.0058003907 -0.00028291922)
(0.00081913764 1.3139248e-05 0.0016399303)
(0.0017298149 -0.0043322192 0.0010194317)
(0.0026827676 -0.014993298 0.003317914)
(0.0013360139 -0.013949166 0.0014995164)
(0.00071751068 -0.013893652 -2.1652255e-05)
(-0.0037001475 -0.014574769 0.00023442256)
(0.00055622735 0.0021905717 0.0013530561)
(-0.00073572688 0.0068887928 0.00060035798)
(-0.0018007083 0.0024188859 -0.00062592011)
(0.00028558348 -0.016033668 -0.004267337)
(-0.0035846483 -0.016693351 -0.00091714977)
(0.00018070247 -0.014611522 -0.0027813509)
(-0.00028197872 -0.016626745 -0.0048037268)
(0.00073136089 -0.0006504034 -0.00043912619)
(0.0012430865 0.0034834807 -0.00029145398)
(0.00058948238 0.0013944283 -0.0011166487)
(0.0023384129 0.0075943673 0.0007974168)
(0.0046451335 0.0085284373 -4.9380848e-05)
(0.0029254061 0.0092023344 -0.00091393011)
(0.0023311441 0.0056359814 -4.0080787e-05)
(0.0028460393 -0.00089523115 -0.00012320298)
(0.0027036915 0.0014536876 -0.0019362044)
(0.0015028652 0.0092693219 -0.0032947567)
(0.00020946829 0.0086309774 -0.0027895974)
(0.0025094508 0.009132279 -0.0020518576)
(0.0039656453 0.0092232611 0.00019711545)
(0.0015895197 0.0099803202 0.00080538661)
(-0.00068432611 0.0028519532 0.0017296574)
(0.00072419482 0.0048848679 0.0015406674)
(0.0019587675 0.0084101206 -0.00033511899)
(0.0006879585 0.007915963 -0.00026343498)
(0.0040122416 0.0079511957 0.0022325491)
(0.0024598269 0.010385358 0.00055614554)
(0.0021778577 -0.00053203442 0.0012072779)
(0.0016026017 -0.00014983408 0.00014485407)
(-0.0028122212 0.010272003 0.00053706987)
(-0.003361124 0.0076399035 0.0023580478)
(0.00026277862 0.010849137 0.00020059944)
(0.0028356001 0.0081352558 -0.0027509679)
(0.0050254879 0.011546057 -0.0029840591)
(-0.002793037 0.011014128 0.00033895399)
(-0.00021331293 0.0010616409 -0.00081172563)
(-0.0037419548 0.010654941 -0.00071000038)
(-0.0031204022 0.0079897509 -0.0018135242)
(-0.00073523628 0.0092591727 -0.00073055505)
(-0.00019768871 0.0082068337 0.0009743851)
(0.001313355 -0.0061257646 -0.00026331484)
(0.0030640475 -0.0096864733 0.00076827064)
(0.0043336659 -0.010849689 0.00062940616)
(0.0050214932 -0.01129159 -0.00029065546)
(0.0029952919 -0.011595614 0.0003010367)
(-0.0040921521 -0.0087920349 0.0013090814)
(-0.0031568805 -0.0046278283 0.0013503263)
(-0.002277943 0.00018751715 -0.00058314667)
(0.00074245229 0.0010534963 0.00016022232)
(0.0020970049 -0.0024190106 0.0018217265)
(0.0038610784 -0.0050644778 0.0026538098)
(0.0049014629 -0.009021896 0.0023568679)
(-0.00017304473 -0.0089489356 -0.0010225981)
(0.00060798976 -0.0024090338 -0.0023221684)
(0.0017879542 -0.0011754759 -0.00090816665)
(0.0028038825 -0.0056576887 5.1521917e-05)
(0.0034402492 -0.0083571703 0.0014771018)
(0.0033944626 -0.0099876032 0.0015663264)
(-0.0058255694 -0.0073004092 -0.00089564448)
(-0.0050786609 -0.0040119966 -0.00043825826)
(-0.0040320588 -0.00033536297 2.0172457e-05)
(-0.00014148388 0.003851472 -0.00080783183)
(0.0032579398 -0.00065867032 -0.0027453454)
(0.0047851199 -0.0038796861 -0.0028517643)
(0.0061787214 -0.0083974292 -0.0038556618)
(0.0023382921 -0.011287918 -0.0035642486)
(-0.0047889051 -0.0081359613 -0.00081761602)
(-0.0028560225 -0.0011223175 -0.0018968993)
(-0.0022465751 0.0015269183 -0.001210179)
(-0.00029367769 0.0001748516 -0.0016515004)
(-0.0012638886 -0.015186595 0.00080618342)
(-0.0035354349 -0.013864647 0.0015467069)
(-0.0037649743 -0.012558706 0.0025504286)
(-0.0011115321 -0.012710227 0.0011473257)
(0.00047602887 -0.01237329 -0.0014727462)
(0.0015049177 -0.011931111 -0.0019002415)
(0.0028246879 -0.011639656 -0.0019657265)
(0.0017738715 -0.016392291 -0.0017802546)
(-0.0017097849 -0.017160746 -0.0016967038)
(-0.0017066745 -0.011491458 -0.0018352149)
(-2.9909834e-05 -0.011778874 -0.00050351477)
(0.0029524784 -0.010027654 0.00090302001)
(0.0026700998 -0.013593963 0.00071525004)
(0.00045347241 -0.016328614 -0.0010463118)
(-0.0010892071 -0.015533379 -0.00084997135)
(-0.0035522044 -0.013275485 -0.00025623024)
(-0.0024393231 -0.011448724 -0.0002401361)
(0.001006537 -0.012002379 0.00084953307)
(0.0019034576 -0.011914052 0.001735925)
(0.0033900307 -0.013246462 0.00013583528)
(0.0036530295 -0.014410787 -0.00036977303)
(0.0023086086 -0.016241454 -0.00013125986)
(0.0014222863 -0.017500383 -0.00073055063)
(0.00033991115 -0.016140045 -0.00069029331)
(-0.00035435818 -0.017185415 -0.0036405113)
(0.00078179215 -0.016813772 -0.0019702819)
(0.00042375377 -0.015749544 -0.0020801033)
(0.0013580712 -0.016791323 -0.0033655404)
(0.00070740274 -0.016018262 -0.0028614127)
(-3.9859146e-05 -0.01326656 -0.0036944181)
(-0.003648211 0.017048829 0.0031487018)
(-0.0055035084 0.015293229 0.0041858629)
(-0.0039216728 0.0084921456 0.0039837228)
(-0.00070537458 0.0002287437 0.00026705618)
(0.00046809436 0.0043714913 -0.0011334531)
(0.0034559177 0.0014873236 -0.0017062765)
(0.004124232 0.0040618082 -0.0017586738)
(0.0052951944 0.016374847 -0.0015729608)
(-0.0054557954 0.017253701 -0.0022035444)
(-0.0034700048 0.0060749488 -0.0010001963)
(-0.00083214111 -0.00070121181 -0.0009977064)
(0.0021605118 -0.00047784043 0.0023233516)
(0.0048748859 0.014479163 0.0015456355)
(0.0026786151 0.01811836 0.00085674417)
(-0.0047062018 0.017456354 7.6814526e-05)
(-0.0062724935 0.014100276 0.00028065643)
(-0.0012920254 0.001010695 0.00090700153)
(0.0011031501 0.0017804942 0.00080749639)
(0.0043235997 0.0034178775 0.0012057089)
(0.0059337871 0.0074841242 -0.00066778857)
(0.008319263 0.015084033 -0.0014842294)
(0.0062085082 0.017828037 -0.00085091057)
(-0.0014183521 0.018908066 -0.00068626706)
(-0.00453729 0.018369486 -0.00076720639)
(-0.003620911 0.017248526 -0.0034066778)
(0.00059895012 0.018086995 -0.0036774733)
(0.0030389479 0.01757397 -0.0019881327)
(0.0037203257 0.018493536 -0.0039505224)
(-0.00092528193 0.017906224 -0.0050119253)
(-0.0012565971 0.014158641 -0.005066789)
(-0.00079459034 0.0038002947 0.00073424519)
(0.0031092011 -0.0055038023 0.0001965832)
(0.0050076939 -0.012294575 -0.0012938201)
(0.0020222408 -0.014611358 -0.0028590678)
(-0.0014343366 -0.013018485 -0.00010658909)
(0.002254109 -0.013718698 -0.00022631695)
(-0.0014760097 -0.013248728 -0.00095076416)
(0.00239264 -0.00088168906 0.0015134813)
(-0.0005425841 -0.00115374 0.00091128253)
(0.0020077644 -0.012832323 0.0039267938)
(-0.00082863206 -0.01327675 0.00014374515)
(-0.0010797766 -0.014155509 0.0030184319)
(-0.0047771303 -0.012963286 0.00095432343)
(0.0011492035 0.0048246671 0.0015156522)
(-0.0017597347 0.0029910132 0.0011278384)
(0.0053171355 -0.013257362 0.0026829204)
(0.0027840473 -0.014567053 0.0027259355)
(0.00088392377 -0.013554527 0.00066889775)
(0.0030103284 -0.013395448 0.00036769523)
(-0.00060443844 -0.014843716 0.00038896287)
(-0.0012343099 -0.0056063557 0.00039916448)
(0.0014825666 0.0053001117 0.0010831204)
(-0.00018046722 0.0072048231 -0.00069677964)
(-0.00047775736 -0.00031487364 0.001492534)
(-0.0014449714 -0.018092037 0.0043107671)
(-0.0027011126 -0.01620311 0.0039173764)
(-0.0011052162 -0.0076082929 0.00059478835)
(0.0021596773 0.0027129105 -0.002667322)
(0.00041146504 0.0039352911 -0.0017821258)
(0.0020553585 -0.013968397 0.0057059635)
(0.0016985716 0.0084532002 0.00050079805)
(0.0047415493 0.0077271613 -0.001106077)
(0.0041095831 0.0093818799 -0.00088397801)
(0.0013050966 0.01117614 0.0012726366)
(0.0015607549 0.0029992336 -0.0014382984)
(0.0033555934 -0.0028301187 -0.0026494065)
(0.00027385078 0.00023984163 -0.0016917286)
(0.00067009328 0.0075851163 -0.00063623254)
(0.00017597421 0.0079546052 0.0022390477)
(0.0009072237 0.0035351569 0.00093564945)
(-0.0017400224 -0.0017255901 -0.00073500233)
(0.00089256515 0.0046961347 0.0016986006)
(-0.0038039883 0.010020556 0.0016768848)
(-0.0021959296 0.0082962132 0.00044471917)
(0.0014482347 0.0075929088 0.001186254)
(0.0041404692 0.0096845059 0.0025364105)
(0.0010406776 0.0068609491 0.0011610524)
(0.0026677071 -0.0023128006 0.0017350543)
(0.0011966931 -0.00036311501 0.0025442563)
(-0.0012213726 0.0094217499 0.0004647714)
(-0.0043675855 0.0076125155 0.0032051573)
(-0.00078914156 0.0095273318 0.00088532923)
(0.0014061911 0.010942938 -0.0013633662)
(0.0039725431 0.0077789203 0.00030648659)
(0.0030215436 0.012192157 3.1142888e-05)
(-0.0041687199 0.01060442 0.001207254)
(-0.0021600607 0.0016177383 0.00079135484)
(2.6591749e-05 0.0082884237 -0.0011868309)
(0.0026433588 0.0092910219 0.0011490279)
(0.0040305177 0.011886692 0.0040021118)
(0.0019806498 0.00034251301 -0.0019455585)
(0.0037884592 -0.0043304777 -0.0031150501)
(0.0050161671 -0.0070282509 -0.0034043019)
(0.0064329359 -0.0081672342 -0.0034250678)
(0.0062684844 -0.0098307152 -0.0038474795)
(0.0036737832 -0.01054771 -0.0034142015)
(-0.003057943 -0.0073411147 0.0016575732)
(-0.0017617744 -0.00077939993 0.0013339227)
(-1.3099956e-05 8.8640811e-05 0.0024140665)
(0.0024697356 -0.0071051049 0.0024865387)
(-0.0032414575 -0.0093790222 -0.0010789413)
(-0.0050741063 -0.0072749525 -0.0014798873)
(-0.003700527 -0.0025959927 -0.00042229595)
(-0.0011484156 0.0014127955 -6.7899056e-05)
(0.0020177544 -0.00091572909 0.00077075914)
(0.003762415 -0.0052133253 0.00081845248)
(0.0051084438 -0.0093335391 0.0014055028)
(0.0029959159 -0.010478366 0.0017382612)
(-0.0062587526 -0.0074742212 0.0010432191)
(-0.0055528803 -0.0049693467 0.00061416394)
(-0.0047250612 -0.0023964748 0.0012057367)
(-0.0024257343 0.0025952547 0.0011917247)
(0.0024279316 0.0038731897 -0.0011496613)
(0.0042704652 -0.0018373228 -0.00043855969)
(0.004437931 -0.0027058752 -0.00022197689)
(0.0061024061 -0.0081014491 0.00020590398)
(0.0013841345 -0.0105582 0.0030060658)
(-0.0035243247 -0.0034265415 0.0026168408)
(-0.0013130199 -0.00036861001 0.0030442769)
(-0.00021812354 -0.0029270234 0.0032801083)
(-0.00064835501 -0.015920728 0.001183031)
(-0.0019749466 -0.015575108 0.00079995702)
(-0.002321491 -0.015014182 0.0019371191)
(-0.0025790204 -0.013782214 0.0019667428)
(-0.0023088732 -0.010594325 0.00085136145)
(0.00035211703 -0.011035643 0.00057279859)
(0.0021380846 -0.013866216 0.00182642)
(-0.00030682351 -0.017469639 0.00051125911)
(-0.0023832494 -0.016756607 -0.0012165593)
(-0.00057274657 -0.01209264 -0.0010107038)
(0.0025773521 -0.012974793 0.0008147101)
(0.0029665903 -0.015294313 0.0016567164)
(0.0017489947 -0.016309368 0.0011396953)
(0.0019558903 -0.011999128 0.0020210143)
(-0.00042311854 -0.016321434 0.0032895332)
(0.0010171562 -0.012990145 8.5117246e-05)
(0.0025294802 -0.015929945 -0.00097007322)
(0.0010948041 -0.01687108 -0.0011088745)
(-0.0015344246 -0.01649691 -0.0013012616)
(-0.0034961416 -0.013329347 -0.001525966)
(-0.0024814938 -0.0119911 -0.0016724109)
(0.00034759866 -0.012219513 -0.0012907381)
(0.00083544566 -0.012164565 -0.002963313)
(0.0020160053 -0.016003094 -0.0038812255)
(-0.00200683 -0.01483996 -0.0038713588)
(-0.0016413854 -0.011899031 -0.0018116832)
(-0.0017359089 0.017336115 0.00057301158)
(-0.0035204667 0.017512245 0.00046856888)
(-0.0041919083 0.016995319 0.0018743088)
(-0.0046802671 0.014357936 0.0036771832)
(-0.0012079366 0.0019296787 -0.00097544917)
(0.00024527101 -0.00098883387 -0.00069491948)
(0.0049209365 0.010235918 0.0010078948)
(-0.00037446049 0.018601499 -0.0018738041)
(-0.006592064 0.015233936 -0.0036142843)
(-0.0011127981 0.00081761148 -0.0014673616)
(0.0013684886 0.006092403 -0.00012892657)
(0.0058160456 0.015499783 0.0023859737)
(0.0050078618 0.017731552 0.0021076539)
(0.001472823 0.0055422564 0.00082211988)
(0.0017650178 0.016758064 0.0030480224)
(0.0037265501 0.0050141994 -0.00064161263)
(0.0068720896 0.013821274 -0.0023677415)
(0.0060014346 0.018199927 -0.001666109)
(-0.0062139926 0.01792827 -0.0018202664)
(-0.0070870188 0.013515061 -0.0013927179)
(-0.0021855115 -0.00049880427 0.00020926157)
(-0.00051821539 0.0045740611 -0.00031200832)
(0.0023952583 0.0066854469 -0.0019519434)
(0.0040523701 0.016074417 -0.0050613411)
(-0.0025957757 0.016621711 -0.004903941)
(0.0012723403 -0.00065933713 0.0011540884)
(0.00052031149 0.0025842958 -0.00032541539)
(0.0012998888 0.0035692028 -0.0010852295)
(0.00035253095 0.00094561272 -0.0017279159)
(0.0030328675 -0.012490982 -0.0060300104)
(0.002091026 -0.01388163 -0.0047386476)
(-0.00055463255 -0.013931103 -0.0025791333)
(-0.0014568683 -0.012982421 -0.0026055983)
(0.0011547512 0.0051808568 -0.00069620749)
(0.0031083572 -0.012280851 0.0011816347)
(0.0020734072 -0.015358442 -0.00027202535)
(-0.0043332663 -0.015065081 -0.0021314691)
(-0.0033211212 -0.010107611 -0.0033153219)
(0.0022064082 0.0041788979 -2.3191454e-05)
(-0.00093364444 -0.013529293 -0.0020790463)
(0.0040045499 -0.01337516 -0.00084221478)
(0.0026160237 -0.016269337 -0.00023632128)
(-0.005470411 -0.015052705 0.0021045897)
(0.0039392151 0.0052806053 -0.00010886833)
(-0.0030097701 0.0054512422 -3.0482789e-05)
(0.0056123465 -0.012107306 0.0031616356)
(0.0013462847 -0.015806229 0.0033307822)
(-0.0027426617 -0.014179061 0.0014300095)
(-0.00094239533 -0.013731391 0.0021928045)
(0.0021767512 -0.0083229891 0.00054059424)
(0.0043579865 -0.011221646 0.00077582937)
(0.0037446478 -0.014968123 0.0024078411)
(0.0011348496 0.0091001665 0.00015369471)
(0.0026667995 0.0086852628 -0.00015593991)
(0.0039366402 0.0071008986 -0.00036147746)
(0.0035954081 0.0089072453 -0.0017704748)
(0.0010174399 0.0048995681 -0.0024729509)
(0.001651807 0.00027790645 -0.00060885611)
(-0.0029762672 0.00073194936 -0.0016248859)
(0.0012903039 0.0064248632 0.0014840976)
(0.0045403269 0.010969551 -2.1114226e-06)