/*--------------------------------*- C++ -*----------------------------------*\
| =========                 |                                                 |
| \\      /  F ield         | OpenFOAM: The Open Source CFD Toolbox           |
|  \\    /   O peration     | Version:  v2012                                 |
|   \\  /    A nd           | Website:  www.openfoam.com                      |
|    \\/     M anipulation  |                                                 |
\*---------------------------------------------------------------------------*/
FoamFile
{
    version     2.0;
    format      ascii;
    class       volScalarField;
    location    "220/topAir";
    object      T;
}
// * * * * * * * * * * * * * * * * * * * * * * * * * * * * * * * * * * * * * //

dimensions      [0 0 0 1 0 0 0];


internalField   nonuniform List<scalar> 
1200
(
319.39224
337.40159
353.7102
368.74121
382.85773
396.29831
409.19476
421.54936
433.06631
443.69213
453.36669
461.96764
469.22449
471.713
472.59551
471.7493
469.33656
465.83818
461.89253
458.04744
454.63968
451.8229
449.64488
448.11778
447.26845
447.15903
447.92143
449.83603
453.48058
459.55816
300.41871
301.21087
302.29861
303.63498
305.18607
306.92681
308.83409
310.89298
313.66347
317.38975
322.54793
329.74903
339.31256
350.45849
362.15428
373.01363
382.04252
388.94251
393.89734
397.20495
399.18206
400.20864
400.68902
401.01294
401.55054
402.68208
404.88175
408.89624
416.08331
427.74445
300.00932
300.03568
300.08466
300.16107
300.26907
300.41228
300.59369
300.81601
301.09491
301.45065
301.92667
303.05068
306.28015
312.8765
322.8566
334.90944
347.61606
359.41422
369.57031
377.83467
384.21176
388.89887
392.22235
394.56643
396.32207
397.86844
399.60611
402.0663
406.20669
413.47375
300.00023
300.00109
300.00319
300.0073
300.0144
300.02571
300.04263
300.06686
300.10081
300.14814
300.21626
300.34244
300.70358
302.56456
309.02414
319.88115
332.05673
343.70834
354.22529
363.42247
371.20379
377.55233
382.57034
386.46425
389.49559
391.94324
394.09486
396.30487
399.17819
403.73992
319.39142
337.20901
353.14254
367.6177
380.97379
393.40091
404.97803
415.69337
425.44187
434.01887
441.16473
446.56287
449.85355
447.27835
442.88179
437.29393
431.3198
425.83047
421.42021
418.17696
415.86447
414.21043
413.04
412.31359
412.11791
412.59219
413.97265
416.7643
422.02453
430.14948
300.41823
301.19561
302.24208
303.50207
304.93274
306.49867
308.16558
309.89431
311.64277
313.34897
314.94799
316.35519
317.48057
318.18848
318.49673
318.61603
318.82791
319.45101
320.62316
322.23794
324.14159
326.2826
328.66977
331.3516
334.39444
337.85642
341.76297
346.0821
350.92822
360.1806
300.00929
300.03495
300.08139
300.15195
300.24899
300.37405
300.52775
300.70956
300.91783
301.14902
301.39739
301.66731
301.98644
302.36929
302.89089
304.10379
306.40096
310.21849
315.366
320.97505
326.36622
331.76538
337.22669
342.6892
348.13308
353.50961
359.26892
365.64122
372.73559
380.88565
300.00022
300.00106
300.00302
300.00673
300.01293
300.02244
300.03619
300.05514
300.08032
300.11291
300.15464
300.2112
300.31419
300.69088
302.33805
307.00476
315.46475
326.24803
337.32871
347.74476
356.96854
364.42378
370.3216
375.20218
379.41768
383.22273
386.43949
389.28878
392.16758
395.46216
319.39402
337.25016
353.23588
367.77635
381.21731
393.75884
405.5012
416.48736
426.71328
436.11406
444.548
451.81324
457.54135
456.88398
453.9417
448.29512
440.14242
430.85085
421.9524
414.30123
408.16043
403.43479
399.93286
397.56784
396.49927
396.67001
398.06037
400.84739
406.12046
418.12365
300.41837
301.19856
302.25006
303.51645
304.95505
306.53199
308.21695
309.97984
311.78752
313.59849
315.35736
316.99068
318.39575
319.35132
319.70312
319.34958
318.59217
318.16347
318.49754
319.65279
321.50035
323.92552
326.9367
330.62351
335.057
340.22523
346.09837
352.55762
360.23871
370.81091
300.00929
300.03507
300.08177
300.15267
300.25002
300.37525
300.52896
300.71089
300.91963
301.15229
301.40349
301.66386
301.91826
302.14239
302.31329
302.51841
303.56112
306.2893
310.19093
314.75248
319.55884
324.54678
330.07971
336.50862
343.84194
351.66177
359.52782
366.93382
373.78253
381.81485
300.00022
300.00107
300.00304
300.00676
300.01296
300.02242
300.03601
300.05459
300.07905
300.11023
300.14895
300.19599
300.25306
300.33038
300.50076
301.2233
304.96989
312.87297
321.92402
332.99557
344.15581
353.63075
361.15039
367.17162
372.19227
376.57601
380.43687
383.82769
387.18165
392.70831
319.39758
337.26857
353.28584
367.87858
381.40483
394.08782
406.06472
417.42861
428.24707
438.5692
448.43224
457.84232
466.65889
469.28288
470.70276
470.28371
468.60951
467.24952
466.76811
466.55178
466.0318
465.01002
463.51295
461.74473
459.80616
458.0656
457.91111
461.90786
469.08963
478.01326
300.41848
301.19978
302.25461
303.52756
304.97766
306.5742
308.29241
310.11117
312.01132
313.97287
315.97114
317.97024
319.90432
321.52278
322.5813
322.83935
322.89768
323.45119
324.4539
325.75256
327.4352
329.61114
332.44356
336.11817
340.75519
346.44801
353.26413
360.7742
377.08916
408.17672
300.0093
300.03513
300.08201
300.15336
300.25157
300.37836
300.53479
300.72139
300.93811
301.18415
301.4574
301.75307
302.06026
302.35084
302.57785
302.86631
305.14264
309.17796
312.69214
316.0213
320.24483
325.4341
332.09845
340.3072
349.57742
359.46779
370.44232
378.78001
384.79619
401.28408
300.00023
300.00107
300.00305
300.0068
300.01306
300.02265
300.03647
300.05545
300.08061
300.11298
300.15367
300.20383
300.26484
300.34079
300.48506
301.52402
311.96853
326.69389
336.31898
334.05534
342.764
350.9456
357.67692
363.46792
368.74087
374.14706
382.59073
390.62091
397.84916
406.60095
319.39753
337.27223
353.29715
367.90151
381.44435
394.15122
406.16249
417.57526
428.46413
438.88795
448.87697
458.43498
467.31434
468.68658
468.75361
467.24891
466.68481
469.14589
473.5529
478.12415
482.65923
486.96932
490.87158
494.19984
496.84003
498.83631
500.57173
502.92786
507.18039
515.23383
300.41849
301.2002
302.2563
303.53171
304.98583
306.58856
308.3161
310.14881
312.06972
314.06205
316.10544
318.21617
320.48448
322.11698
323.08203
323.25905
324.02807
325.34962
327.08089
330.01938
333.4488
337.1578
341.57628
347.62161
356.18236
367.66305
382.3324
400.88174
424.69694
456.90213
300.0093
300.03515
300.08212
300.15367
300.25228
300.37975
300.53731
300.72569
300.9452
301.19558
301.47554
301.78232
302.10879
302.4137
302.64335
303.22864
307.58723
310.83613
313.05362
315.36725
318.78137
324.18672
332.2517
342.56728
353.65834
362.86411
369.68994
380.62105
399.26986
428.54292
300.00023
300.00107
300.00305
300.00682
300.01311
300.02277
300.03671
300.05592
300.08145
300.11446
300.15623
300.20828
300.27279
300.35783
300.588
303.06253
333.03797
345.09283
348.25871
350.13859
352.90299
357.54137
362.72688
368.22173
373.94522
379.72871
385.23283
387.92061
400.36968
419.43125
319.39443
337.26611
353.28849
367.89036
381.43016
394.13307
406.139
417.54425
428.42379
438.83728
448.81974
458.38641
467.27094
468.50523
468.31679
466.56129
465.97786
468.52538
472.97081
477.58609
482.17065
486.53555
490.50002
493.90348
496.63477
498.70997
500.46604
502.81549
507.17603
515.42345
300.41843
301.20001
302.25593
303.53113
304.98498
306.58734
308.31439
310.1464
312.06628
314.05711
316.09784
318.18121
320.33788
321.9425
322.84881
323.01386
323.86559
325.23417
326.92908
329.6808
332.77589
336.01187
339.87469
345.37614
353.48803
364.75143
379.50591
398.48299
423.07172
456.38475
300.0093
300.03514
300.0821
300.15364
300.25224
300.37969
300.53722
300.72556
300.94502
301.19529
301.47503
301.78071
302.10279
302.4004
302.6265
303.39466
307.78383
310.88979
313.01712
315.3333
318.84097
324.44887
332.73004
343.14684
354.06476
363.06078
369.77993
380.31431
398.97794
429.21877
300.00023
300.00107
300.00305
300.00682
300.01311
300.02277
300.03671
300.05592
300.08145
300.11447
300.15626
300.20835
300.27301
300.36067
300.64045
303.96464
338.82269
346.44482
349.26871
351.2364
353.98998
358.37481
363.18711
368.16759
373.18439
378.20339
383.48006
388.26748
400.86193
422.15767
319.39097
337.25571
353.26728
367.85395
381.37314
394.04792
406.01509
417.36746
428.17553
438.48627
448.32942
457.70827
466.44197
468.93043
470.09674
469.34071
467.58854
466.47235
466.29358
466.32536
465.98892
465.08227
463.64951
461.91764
460.09055
458.39898
457.8253
461.25301
469.38577
478.75246
300.41834
301.19938
302.25385
303.52635
304.97589
306.57171
308.28896
310.10642
312.00484
313.96413
315.9585
317.94945
319.86387
321.44419
322.43264
322.61675
322.76718
323.46142
324.54096
325.87782
327.55253
329.68653
332.45258
336.0381
340.53923
345.98302
352.53587
360.22834
375.23108
406.68885
300.00929
300.03511
300.08198
300.15331
300.25149
300.37823
300.53461
300.72113
300.93771
301.18358
301.45651
301.75142
302.05653
302.34199
302.56101
302.90731
305.63176
309.71034
313.03621
316.3152
320.44723
325.68965
332.43689
340.58412
349.45709
358.34186
368.01057
377.96529
384.84519
401.60102
300.00023
300.00107
300.00305
300.0068
300.01306
300.02265
300.03646
300.05544
300.08059
300.11297
300.15367
300.20386
300.26497
300.34205
300.50581
301.83948
314.71243
330.26749
336.77662
335.1605
343.03718
351.16933
357.58139
363.08082
368.02147
372.80292
379.88145
391.28764
401.0747
412.22274
319.38475
337.23265
353.21066
367.7434
381.17645
393.71003
405.44421
416.42039
426.63598
436.027
444.45755
451.71552
457.42372
456.71493
453.66004
447.81955
439.50545
430.20963
421.38155
413.83549
407.82295
403.24743
399.91435
397.7377
396.77254
396.95876
398.26288
400.93261
406.19954
418.61003
300.41817
301.198
302.24903
303.51484
304.95278
306.52895
308.213
309.97475
311.78094
313.5898
315.34573
316.97402
318.36964
319.30616
319.62128
319.21505
318.46236
318.11613
318.53746
319.75894
321.64687
324.09215
327.10356
330.76022
335.11386
340.13958
345.81249
352.18754
359.8028
370.52279
300.00929
300.03506
300.08174
300.15261
300.24992
300.3751
300.52876
300.71061
300.91926
301.15177
301.40274
301.66266
301.91594
302.13737
302.30296
302.51722
303.73011
306.65973
310.6004
315.1368
319.88921
324.84314
330.35189
336.69417
343.80184
351.30531
358.80293
366.36145
373.44747
382.04055
300.00022
300.00107
300.00304
300.00676
300.01295
300.02242
300.036
300.05458
300.07904
300.11023
300.14896
300.19604
300.25317
300.33054
300.50215
301.27545
305.61298
313.99156
322.67507
333.48283
344.3542
353.62616
361.007
366.93277
371.87518
376.18009
379.9637
383.39636
386.96917
394.07214
319.38062
337.18868
353.11384
367.58154
380.93123
393.35339
404.92687
415.64076
425.38906
433.9666
441.11425
446.51382
449.80284
447.21467
442.77681
437.09672
430.99349
425.39584
420.91809
417.64648
415.33785
413.71577
412.60573
411.96318
411.85015
412.38306
413.7769
416.53824
421.80014
430.08437
300.418
301.19497
302.24092
303.50032
304.93037
306.49571
308.16205
309.89027
311.63829
313.34365
314.94175
316.34807
317.47162
318.17427
318.46858
318.56199
318.75455
319.39169
320.60047
322.25797
324.19969
326.3696
328.77652
331.46561
334.49691
337.91894
341.76101
346.02297
350.81836
359.67499
300.00928
300.03493
300.08134
300.15188
300.24888
300.37391
300.52758
300.70937
300.91764
301.14884
301.39731
301.6678
301.98839
302.37241
302.8904
304.10132
306.44115
310.3741
315.61363
321.27575
326.6613
331.97212
337.30704
342.63485
347.9619
353.23049
358.87712
365.12809
372.11285
380.17085
300.00022
300.00106
300.00302
300.00673
300.01292
300.02244
300.03619
300.05514
300.08033
300.11294
300.1547
300.21137
300.31463
300.692
302.33289
306.9649
315.37
326.09931
337.14222
347.54338
356.75668
364.23892
370.14823
375.02934
379.22993
383.00067
386.19112
389.03109
391.89154
395.16545
319.38078
337.38038
353.68107
368.70615
382.81913
396.25891
409.15766
421.51785
433.04479
443.68129
453.36618
461.97565
469.23743
471.72488
472.5951
471.71764
469.25194
465.69054
461.68501
457.79128
454.3505
451.5205
449.35212
447.85631
447.05147
446.98692
447.7796
449.70222
453.34495
459.42259
300.41847
301.21019
302.29739
303.63321
305.18378
306.92411
308.83114
310.88998
313.66044
317.39664
322.5802
329.81779
339.42155
350.59393
362.28915
373.1209
382.11598
388.99967
393.95169
397.25297
399.21032
400.20521
400.64935
400.93547
401.42615
402.48279
404.56091
408.40662
415.40986
427.2032
300.00931
300.03567
300.08462
300.161
300.26897
300.41215
300.59354
300.81587
301.09487
301.45107
301.92859
303.06614
306.32487
312.95107
322.94339
334.97609
347.63821
359.39651
369.53041
377.78402
384.1527
388.82778
392.13546
394.4621
396.19816
397.71694
399.4088
401.79456
405.82589
413.04301
300.00023
300.00109
300.00319
300.0073
300.0144
300.0257
300.04263
300.06686
300.10083
300.14821
300.21646
300.34327
300.70636
302.58031
309.03983
319.85348
331.96836
343.56834
354.0601
363.25189
371.03535
377.38639
382.40511
386.29841
389.32852
391.77286
393.91551
396.1046
398.93456
403.44383
)
;

boundaryField
{
    maxY
    {
        type            zeroGradient;
    }
    minX
    {
        type            fixedValue;
        value           uniform 300;
    }
    maxX
    {
        type            inletOutlet;
        inletValue      uniform 300;
        value           nonuniform List<scalar> 
40
(
459.5251
427.71142
413.45244
403.71907
430.10315
360.17097
380.87024
395.43064
418.09751
370.82722
381.91264
392.89624
477.97262
408.06976
401.17151
406.56213
515.20498
456.92869
428.33785
418.91301
515.57291
456.68112
429.23426
421.86341
478.91738
406.84735
401.38732
412.14963
418.7586
370.51473
381.97578
394.03361
430.12275
359.6776
380.1449
395.16105
459.44396
427.226
413.06276
403.45191
)
;
    }
    minZ
    {
        type            zeroGradient;
    }
    maxZ
    {
        type            zeroGradient;
    }
    topAir_to_rightSolid
    {
        type            compressible::turbulentTemperatureCoupledBaffleMixed;
        refValue        nonuniform List<scalar> 
130
(
698.39242
704.98819
711.82726
718.57187
724.94895
730.80055
736.00096
740.47042
744.18693
747.14894
749.36177
750.8332
751.56944
693.53437
701.26755
709.09842
716.62794
723.59931
729.87183
735.36292
740.03684
743.89111
746.94682
749.21974
750.72835
751.48391
683.70636
694.04891
704.01462
713.13691
721.23144
728.26101
734.26993
739.29496
743.39106
746.60235
748.97794
750.54665
751.3299
668.86686
684.15699
697.55192
708.9351
718.49439
726.47318
733.08116
738.4951
742.85399
746.23505
748.71377
750.34236
751.15181
651.16967
674.64513
692.13468
705.70017
716.49318
725.20106
732.25338
737.94806
742.48197
745.98064
748.5345
750.20801
751.03746
651.10664
674.51871
691.98447
705.54865
716.35075
725.06723
732.13589
737.85426
742.4164
745.94456
748.52051
750.20924
751.04775
668.7694
683.9414
697.25391
708.59755
718.17135
726.18779
732.83755
738.303
742.7178
746.16505
748.69398
750.35484
751.1803
683.72416
693.95152
703.81114
712.86122
720.93253
727.97379
734.00727
739.08292
743.25141
746.5472
748.97751
750.57839
751.37716
693.72212
701.34283
709.07698
716.51595
723.42597
729.67687
735.17332
739.88921
743.8135
746.94915
749.27895
750.81601
751.57808
698.68495
705.18684
711.92402
718.56309
724.86896
730.6857
735.88112
740.3854
744.16235
747.1942
749.45486
750.9527
751.69718
)
;
        refGradient     uniform 0;
        valueFraction   uniform 0.99967867;
        value           nonuniform List<scalar> 
130
(
698.31769
704.91007
711.7457
718.48706
724.86118
730.7102
735.90845
740.3762
744.09148
747.05278
749.26552
750.73764
751.4756
693.44834
701.17762
709.00493
716.53129
723.49989
729.77001
735.2591
739.93146
743.78464
746.83982
749.1129
750.62271
751.38064
683.62511
693.96148
703.92152
713.03891
721.12931
728.1555
734.16173
739.1848
743.27964
746.49035
748.86606
750.43596
751.22282
668.80208
684.08713
697.4777
708.85705
718.41294
726.38868
732.99396
738.40553
742.76245
746.14238
748.62158
750.25194
751.06403
651.11118
674.58052
692.06591
705.62849
716.41943
725.12575
732.17688
737.87058
742.40367
745.90177
748.45555
750.1299
750.96168
651.04797
674.45394
691.91557
705.47687
716.27691
724.99186
732.05935
737.77676
742.33811
745.8657
748.44159
750.13118
750.97208
668.7044
683.87147
697.17971
708.51961
718.09003
726.10344
732.75051
738.21362
742.62648
746.07245
748.6017
750.26461
751.09282
683.6427
693.86394
703.71796
712.76321
720.83045
727.86838
733.89922
738.97293
743.14014
746.43529
748.86568
750.46775
751.27028
693.63589
701.25272
708.98333
716.41916
723.32645
729.57498
735.06946
739.7838
743.707
746.84209
749.17204
750.7103
751.47479
698.61008
705.1086
711.84235
718.47819
724.78112
730.5953
735.78857
740.29115
744.06686
747.09799
749.35854
750.85708
751.60327
)
;
        Tnbr            T;
        thicknessLayers List<scalar> 0();
        kappaLayers     List<scalar> 0();
        kappaMethod     fluidThermo;
        kappa           none;
        alphaAni        none;
        alpha           none;
        field           T;
    }
    topAir_to_heater
    {
        type            compressible::turbulentTemperatureCoupledBaffleMixed;
        refValue        nonuniform List<scalar> 
40
(
682.58256
684.30725
687.67339
692.47485
674.66363
676.69361
680.70931
686.47287
657.92459
660.59124
665.97502
673.89055
630.59492
633.96503
641.23121
652.94671
590.55268
593.48959
601.52599
617.88987
590.66083
593.57179
601.56798
617.88426
630.97754
634.26273
641.39892
652.97471
658.36279
660.96866
666.2343
674.03031
675.05118
677.07051
681.0528
686.75224
682.94245
684.67332
688.0499
692.83307
)
;
        refGradient     uniform 0;
        valueFraction   uniform 0.99967867;
        value           nonuniform List<scalar> 
40
(
682.5148
684.23922
687.60401
692.40315
674.59056
676.61847
680.63108
686.39088
657.85999
660.52484
665.90507
673.81544
630.54309
633.91257
641.17628
652.88748
590.51352
593.44951
601.48284
617.84129
590.62158
593.53154
601.5246
617.83545
630.92547
634.20998
641.34364
652.91514
658.29799
660.90204
666.16411
673.95495
674.97797
676.99522
680.9744
686.67005
682.87458
684.60517
687.98039
692.76122
)
;
        Tnbr            T;
        thicknessLayers List<scalar> 0();
        kappaLayers     List<scalar> 0();
        kappaMethod     fluidThermo;
        kappa           none;
        alphaAni        none;
        alpha           none;
        field           T;
    }
    topAir_to_leftSolid
    {
        type            compressible::turbulentTemperatureCoupledBaffleMixed;
        refValue        nonuniform List<scalar> 
130
(
774.95627
774.92026
774.83835
774.70808
774.53229
774.31892
774.07491
773.80133
773.50257
773.21466
772.95901
772.7654
772.65742
775.03951
775.0072
774.93159
774.80858
774.63599
774.41979
774.17245
773.88864
773.56552
773.23319
772.9336
772.71003
772.58724
775.1432
775.10998
775.03558
774.91359
774.73619
774.50948
774.23428
773.91018
773.55877
773.20695
772.8508
772.60505
772.46379
775.22846
775.18478
775.09831
774.95666
774.76288
774.52112
774.22632
773.87503
773.48766
773.12242
772.79087
772.53941
772.36606
775.23786
775.18514
775.08044
774.92635
774.72035
774.46568
774.15959
773.79701
773.3963
773.03678
772.72033
772.45545
772.27245
775.16147
775.10689
775.01214
774.86178
774.64802
774.38127
774.05899
773.67432
773.28763
772.95266
772.67033
772.44658
772.30453
775.06531
775.01676
774.93295
774.77916
774.566
774.30896
774.00172
773.64098
773.3108
773.02827
772.79086
772.61917
772.52239
774.91438
774.88413
774.80428
774.67273
774.48844
774.26589
774.00167
773.70358
773.41356
773.16551
772.96262
772.81937
772.74276
774.77285
774.74575
774.67409
774.55995
774.40973
774.23419
774.01994
773.77653
773.52414
773.28283
773.07476
772.92489
772.84575
774.67333
774.65212
774.59081
774.49351
774.36534
774.21004
774.03247
773.83407
773.60147
773.37788
773.17386
773.01193
772.91578
)
;
        refGradient     uniform 0;
        valueFraction   uniform 0.99967867;
        value           nonuniform List<scalar> 
130
(
774.80989
774.77967
774.70303
774.57763
774.40643
774.19746
773.95767
773.68815
773.39318
773.10878
772.85632
772.66553
772.55992
774.8931
774.86652
774.79606
774.67773
774.5095
774.29735
774.05382
773.77354
773.45366
773.12419
772.82699
772.60523
772.48353
774.99675
774.96928
774.90005
774.78277
774.60975
774.38713
774.1158
773.79533
773.44732
773.09863
772.7453
772.50197
772.3626
775.08199
775.04406
774.96277
774.82585
774.63648
774.39888
774.10802
773.7605
773.37673
773.01492
772.68664
772.43829
772.26783
775.09138
775.04443
774.94491
774.79556
774.59398
774.34348
774.04134
773.68255
773.28547
772.92941
772.61627
772.35454
772.17446
775.01502
774.9662
774.87663
774.731
774.52167
774.25908
773.94077
773.55988
773.17682
772.8453
772.56627
772.34567
772.20651
774.91889
774.8761
774.79746
774.64841
774.43966
774.18677
773.88347
773.5265
773.1999
772.92077
772.6866
772.51798
772.42404
774.76801
774.7435
774.66881
774.54197
774.36206
774.14361
773.88324
773.58878
773.30213
773.05718
772.85706
772.71619
772.64144
774.62652
774.60515
774.53863
774.42918
774.28329
774.1118
773.90134
773.66145
773.41227
773.1738
772.96809
772.82
772.74194
774.52703
774.51161
774.45556
774.36312
774.23953
774.0886
773.91523
773.72087
773.49204
773.27194
773.0711
772.91198
772.8182
)
;
        Tnbr            T;
        thicknessLayers List<scalar> 0();
        kappaLayers     List<scalar> 0();
        kappaMethod     fluidThermo;
        kappa           none;
        alphaAni        none;
        alpha           none;
        field           T;
    }
}


// ************************************************************************* //
