/*--------------------------------*- C++ -*----------------------------------*\
| =========                 |                                                 |
| \\      /  F ield         | OpenFOAM: The Open Source CFD Toolbox           |
|  \\    /   O peration     | Version:  v2012                                 |
|   \\  /    A nd           | Website:  www.openfoam.com                      |
|    \\/     M anipulation  |                                                 |
\*---------------------------------------------------------------------------*/
FoamFile
{
    version     2.0;
    format      ascii;
    class       surfaceScalarField;
    location    "580/topAir";
    object      phi;
}
// * * * * * * * * * * * * * * * * * * * * * * * * * * * * * * * * * * * * * //

dimensions      [1 0 -1 0 0 0 0];
oriented        oriented;


internalField   nonuniform List<scalar> 
3140
(
9.5038157e-06
-3.072799e-07
7.2414767e-08
9.6893828e-06
-2.6789636e-07
8.2329147e-08
9.8661458e-06
-2.4819675e-07
7.145283e-08
1.0008137e-05
-1.957247e-07
5.375713e-08
1.0109374e-05
-1.3177014e-07
3.0559767e-08
1.0179631e-05
-7.2991511e-08
2.76093e-09
1.0253545e-05
-2.5640217e-08
-4.8257534e-08
1.035366e-05
1.6386147e-08
-1.1651604e-07
1.0489136e-05
8.0475139e-08
-2.1599389e-07
1.0683983e-05
1.6408477e-07
-3.5899294e-07
1.0933992e-05
3.1108976e-07
-5.6117039e-07
1.1210026e-05
5.598277e-07
-8.3594414e-07
1.14568e-05
9.399941e-07
-1.186876e-06
1.1684022e-05
1.3865607e-06
-1.6139199e-06
1.1859417e-05
1.8873382e-06
-2.0628987e-06
1.1963694e-05
2.3770675e-06
-2.481503e-06
1.1982578e-05
2.8111557e-06
-2.8301389e-06
1.1918044e-05
3.1601945e-06
-3.0956527e-06
1.1796794e-05
3.4045247e-06
-3.2831358e-06
1.1662157e-05
3.538259e-06
-3.4033614e-06
1.1553401e-05
3.5754818e-06
-3.4663713e-06
1.1492228e-05
3.5419152e-06
-3.4803122e-06
1.1481638e-05
3.4624186e-06
-3.4513114e-06
1.1510714e-05
3.35591e-06
-3.384327e-06
1.1557807e-05
3.2361145e-06
-3.2823092e-06
1.1581426e-05
3.1192218e-06
-3.1415643e-06
1.149575e-05
3.0342835e-06
-2.9467447e-06
1.1127194e-05
3.0400081e-06
-2.6687097e-06
1.0123078e-05
3.269306e-06
-2.2611907e-06
4.0512924e-06
-1.6641021e-06
9.1113577e-06
-2.2937692e-07
7.9708188e-08
9.0829838e-06
-3.4320222e-07
1.0368124e-07
9.0865591e-06
-3.6165465e-07
1.098847e-07
9.135854e-06
-3.5645693e-07
1.1143818e-07
9.2295605e-06
-3.3323924e-07
1.0776107e-07
9.3619994e-06
-3.0210803e-07
9.6673161e-08
9.5366181e-06
-2.7617306e-07
7.591012e-08
9.7703858e-06
-2.5981186e-07
4.2582391e-08
1.008824e-05
-2.3089403e-07
-6.1806992e-09
1.0524711e-05
-1.7280118e-07
-9.9260365e-08
1.1104407e-05
-3.3825418e-08
-2.3474098e-07
1.1816152e-05
2.7799783e-07
-4.3042489e-07
1.2560054e-05
8.9403884e-07
-6.9908729e-07
1.3212667e-05
1.7468005e-06
-1.0144343e-06
1.3699828e-05
2.7138889e-06
-1.3153654e-06
1.3958465e-05
3.6569834e-06
-1.5399442e-06
1.3979544e-05
4.4619001e-06
-1.672774e-06
1.3811015e-05
5.0860166e-06
-1.7578009e-06
1.3538185e-05
5.5178563e-06
-1.8406765e-06
1.3252223e-05
5.7639016e-06
-1.9396547e-06
1.3011044e-05
5.850986e-06
-2.034168e-06
1.2834237e-05
5.8177981e-06
-2.0987837e-06
1.27179e-05
5.6986196e-06
-2.1193689e-06
1.2646318e-05
5.517685e-06
-2.0893954e-06
1.2598593e-05
5.2869112e-06
-2.0018573e-06
1.2535272e-05
5.0235089e-06
-1.8392163e-06
1.2374299e-05
4.7674002e-06
-1.5696531e-06
1.1961374e-05
4.6108749e-06
-1.1542324e-06
1.1053735e-05
4.7409935e-06
-5.5830467e-07
5.3759335e-06
3.0675834e-07
9.1683618e-06
-2.1054537e-07
8.1767291e-08
8.9973644e-06
-2.8005335e-07
1.078482e-07
8.8118885e-06
-2.9339803e-07
1.1721888e-07
8.6242172e-06
-2.9287711e-07
1.2409096e-07
8.4467861e-06
-2.8529224e-07
1.2948325e-07
8.2848919e-06
-2.7310763e-07
1.3289257e-07
8.1355543e-06
-2.6188119e-07
1.350439e-07
7.9953191e-06
-2.5765233e-07
1.3807635e-07
7.8822984e-06
-2.6307501e-07
1.452044e-07
7.839699e-06
-2.8600399e-07
1.5580066e-07
7.9872345e-06
-3.4206189e-07
1.6066757e-07
8.4949085e-06
-3.6644439e-07
1.3639919e-07
9.418474e-06
-9.2757573e-08
6.1903737e-08
1.0630343e-05
5.6327871e-07
-3.0564174e-08
1.1705937e-05
1.6951912e-06
-5.9617943e-08
1.249193e-05
2.8240957e-06
4.4108082e-08
1.2898534e-05
3.684406e-06
3.6850409e-07
1.2997545e-05
4.3015796e-06
6.8365931e-07
1.2915547e-05
4.7105634e-06
8.8814168e-07
1.2781005e-05
4.9385297e-06
9.5926755e-07
1.2665638e-05
5.0063983e-06
9.5968848e-07
1.2580739e-05
4.9387811e-06
9.6396046e-07
1.2512639e-05
4.7724007e-06
9.9466611e-07
1.2434214e-05
4.5410833e-06
1.0557196e-06
1.2334396e-05
4.2732806e-06
1.114557e-06
1.219549e-05
3.9881685e-06
1.1758661e-06
1.1987513e-05
3.7187044e-06
1.2589678e-06
1.1668616e-05
3.5385561e-06
1.394518e-06
1.1142993e-05
3.6223579e-06
1.6492051e-06
4.333254e-06
2.0619304e-06
8.9785462e-06
7.9860832e-08
8.5937768e-06
1.0471576e-07
8.1874425e-06
1.1293598e-07
7.7764607e-06
1.1810429e-07
7.3695809e-06
1.2158726e-07
6.9731619e-06
1.2331096e-07
6.5868642e-06
1.2441605e-07
6.2021172e-06
1.2709406e-07
5.8040563e-06
1.3498509e-07
5.3646654e-06
1.5338527e-07
4.8298935e-06
1.9270531e-07
4.1902505e-06
2.7316789e-07
3.680356e-06
4.1696922e-07
3.6235008e-06
6.1870177e-07
4.3605348e-06
9.5557307e-07
5.5526049e-06
1.629272e-06
6.5664192e-06
2.6682687e-06
7.3565025e-06
3.5098757e-06
8.002965e-06
4.0631881e-06
8.5742878e-06
4.3668591e-06
9.0892787e-06
4.4914532e-06
9.5417132e-06
4.4866663e-06
9.9048707e-06
4.4097879e-06
1.0158638e-05
4.2880882e-06
1.0294382e-05
4.1385767e-06
1.0329288e-05
3.954634e-06
1.0296893e-05
3.7529001e-06
1.0299656e-05
3.5382002e-06
1.0627147e-05
3.2982598e-06
2.8816457e-06
9.6160336e-06
-3.0699773e-07
3.2329684e-08
9.9170832e-06
-2.691875e-07
5.0451265e-08
1.0197374e-05
-2.6217858e-07
5.3333505e-08
1.0430184e-05
-2.2740523e-07
4.8344183e-08
1.0608789e-05
-1.8574682e-07
3.7682779e-08
1.0745579e-05
-1.5417647e-07
2.0105498e-08
1.0844863e-05
-1.4048509e-07
-7.1422868e-09
1.0914991e-05
-1.4829831e-07
-3.8484022e-08
1.0966195e-05
-1.8345297e-07
-8.394293e-08
1.1006868e-05
-2.5262936e-07
-1.4728914e-07
1.1046872e-05
-3.6720083e-07
-2.3426927e-07
1.1098628e-05
-5.3848987e-07
-3.4957131e-07
1.1182286e-05
-7.7817007e-07
-4.9286488e-07
1.1380982e-05
-1.1520761e-06
-6.6124645e-07
1.1687988e-05
-1.5480346e-06
-8.2274607e-07
1.2050281e-05
-1.8782852e-06
-9.6637618e-07
1.2370316e-05
-2.042721e-06
-1.1081027e-06
1.2575408e-05
-2.0335923e-06
-1.2674621e-06
1.2654053e-05
-1.9179762e-06
-1.4437942e-06
1.2648169e-05
-1.7782967e-06
-1.6190028e-06
1.2610446e-05
-1.6577565e-06
-1.7706945e-06
1.2577699e-05
-1.5601214e-06
-1.8873027e-06
1.2563356e-05
-1.4766109e-06
-1.9602389e-06
1.2567761e-05
-1.4013056e-06
-1.9871902e-06
1.2594225e-05
-1.3357198e-06
-1.9724958e-06
1.2644507e-05
-1.2716697e-06
-1.9190312e-06
1.2700476e-05
-1.1860828e-06
-1.8144504e-06
1.2696902e-05
-1.0206541e-06
-1.6405481e-06
1.2503727e-05
-6.4585824e-07
-1.4155622e-06
4.227798e-07
-1.15454e-06
9.2365966e-06
-2.3095637e-07
3.6038986e-08
9.3553155e-06
-3.4734196e-07
6.3117135e-08
9.4993687e-06
-3.7110096e-07
7.4753855e-08
9.6823772e-06
-3.7663091e-07
7.7653466e-08
9.9003944e-06
-3.7048782e-07
7.4479683e-08
1.0141304e-05
-3.6250092e-07
6.4077225e-08
1.0396922e-05
-3.6434723e-07
4.4135019e-08
1.0665252e-05
-3.8623916e-07
1.2163994e-08
1.0952843e-05
-4.3925313e-07
-3.8008298e-08
1.1254923e-05
-5.4263346e-07
-1.1138975e-07
1.1586452e-05
-7.1911193e-07
-2.1444073e-07
1.1966566e-05
-9.9723097e-07
-3.5194248e-07
1.2424243e-05
-1.4161e-06
-5.1909668e-07
1.294443e-05
-1.9988017e-06
-6.882983e-07
1.3503981e-05
-2.5995915e-06
-8.2377783e-07
1.3996578e-05
-2.963521e-06
-9.4754884e-07
1.431031e-05
-2.9090851e-06
-1.1201141e-06
1.440736e-05
-2.5364909e-06
-1.3516617e-06
1.4324396e-05
-2.0653947e-06
-1.6098304e-06
1.4151158e-05
-1.6863767e-06
-1.8577961e-06
1.3960666e-05
-1.4335542e-06
-2.0672574e-06
1.3770547e-05
-1.2505618e-06
-2.2174779e-06
1.3580479e-05
-1.1153941e-06
-2.2895821e-06
1.3391244e-05
-1.0230863e-06
-2.2772349e-06
1.3239619e-05
-1.0031278e-06
-2.1815214e-06
1.3190276e-05
-1.0541793e-06
-2.0061109e-06
1.334109e-05
-1.1762524e-06
-1.7294114e-06
1.3898379e-05
-1.3798047e-06
-1.3522434e-06
1.5506742e-05
-1.7146689e-06
-1.0990018e-06
-1.9390846e-06
-1.2165652e-06
9.2960079e-06
-2.1296635e-07
3.6730045e-08
9.2753099e-06
-2.8381877e-07
6.5022527e-08
9.2416293e-06
-2.9906168e-07
7.8859797e-08
9.2070803e-06
-3.0281778e-07
8.4826191e-08
9.1822707e-06
-3.0204948e-07
8.5853587e-08
9.1704358e-06
-2.9912528e-07
8.1350426e-08
9.1712033e-06
-3.0002164e-07
6.9948668e-08
9.1844981e-06
-3.1189357e-07
5.0432961e-08
9.2111475e-06
-3.4332679e-07
2.2624639e-08
9.2553207e-06
-4.1041957e-07
-2.0592206e-08
9.3344495e-06
-5.4154339e-07
-9.604018e-08
9.4622857e-06
-7.834465e-07
-2.0524965e-07
9.6616715e-06
-1.2019024e-06
-3.5173626e-07
9.9595346e-06
-1.8315401e-06
-4.9570683e-07
1.0302841e-05
-2.4507302e-06
-5.5148787e-07
1.0589561e-05
-2.7004696e-06
-5.0491091e-07
1.0833803e-05
-2.3807809e-06
-4.0307423e-07
1.0952274e-05
-1.6816115e-06
-2.88641e-07
1.0968439e-05
-9.1705662e-07
-2.754661e-07
1.090003e-05
-2.6107534e-07
-3.9733816e-07
1.0846741e-05
7.5609139e-08
-4.9611063e-07
1.0830673e-05
2.1429267e-07
-4.847466e-07
1.0847979e-05
2.1756318e-07
-3.5506882e-07
1.0862128e-05
1.3946153e-07
-1.1961108e-07
1.0833374e-05
2.9071421e-09
1.39428e-07
1.0760661e-05
-1.8812724e-07
3.8488936e-07
1.0703071e-05
-4.999446e-07
6.4233909e-07
1.0760224e-05
-8.4174485e-07
8.0117542e-07
1.13641e-05
-1.1934997e-06
5.2599863e-07
-1.4917048e-06
-3.1457931e-07
9.100159e-06
3.568783e-08
8.858309e-06
6.2746655e-08
8.5965464e-06
7.563663e-08
8.3310629e-06
8.0769671e-08
8.0696511e-06
8.0949248e-08
7.8182207e-06
7.5615659e-08
7.5791168e-06
6.3497872e-08
7.3508841e-06
4.3432687e-08
7.1271878e-06
1.5353946e-08
6.9025907e-06
-3.2437993e-08
6.6620151e-06
-1.0826396e-07
6.3761747e-06
-2.2444234e-07
6.0150702e-06
-4.2382663e-07
5.5588215e-06
-7.5636128e-07
5.1200514e-06
-1.0552175e-06
4.9013754e-06
-8.5139301e-07
4.9460441e-06
2.4322965e-07
5.003322e-06
1.7714666e-06
5.1806571e-06
2.969776e-06
5.6109041e-06
3.6768288e-06
6.1390016e-06
4.0401177e-06
6.6600089e-06
4.1810108e-06
7.0975781e-06
4.1908299e-06
7.4226668e-06
4.1035116e-06
7.6420002e-06
3.9232472e-06
7.8012125e-06
3.6086932e-06
7.9023173e-06
3.1536024e-06
8.0134245e-06
2.5874861e-06
8.7349196e-06
1.3858e-06
-5.4027291e-07
9.5932208e-06
-3.0889724e-07
1.6957794e-08
9.8850665e-06
-2.6972025e-07
2.8320855e-08
1.0164483e-05
-2.5909609e-07
3.3024325e-08
1.039947e-05
-2.1978329e-07
3.3153384e-08
1.0580293e-05
-1.7345624e-07
3.032969e-08
1.0712498e-05
-1.3723126e-07
2.5141359e-08
1.0802863e-05
-1.1526776e-07
1.7769286e-08
1.0863293e-05
-1.0699268e-07
8.083202e-09
1.089916e-05
-1.1497723e-07
-4.8437939e-09
1.0916116e-05
-1.4571562e-07
-1.8555289e-08
1.0924661e-05
-2.0930297e-07
-3.3566519e-08
1.0942622e-05
-3.2274922e-07
-4.4919045e-08
1.1003785e-05
-5.1246798e-07
-4.1863943e-08
1.1206159e-05
-8.5408143e-07
-9.8375883e-09
1.1482421e-05
-1.1898114e-06
9.1043459e-08
1.173283e-05
-1.4357031e-06
2.2015109e-07
1.1893308e-05
-1.6027624e-06
3.3640832e-07
1.1966079e-05
-1.7575646e-06
4.2026234e-07
1.1974293e-05
-1.9194861e-06
4.7075612e-07
1.1944356e-05
-2.0820841e-06
4.9628698e-07
1.1906719e-05
-2.2396293e-06
5.0951711e-07
1.1873573e-05
-2.3755647e-06
5.2386196e-07
1.1832262e-05
-2.4663836e-06
5.4946782e-07
1.1762181e-05
-2.5025924e-06
5.8728162e-07
1.1658954e-05
-2.5002506e-06
6.3289523e-07
1.1551278e-05
-2.4953983e-06
6.8645662e-07
1.1515295e-05
-2.5148895e-06
7.3990255e-07
1.1665516e-05
-2.5238063e-06
7.3824765e-07
1.1937036e-05
-2.1954372e-06
5.159278e-07
-1.0038311e-06
-1.1374729e-07
9.2084129e-06
-2.3078425e-07
1.8481877e-08
9.3144817e-06
-3.4644031e-07
3.3769404e-08
9.4560681e-06
-3.6806381e-07
4.2136486e-08
9.6393956e-06
-3.6994094e-07
4.4483857e-08
9.8571283e-06
-3.5861601e-07
4.1904992e-08
1.0093616e-05
-3.4370642e-07
3.4059951e-08
1.0338159e-05
-3.3533916e-07
1.9655024e-08
1.0587875e-05
-3.4102183e-07
-3.5355194e-09
1.0840945e-05
-3.6993361e-07
-3.6143355e-08
1.1102372e-05
-4.3619251e-07
-8.2377883e-08
1.1385747e-05
-5.6503277e-07
-1.4216528e-07
1.1722924e-05
-8.0292848e-07
-2.0911612e-07
1.2169401e-05
-1.217708e-06
-2.6066965e-07
1.26851e-05
-1.8072527e-06
-2.5111298e-07
1.3117853e-05
-2.2495124e-06
-1.9657877e-07
1.3307008e-05
-2.3689813e-06
-2.0267504e-07
1.3240068e-05
-2.3385639e-06
-3.1644057e-07
1.3016211e-05
-2.3561123e-06
-5.2832948e-07
1.2688132e-05
-2.3905656e-06
-8.0984789e-07
1.2300858e-05
-2.436385e-06
-1.1155505e-06
1.1889629e-05
-2.5078855e-06
-1.3872446e-06
1.1459315e-05
-2.5809671e-06
-1.5812539e-06
1.0993e-05
-2.6118641e-06
-1.6770985e-06
1.0478165e-05
-2.5899251e-06
-1.6740675e-06
9.9161814e-06
-2.5578039e-06
-1.5608265e-06
9.3648049e-06
-2.6275241e-06
-1.3219832e-06
9.0821318e-06
-2.8962934e-06
-1.0661933e-06
9.5229058e-06
-3.3556321e-06
-9.6413302e-07
1.1135953e-05
-3.6059704e-06
-1.3063807e-06
-3.0659161e-06
-2.1269651e-06
9.2688472e-06
-2.1264141e-07
1.8700596e-08
9.2362496e-06
-2.8315151e-07
3.4330944e-08
9.2008372e-06
-2.973059e-07
4.3513919e-08
9.1683408e-06
-2.9948038e-07
4.6861575e-08
9.1470413e-06
-2.966104e-07
4.5146684e-08
9.1378253e-06
-2.908045e-07
3.7663538e-08
9.1372406e-06
-2.8741166e-07
2.2604357e-08
9.1421893e-06
-2.9258047e-07
-2.9593234e-09
9.1510362e-06
-3.138684e-07
-4.2290981e-08
9.1620242e-06
-3.6578936e-07
-1.0198978e-07
9.1689112e-06
-4.7974046e-07
-1.8823349e-07
9.1803344e-06
-7.1748594e-07
-3.0214718e-07
9.2437854e-06
-1.2065226e-06
-4.2639207e-07
9.3842255e-06
-1.9701695e-06
-4.7261882e-07
9.2671562e-06
-2.3010518e-06
-3.8114368e-07
8.7856323e-06
-2.0109118e-06
-3.8007135e-07
8.1022281e-06
-1.5153865e-06
-5.4266837e-07
7.6015288e-06
-1.3774893e-06
-7.6703144e-07
7.1171001e-06
-1.1022053e-06
-1.0803237e-06
6.5767794e-06
-8.7964306e-07
-1.4150906e-06
6.0038652e-06
-7.8965348e-07
-1.642999e-06
5.4463553e-06
-8.2217902e-07
-1.6874142e-06
4.9555226e-06
-9.2578149e-07
-1.551038e-06
4.5959976e-06
-1.0825466e-06
-1.2672798e-06
4.313432e-06
-1.3049819e-06
-8.298615e-07
4.096733e-06
-1.6392378e-06
-3.8568968e-07
4.2876413e-06
-2.1106834e-06
-3.3430233e-07
5.0267403e-06
-2.7786976e-06
-5.1651573e-07
6.3185469e-06
-3.1279242e-06
-1.2496057e-06
-2.4176285e-06
-2.7886418e-06
9.0737624e-06
1.8236403e-08
8.820075e-06
3.3282206e-08
8.5564797e-06
4.1925728e-08
8.292991e-06
4.4777684e-08
8.0347837e-06
4.2545779e-08
7.7851795e-06
3.4415037e-08
7.5430502e-06
1.8215087e-08
7.3034702e-06
-9.5682107e-09
7.0594637e-06
-5.4508428e-08
6.7898865e-06
-1.2865058e-07
6.4524966e-06
-2.5061426e-07
5.9675168e-06
-4.5693507e-07
5.1639129e-06
-8.2649567e-07
3.8576253e-06
-1.4172739e-06
2.3713357e-06
-1.8627218e-06
1.2585569e-06
-1.7452402e-06
1.3269334e-06
-1.3399527e-06
1.6618935e-06
5.9231596e-08
2.0859643e-06
1.4452177e-06
2.6071476e-06
2.278743e-06
3.1632686e-06
2.697046e-06
3.6618177e-06
2.8626649e-06
4.0430255e-06
2.8859729e-06
4.2485597e-06
2.8173856e-06
4.1841855e-06
2.6845258e-06
3.8733857e-06
2.2820781e-06
3.5439533e-06
1.3740008e-06
3.3425331e-06
1.0733665e-08
3.210274e-06
-1.6138821e-06
-3.8875218e-06
9.5876283e-06
-3.0915889e-07
7.4396776e-09
9.8720279e-06
-2.6928658e-07
1.3202342e-08
1.0145508e-05
-2.569054e-07
1.6460584e-08
1.0375656e-05
-2.1462359e-07
1.7643833e-08
1.0552138e-05
-1.6342068e-07
1.7286144e-08
1.0681061e-05
-1.1940997e-07
1.5644301e-08
1.0771695e-05
-8.5581786e-08
1.2729235e-08
1.0832236e-05
-6.104303e-08
8.5875565e-09
1.087003e-05
-4.6353099e-08
3.7025877e-09
1.0897039e-05
-4.4351655e-08
-1.2469099e-09
1.0934613e-05
-6.4283692e-08
-6.9385863e-09
1.1022856e-05
-1.2736912e-07
-6.0118509e-09
1.1228976e-05
-2.6021592e-07
1.1782998e-08
1.1594505e-05
-4.4461822e-07
6.9090812e-08
1.1958547e-05
-4.2250455e-07
1.5028818e-07
1.2207232e-05
-2.609139e-07
2.3429273e-07
1.2339158e-05
-1.1729127e-07
3.2468879e-07
1.2406532e-05
-7.4932055e-08
4.3158482e-07
1.2451014e-05
-1.292947e-07
5.6022094e-07
1.2505457e-05
-2.6447416e-07
7.1183327e-07
1.2585281e-05
-4.5078985e-07
8.8668937e-07
1.2673761e-05
-6.4374634e-07
1.085873e-06
1.2731605e-05
-8.0942323e-07
1.3083683e-06
1.2736045e-05
-9.4976078e-07
1.5407223e-06
1.270546e-05
-1.0828658e-06
1.7554946e-06
1.2660689e-05
-1.1659693e-06
1.9071178e-06
1.2533602e-05
-1.0529764e-06
1.9304567e-06
1.2104225e-05
-5.9064833e-07
1.7689903e-06
1.084775e-05
4.2049326e-07
1.3634887e-06
2.6720273e-06
6.3877584e-07
9.2008794e-06
-2.3060516e-07
8.0175731e-09
9.2955441e-06
-3.4586746e-07
1.5686534e-08
9.4263361e-06
-3.6641949e-07
2.0860246e-08
9.5990812e-06
-3.6614586e-07
2.3262069e-08
9.8054192e-06
-3.5091045e-07
2.3056716e-08
1.0029375e-05
-3.2939314e-07
2.0085372e-08
1.0260116e-05
-3.1047873e-07
1.3806183e-08
1.0492076e-05
-3.0032731e-07
3.7792009e-09
1.0728235e-05
-3.0681347e-07
-1.1863024e-08
1.0979584e-05
-3.451575e-07
-3.2971606e-08
1.1278346e-05
-4.4864296e-07
-5.6690029e-08
1.1696005e-05
-6.8226874e-07
-7.2156492e-08
1.2352402e-05
-1.119635e-06
-5.811228e-08
1.3137704e-05
-1.4871936e-06
6.16721e-09
1.3713376e-05
-1.284633e-06
9.0421226e-08
1.4059546e-05
-9.0778292e-07
9.8827342e-08
1.4211815e-05
-6.6259221e-07
7.7519247e-08
1.4207521e-05
-6.3273397e-07
3.476373e-08
1.4064832e-05
-7.6204635e-07
-3.3085211e-08
1.3814512e-05
-1.0023451e-06
-1.2566884e-07
1.3478599e-05
-1.2654987e-06
-2.345473e-07
1.3051843e-05
-1.4763065e-06
-3.1927647e-07
1.2496498e-05
-1.5962817e-06
-3.3148551e-07
1.1806667e-05
-1.6640756e-06
-2.6594184e-07
1.1098876e-05
-1.7840853e-06
-1.4773558e-07
1.0648994e-05
-1.9852093e-06
-4.9578332e-08
1.0623206e-05
-1.9696319e-06
-1.1974761e-07
1.0897253e-05
-1.3428792e-06
-4.800759e-07
1.1167888e-05
-7.3888648e-08
-1.0765607e-06
1.9251673e-06
-1.7854676e-06
9.2616541e-06
-2.1262629e-07
8.0282499e-09
9.2175362e-06
-2.8315818e-07
1.5739159e-08
9.1704757e-06
-2.9696959e-07
2.1124164e-08
9.1257078e-06
-2.9828252e-07
2.3765726e-08
9.0902345e-06
-2.9387732e-07
2.3586274e-08
9.0639331e-06
-2.8554447e-07
2.0115548e-08
9.0419119e-06
-2.7826952e-07
1.2415301e-08
9.0167476e-06
-2.7832082e-07
1.9659535e-10
8.9850938e-06
-2.9401078e-07
-2.3443288e-08
8.9399852e-06
-3.4430716e-07
-5.7739118e-08
8.8830095e-06
-4.7336653e-07
-1.0655465e-07
8.8535675e-06
-7.9177534e-07
-1.632444e-07
9.0329691e-06
-1.5409257e-06
-1.8441329e-07
9.4231782e-06
-2.2273652e-06
-1.2076257e-07
9.2666246e-06
-1.467527e-06
-4.0896053e-08
8.7416065e-06
-7.245391e-07
-3.9533694e-08
8.0575652e-06
-3.751643e-07
-1.4888471e-07
7.2392882e-06
-2.4571026e-07
-3.3919226e-07
6.3767686e-06
-3.9540561e-07
-5.8797825e-07
5.4689331e-06
-6.2795063e-07
-8.8536574e-07
4.5623048e-06
-8.7215834e-07
-1.1338267e-06
3.7274519e-06
-1.1081479e-06
-1.2248771e-06
2.9876745e-06
-1.3021641e-06
-1.1087542e-06
2.3755679e-06
-1.5186444e-06
-8.0300248e-07
2.030399e-06
-1.8359591e-06
-4.3434762e-07
2.3430279e-06
-2.3516801e-06
-3.3481758e-07
3.4494999e-06
-2.5264503e-06
-8.8654302e-07
5.0040532e-06
-1.7222151e-06
-1.6915885e-06
6.2692292e-06
-4.9776304e-08
-2.5364535e-06
1.3895543e-06
-3.2309391e-06
9.0667798e-06
7.7826852e-09
8.8017706e-06
1.513292e-08
8.5266025e-06
2.0123965e-08
8.250774e-06
2.2323321e-08
7.9778521e-06
2.1590066e-08
7.7093604e-06
1.7361896e-08
7.4407011e-06
8.6045677e-09
7.1600687e-06
-7.2569931e-09
6.8483363e-06
-3.6787153e-08
6.4620154e-06
-8.6637142e-08
5.9129498e-06
-1.7491325e-07
5.0045e-06
-3.4021437e-07
3.3215299e-06
-6.8363001e-07
9.1958326e-07
-1.2336689e-06
-1.1859354e-06
-1.215925e-06
-2.6162026e-06
-1.041558e-06
-3.4813272e-06
-8.5344531e-07
-3.208854e-06
-4.6186424e-07
-2.3815338e-06
2.240147e-07
-1.4606709e-06
7.331133e-07
-6.5905915e-07
1.026716e-06
-6.1243515e-08
1.159951e-06
3.0883817e-07
1.2165813e-06
4.0679313e-07
1.2035784e-06
1.4005589e-07
1.117356e-06
-5.4981666e-07
6.1792887e-07
-1.0567418e-06
-6.5177762e-07
-4.9539275e-07
-2.2793406e-06
1.4391031e-06
-3.6001486e-06
-4.3346747e-06
9.5847552e-06
-3.0956419e-07
1.1998318e-09
9.8653899e-06
-2.6984661e-07
2.4085003e-09
1.0135622e-05
-2.5740325e-07
3.6438611e-09
1.0363184e-05
-2.1484156e-07
4.9411482e-09
1.0537298e-05
-1.6315205e-07
6.345924e-09
1.0663594e-05
-1.185703e-07
7.9432221e-09
1.0750802e-05
-8.4340685e-08
9.8844244e-09
1.080711e-05
-5.9931461e-08
1.2224384e-08
1.0841793e-05
-4.6089732e-08
1.5110183e-08
1.0870239e-05
-4.8362349e-08
1.8621453e-08
1.0922501e-05
-8.1840787e-08
2.2462361e-08
1.1065243e-05
-1.7501475e-07
2.5829032e-08
1.1385795e-05
-3.3462403e-07
2.5280264e-08
1.1825674e-05
-3.8966035e-07
1.8969235e-08
1.2191465e-05
-2.2847823e-07
1.4012998e-08
1.2443768e-05
-2.8990206e-08
1.2821601e-08
1.2617673e-05
1.3588523e-07
1.6735116e-08
1.2742854e-05
2.800923e-07
2.8194981e-08
1.2855497e-05
3.9829349e-07
5.1284346e-08
1.2988565e-05
4.93991e-07
8.6978917e-08
1.3160398e-05
5.825881e-07
1.3478604e-07
1.3355456e-05
7.0425549e-07
1.8949549e-07
1.3521313e-05
9.0526309e-07
2.4071212e-07
1.3606019e-05
1.178743e-06
2.8140703e-07
1.3565592e-05
1.4914853e-06
3.093939e-07
1.3330386e-05
1.8251887e-06
3.2300692e-07
1.276e-05
2.1907162e-06
3.1690096e-07
1.1597514e-05
2.6597348e-06
2.7923808e-07
9.4228062e-06
3.3508506e-06
1.9518192e-07
4.7028293e-06
8.9928811e-08
9.1967548e-06
-2.3069212e-07
1.3595346e-09
9.2855611e-06
-3.4604805e-07
3.0827002e-09
9.4104231e-06
-3.6651791e-07
5.1149491e-09
9.5773416e-06
-3.6597218e-07
7.4762092e-09
9.7772786e-06
-3.5025277e-07
1.0222457e-08
9.9934019e-06
-3.2810967e-07
1.350308e-08
1.0214198e-05
-3.0876103e-07
1.74312e-08
1.0435078e-05
-2.9917983e-07
2.2143e-08
1.0658004e-05
-3.0870964e-07
2.781549e-08
1.0900776e-05
-3.5887803e-07
3.4721876e-08
1.1216931e-05
-4.9712709e-07
4.2295634e-08
1.173258e-05
-8.1065938e-07
4.7498892e-08
1.2608706e-05
-1.3116133e-06
4.2336876e-08
1.3355009e-05
-1.156101e-06
2.6384194e-08
1.3903236e-05
-7.0583584e-07
1.9952799e-08
1.4314744e-05
-3.6549194e-07
2.4485574e-08
1.4629636e-05
-1.3469084e-07
3.6052458e-08
1.4849346e-05
4.6838717e-08
5.3800654e-08
1.502879e-05
1.1239387e-07
8.2348869e-08
1.521687e-05
7.687545e-08
1.1715858e-07
1.5453511e-05
-2.3683672e-08
1.5644467e-07
1.5735834e-05
-5.5688344e-08
1.8859039e-07
1.5976218e-05
1.6832367e-07
2.0135681e-07
1.607941e-05
6.5378651e-07
1.9704461e-07
1.6029211e-05
1.2486668e-06
1.8913467e-07
1.572968e-05
1.9435324e-06
1.7588223e-07
1.5030903e-05
2.6664816e-06
1.4523283e-07
1.3650762e-05
3.5319428e-06
6.4896554e-08
1.1363014e-05
4.6477072e-06
-5.5524832e-08
6.2018997e-06
-2.4763635e-07
9.2575543e-06
-2.1263625e-07
1.3786496e-09
9.2073354e-06
-2.8322174e-07
3.1314115e-09
9.1536506e-06
-2.9697266e-07
5.263332e-09
9.1017085e-06
-2.9810216e-07
7.8375e-09
9.0575189e-06
-2.9344836e-07
1.0971128e-08
9.0195074e-06
-2.8490935e-07
1.4926393e-08
8.9810399e-06
-2.7777357e-07
1.9895e-08
8.9345765e-06
-2.7880988e-07
2.6289608e-08
8.8675618e-06
-2.9973777e-07
3.4597707e-08
8.7708197e-06
-3.661999e-07
4.6318459e-08
8.650067e-06
-5.4537937e-07
6.2429459e-08
8.6184689e-06
-1.0230182e-06
8.0675789e-08
9.2199568e-06
-2.1735802e-06
7.6464392e-08
9.377608e-06
-1.4794718e-06
4.5479756e-08
9.1660923e-06
-5.708426e-07
3.4410529e-08
8.8851048e-06
-1.8570172e-07
5.9121019e-08
8.3964708e-06
1.0283012e-07
9.9753778e-08
7.7326706e-06
2.2059142e-07
1.4935632e-07
6.9220245e-06
1.2209786e-07
2.1290052e-07
5.9292703e-06
-1.0056163e-07
2.8521031e-07
4.8103844e-06
-3.675156e-07
3.2661664e-07
3.9195842e-06
-7.0299831e-07
3.0977252e-07
3.748622e-06
-9.9976577e-07
2.2891261e-07
4.5627572e-06
-1.0848002e-06
1.211313e-07
6.2566423e-06
-8.6871993e-07
-6.4006804e-09
8.094264e-06
-4.482189e-08
-1.7277836e-07
9.2604237e-06
9.3806643e-07
-3.0718413e-07
9.4667616e-06
2.1259705e-06
-4.720683e-07
8.8409869e-06
3.4233559e-06
-6.6699621e-07
4.9912473e-06
-8.3105162e-07
9.0627538e-06
1.3449624e-09
8.7916218e-06
3.0429436e-09
8.5096518e-06
5.1209899e-09
8.2262123e-06
7.66038e-09
7.9435356e-06
1.0818105e-08
7.6610044e-06
1.4983469e-08
7.3714426e-06
2.0392485e-08
7.057665e-06
2.7710466e-08
6.6827994e-06
3.8340567e-08
6.1745741e-06
5.5388654e-08
5.369977e-06
8.4310786e-08
3.8713146e-06
1.3555055e-07
7.9193168e-07
2.2421202e-07
-2.1657453e-06
2.6073343e-07
-4.0806464e-06
1.2626942e-07
-5.4003309e-06
8.7591046e-08
-6.2512336e-06
9.4549558e-08
-6.6013253e-06
1.0385881e-07
-6.3184903e-06
5.9348896e-08
-5.6506876e-06
-3.5873899e-08
-4.8543728e-06
-1.3651327e-07
-4.1429634e-06
-2.5287089e-07
-3.5513589e-06
-3.7230568e-07
-2.9639762e-06
-4.6580152e-07
-2.2321525e-06
-4.810931e-07
-1.1567847e-06
-5.0379577e-07
1.109276e-07
-9.8605005e-07
1.2458045e-06
-1.2868329e-06
2.5253811e-06
-1.4538675e-06
-1.4952869e-06
9.5848586e-06
-3.0955678e-07
-5.1508473e-09
9.8656654e-06
-2.6980629e-07
-8.5972178e-09
1.0136174e-05
-2.5733843e-07
-9.5132291e-09
1.0364181e-05
-2.1475058e-07
-8.2932883e-09
1.0539007e-05
-1.6300475e-07
-5.4450832e-09
1.0666534e-05
-1.1823682e-07
-1.312794e-09
1.0755358e-05
-8.3656137e-08
4.7610879e-09
1.0813951e-05
-5.8591327e-08
1.2280216e-08
1.0851301e-05
-4.3661848e-08
2.1501931e-08
1.0881322e-05
-4.3527652e-08
3.225926e-08
1.0932056e-05
-7.1117662e-08
4.3100997e-08
1.1062184e-05
-1.5312199e-07
4.9329479e-08
1.1354492e-05
-3.0489406e-07
3.8628822e-08
1.1793997e-05
-4.1297324e-07
-7.3426954e-09
1.2178549e-05
-2.9017601e-07
-8.1140231e-08
1.245234e-05
-9.5922356e-08
-1.6680249e-07
1.2651842e-05
6.881617e-08
-2.5329231e-07
1.2815007e-05
2.1274289e-07
-3.4940917e-07
1.2980973e-05
3.4702786e-07
-4.6345456e-07
1.3179442e-05
4.8897165e-07
-6.0234784e-07
1.3411014e-05
6.7648814e-07
-7.7543419e-07
1.3637795e-05
9.4433284e-07
-9.8422045e-07
1.3808946e-05
1.2894769e-06
-1.2231257e-06
1.3879676e-05
1.6821092e-06
-1.4753726e-06
1.3808434e-05
2.0845502e-06
-1.70864e-06
1.3521142e-05
2.4811295e-06
-1.8763121e-06
1.2860768e-05
2.8926432e-06
-1.921496e-06
1.1559102e-05
3.3533818e-06
-1.778992e-06
9.1679651e-06
3.9348243e-06
-1.3547734e-06
5.0310682e-06
-6.342385e-07
9.1968627e-06
-2.3066771e-07
-5.4234753e-09
9.2859482e-06
-3.4599064e-07
-9.8172165e-09
9.4112988e-06
-3.6640591e-07
-1.1165879e-08
9.5790438e-06
-3.6578378e-07
-9.2324749e-09
9.7804878e-06
-3.499297e-07
-4.2922951e-09
9.9989153e-06
-3.2744437e-07
4.2893737e-09
1.0222926e-05
-3.0737366e-07
1.7147058e-08
1.0448025e-05
-2.963084e-07
3.4777023e-08
1.0676713e-05
-3.0300404e-07
5.8499113e-08
1.0925613e-05
-3.4637672e-07
8.8733956e-08
1.1242503e-05
-4.6863985e-07
1.2307142e-07
1.1734871e-05
-7.4968068e-07
1.5199374e-07
1.2547394e-05
-1.2257076e-06
1.5103303e-07
1.3341692e-05
-1.2661124e-06
8.5075238e-08
1.3906584e-05
-8.4463109e-07
8.9939361e-09
1.4331478e-05
-4.7580381e-07
-2.1341013e-08
1.4677336e-05
-2.4189936e-07
-2.760144e-09
1.495483e-05
-7.8155303e-08
5.9449285e-08
1.5188644e-05
4.790512e-08
1.3633747e-07
1.5445178e-05
9.2104536e-08
2.4165072e-07
1.574282e-05
1.7045127e-07
3.4397882e-07
1.6005001e-05
4.469669e-07
3.9879817e-07
1.6178211e-05
9.070915e-07
3.8346574e-07
1.621696e-05
1.5091617e-06
3.043448e-07
1.6080824e-05
2.1853543e-06
1.9947625e-07
1.5672891e-05
2.9021886e-06
1.4046229e-07
1.4768486e-05
3.6839126e-06
2.3871026e-07
1.308818e-05
4.5357631e-06
5.4521286e-07
1.0300278e-05
5.5594294e-06
1.0913278e-06
6.9674084e-06
1.8441967e-06
9.2576831e-06
-2.1261639e-07
-5.3951728e-09
9.2077791e-06
-2.8317976e-07
-9.7757797e-09
9.1546885e-06
-2.9689098e-07
-1.1161415e-08
9.1038251e-06
-2.9795859e-07
-9.1244984e-09
9.0617708e-06
-2.9319228e-07
-3.712217e-09
9.0271439e-06
-2.8434759e-07
6.4565345e-09
8.9940063e-06
-2.7661032e-07
2.2269598e-08
8.9551438e-06
-2.7650251e-07
4.5347011e-08
8.9023778e-06
-2.9427518e-07
7.863714e-08
8.8293962e-06
-3.5282047e-07
1.2575068e-07
8.7434714e-06
-5.1010085e-07
1.8983474e-07
8.7294038e-06
-9.2175834e-07
2.6685567e-07
9.1551328e-06
-1.9038907e-06
3.2865351e-07
9.5200588e-06
-1.8695874e-06
2.8230523e-07
9.2804538e-06
-7.3587588e-07
1.6493164e-07
9.0320542e-06
-3.5032608e-07
1.831569e-07
8.6583313e-06
-4.8473792e-08
2.8189985e-07
8.1933457e-06
6.2271404e-08
4.7542937e-07
7.7275493e-06
-2.4050727e-09
7.2836125e-07
7.2511926e-06
-1.6053323e-07
1.011712e-06
6.96552e-06
-4.4373941e-07
1.2225297e-06
7.1377274e-06
-6.6601568e-07
1.2470756e-06
7.8874158e-06
-7.0392266e-07
1.0880203e-06
9.0686878e-06
-4.2326824e-07
8.7070314e-07
1.0349659e-05
1.9287081e-07
6.9818012e-07
1.1222029e-05
1.1832533e-06
6.629144e-07
1.1366409e-05
2.2214711e-06
9.9695313e-07
1.057446e-05
3.2372229e-06
1.6023593e-06
8.6176525e-06
4.4974278e-06
2.3340192e-06
6.1389221e-06
3.0492609e-06
9.0628949e-06
-5.2139703e-09
8.7920947e-06
-9.3368965e-09
8.510767e-06
-1.04426e-08
8.228556e-06
-8.0874259e-09
7.9485358e-06
-2.3543239e-09
7.6701888e-06
8.9826381e-09
7.3874752e-06
2.6495532e-08
7.0855323e-06
5.3150516e-08
6.7354213e-06
9.4175901e-08
6.2790592e-06
1.5892937e-07
5.5878792e-06
2.6538433e-07
4.3485449e-06
4.5304068e-07
1.8460538e-06
8.2141818e-07
-1.1673851e-06
1.390256e-06
-3.2552988e-06
1.4761158e-06
-4.7173054e-06
1.1997298e-06
-5.6516724e-06
9.819483e-07
-6.0364839e-06
5.5311906e-07
-5.7706177e-06
-2.0749989e-07
-5.0626149e-06
-9.0564609e-07
-4.2695604e-06
-1.3750916e-06
-3.5494721e-06
-1.6402149e-06
-2.8463113e-06
-1.7795376e-06
-1.8674276e-06
-1.867006e-06
-3.3328228e-07
-1.8172572e-06
1.339514e-06
-9.9595413e-07
2.3777449e-06
1.9237077e-07
2.6763211e-06
1.6453934e-06
2.8564617e-06
2.8584326e-06
3.5828027e-06
9.5880136e-06
-3.0908905e-07
-1.5124572e-08
9.8730313e-06
-2.6907357e-07
-2.4546234e-08
1.0147406e-05
-2.5654264e-07
-2.7331775e-08
1.0378767e-05
-2.1408868e-07
-2.5541361e-08
1.0556789e-05
-1.6268184e-07
-2.0752828e-08
1.0687489e-05
-1.1845632e-07
-1.3509425e-08
1.0780258e-05
-8.4287436e-08
-3.6652813e-09
1.0843599e-05
-5.9101952e-08
8.1072304e-09
1.0885486e-05
-4.2702183e-08
2.2405873e-08
1.0916514e-05
-3.7797277e-08
3.9165177e-08
1.0955538e-05
-5.2471133e-08
5.6793705e-08
1.1040096e-05
-1.0571189e-07
7.09655e-08
1.1232516e-05
-2.2410029e-07
7.1161336e-08
1.1590087e-05
-4.0811588e-07
4.3923463e-08
1.1961494e-05
-4.2634245e-07
-2.6393008e-08
1.2238729e-05
-2.8691791e-07
-1.5843777e-07
1.2404091e-05
-1.4237549e-07
-2.7860547e-07
1.2507652e-05
-8.5780535e-08
-3.7042078e-07
1.2587162e-05
-1.1393602e-07
-4.3327991e-07
1.2665341e-05
-2.0628283e-07
-4.7979538e-07
1.2748238e-05
-3.3849572e-07
-5.2698127e-07
1.2825997e-05
-4.838299e-07
-5.870477e-07
1.2883833e-05
-6.2884079e-07
-6.6267217e-07
1.2918687e-05
-7.7480696e-07
-7.4737611e-07
1.2941333e-05
-9.1241657e-07
-8.3198192e-07
1.2944078e-05
-9.8386998e-07
-9.0948543e-07
1.282866e-05
-8.5842838e-07
-9.6363656e-07
1.2393767e-05