/*--------------------------------*- C++ -*----------------------------------*\
| =========                 |                                                 |
| \\      /  F ield         | OpenFOAM: The Open Source CFD Toolbox           |
|  \\    /   O peration     | Version:  v2012                                 |
|   \\  /    A nd           | Website:  www.openfoam.com                      |
|    \\/     M anipulation  |                                                 |
\*---------------------------------------------------------------------------*/
FoamFile
{
    version     2.0;
    format      ascii;
    class       volScalarField;
    location    "580/topAir";
    object      rho;
}
// * * * * * * * * * * * * * * * * * * * * * * * * * * * * * * * * * * * * * //

dimensions      [1 -3 0 0 0 0 0];


internalField   nonuniform List<scalar> 
1200
(
1.0689964
0.99764165
0.940814
0.89378485
0.85353349
0.81829096
0.78707793
0.75955853
0.73569534
0.71504952
0.69740074
0.68273103
0.67143413
0.67189566
0.67572303
0.6828661
0.69243619
0.7030854
0.71352796
0.72284761
0.73053599
0.73638874
0.7403797
0.74257266
0.74307469
0.74197516
0.73926268
0.73470359
0.7276118
0.71697381
1.1565334
1.1526166
1.1473
1.1408521
1.1334706
1.1253147
1.1165284
1.1064823
1.0929641
1.0753921
1.051403
1.0202464
0.98277821
0.94529829
0.91134718
0.88319103
0.86130407
0.84541221
0.83500538
0.82931697
0.82712493
0.82698249
0.82756511
0.82783583
0.82702964
0.82448328
0.81941825
0.81069276
0.79628841
0.7748066
1.1585736
1.1584423
1.1581986
1.1578189
1.157283
1.1565741
1.1556788
1.1545689
1.1531606
1.1513596
1.14889
1.1412184
1.1211384
1.0875737
1.0457908
1.0016107
0.96067692
0.92559406
0.89741179
0.87618501
0.8611854
0.85115356
0.84466277
0.84039306
0.83724959
0.83433074
0.83082209
0.82578426
0.81762798
0.80416003
1.158618
1.1586136
1.1586031
1.1585826
1.158547
1.1584902
1.1584051
1.1582827
1.1581097
1.1578658
1.1575022
1.1567095
1.1541684
1.1404102
1.105419
1.0606722
1.0175551
0.97852768
0.94484142
0.91720467
0.89561865
0.87941163
0.86752985
0.85885891
0.85240628
0.84735287
0.84298999
0.83859053
0.83308272
0.82480196
1.069017
0.99837921
0.94272384
0.89719999
0.85878531
0.82575297
0.79713694
0.77241404
0.75140669
0.73419211
0.72110949
0.71268339
0.70980013
0.72312117
0.74125698
0.76149451
0.78013195
0.794684
0.80464688
0.81088151
0.81452567
0.81635002
0.81668709
0.81561231
0.81316621
0.80934675
0.80401387
0.79661941
0.78556907
0.76879506
1.1565362
1.1526925
1.1475761
1.1414926
1.1346763
1.1273243
1.1196324
1.1118153
1.1041279
1.0968859
1.0905147
1.0855474
1.0826212
1.082515
1.0840528
1.0846223
1.0818143
1.0754198
1.0667772
1.0572779
1.047459
1.0372831
1.0265378
1.0150004
1.0025054
0.98892844
0.97427833
0.95880607
0.94230877
0.91954336
1.1585738
1.158446
1.1582149
1.1578644
1.1573831
1.1567645
1.1560078
1.1551193
1.1541146
1.1530251
1.1519055
1.1507591
1.1496212
1.1481531
1.1435056
1.1324985
1.1129051
1.0877606
1.0620785
1.0398821
1.020588
1.0022377
0.98458873
0.96761936
0.95180306
0.93598349
0.91968929
0.90314331
0.886263
0.86892424
1.158618
1.1586138
1.158604
1.1585854
1.1585544
1.1585067
1.1584378
1.1583429
1.1582174
1.1580558
1.1578503
1.1575619
1.156914
1.1535043
1.1390493
1.1106421
1.0748152
1.0330224
0.99277686
0.95840038
0.93180314
0.91223513
0.89698548
0.88459572
0.87418896
0.8661162
0.85959684
0.85395171
0.84843666
0.84199391
1.0690246
0.99826412
0.94246674
0.8967895
0.85819619
0.82494169
0.79598205
0.77064713
0.74857294
0.72968024
0.71419024
0.70272543
0.6966769
0.70817837
0.72447366
0.74254612
0.76017996
0.77673241
0.79199792
0.8057215
0.81760292
0.82717035
0.83382824
0.83717384
0.83726173
0.83455936
0.82962027
0.82266059
0.81213396
0.79424437
1.1565361
1.1526796
1.1475401
1.1414266
1.1345716
1.1271633
1.1193746
1.1113846
1.1034107
1.0957508
1.0888533
1.0834262
1.0804673
1.0807335
1.0816891
1.080809
1.0779434
1.073687
1.0680085
1.0608219
1.0519019
1.0407853
1.0271184
1.0110423
0.99313286
0.97374158
0.95283931
0.93103989
0.90899577
0.88463106
1.1585738
1.1584454
1.1582131
1.1578608
1.1573777
1.1567575
1.1559987
1.1551065
1.1540955
1.1529983
1.1518828
1.150874
1.1500502
1.1475826
1.1371248
1.1202923
1.104379
1.0913948
1.0780603
1.0635206
1.0466418
1.0261212
1.0020965
0.97638596
0.9515131
0.92892795
0.90834928
0.89017646
0.8716255
0.85036205
1.158618
1.1586138
1.1586039
1.1585853
1.1585542
1.1585066
1.1584382
1.1583445
1.1582212
1.1580641
1.1578682
1.1575958
1.1566015
1.1467502
1.1071264
1.060121
1.0340827
1.0330241
1.0087092
0.978873
0.9526614
0.93187939
0.91519673
0.90142307
0.88972433
0.87989521
0.87158042
0.86404772
0.84991008
0.82601091
1.0690187
0.99820941
0.9423143
0.89648784
0.85766702
0.82405715
0.79454419
0.76838623
0.74510682
0.72446286
0.70653046
0.69191567
0.68201058
0.68802935
0.69307048
0.69485446
0.69417475
0.69291276
0.69268987
0.69458998
0.6989806
0.70540178
0.71292109
0.72075037
0.72838662
0.73481295
0.73779695
0.73420943
0.72262854
0.70704081
1.1565358
1.152674
1.1475181
1.1413717
1.1344585
1.1269507
1.1189951
1.1107334
1.1023355
1.0940602
1.0863811
1.0801768
1.0765991
1.0747325
1.0708726
1.0654672
1.0594328
1.053352
1.0473422
1.0409373
1.0332207
1.0232074
1.0104433
0.99522883
0.97805106
0.95886646
0.93882508
0.91822715
0.88822974
0.82960136
1.1585738
1.1584452
1.1582119
1.1578572
1.1573694
1.1567404
1.1559662
1.1550478
1.1539953
1.1528389
1.1516563
1.1506091
1.1494396
1.1410468
1.1221049
1.1079579
1.0985342
1.090787
1.0809873
1.0667305
1.0467481
1.0206785
0.99016866
0.95902217
0.93027769
0.90404754
0.8845333
0.86900587
0.85237059
0.82701224
1.158618
1.1586137
1.1586039
1.1585851
1.1585536
1.1585053
1.1584354
1.158339
1.1582108
1.1580449
1.1578301
1.1574339
1.154435
1.1182957
1.0312554
0.99263139
0.98943717
0.99035283
0.98954916
0.97365774
0.9548575
0.93723813
0.92041923
0.90692174
0.89424758
0.87889517
0.86428402
0.84821747
0.82662194
0.80793085
1.0690171
0.99819213
0.94226962
0.89640786
0.85754325
0.82387893
0.7943035
0.76808285
0.74475338
0.72413914
0.70650042
0.69274965
0.68412497
0.6906738
0.69332961
0.69173856
0.68886241
0.68454578
0.67954616
0.67446838
0.66985125
0.6661431
0.66364203
0.66246537
0.6625256
0.66341166
0.66419565
0.66343305
0.65935737
0.65012614
1.1565357
1.1526718
1.1475094
1.1413507
1.134418
1.1268815
1.1188869
1.1105781
1.1021362
1.0938678
1.0863844
1.0808096
1.0779612
1.073559
1.0674915
1.060597
1.0486226
1.0321852
1.0133054
0.99331313
0.97308213
0.95215268
0.92879489
0.90317316
0.87615471
0.8488831
0.82184955
0.79437921
0.76441153
0.72811797
1.1585738
1.158445
1.1582113
1.1578556
1.1573656
1.1567329
1.1559529
1.155026
1.1539635
1.1528022
1.1516445
1.1506678
1.1483953
1.1291016
1.1148965
1.10654
1.1009841
1.0945737
1.0866323
1.0753275
1.0565163
1.0277801
0.99193845
0.95701262
0.92958864
0.90754278
0.88379986
0.85604212
0.82196637
0.77964278
1.158618
1.1586137
1.1586038
1.1585849
1.1585533
1.1585046
1.1584339
1.1583361
1.1582051
1.158034
1.1577999
1.157138
1.1489112
1.0390643
0.97833569
0.96717321
0.96213189
0.95629523
0.94847447
0.94044683
0.9311188
0.92045132
0.90958559
0.89952958
0.89016693
0.88112443
0.87412913
0.85256268
0.82464947
0.79070059
1.0690161
0.99819045
0.9422673
0.89640507
0.85753981
0.8238725
0.79429009
0.76805476
0.74469687
0.72401902
0.70621997
0.69213011
0.68308502
0.69018036
0.69385747
0.69310022
0.68984126
0.68514432
0.67972299
0.67411343
0.66878765
0.6641659
0.66058906
0.65827502
0.65723408
0.65712424
0.65708265
0.65568257
0.65108059
0.64128599
1.1565356
1.1526717
1.1475094
1.1413509
1.1344187
1.1268828
1.1188878
1.1105752
1.1021204
1.0938123
1.0862196
1.0803972
1.0772876
1.0736625
1.0680618
1.0614019
1.0515248
1.0363263
1.0172071
0.99492678
0.96923775
0.93984713
0.90740545
0.87362133
0.84054832
0.80964235
0.78124949
0.75461138
0.72795415
0.69782091
1.1585738
1.158445
1.1582113
1.1578556
1.1573658
1.1567333
1.1559536
1.1550273
1.1539647
1.1528005
1.1516297
1.1506266
1.1488123
1.1330996
1.1173161
1.1071765
1.101647
1.0962726
1.0892373
1.0775275
1.0585035
1.0322922
1.0020571
0.97125437
0.93916862
0.90472923
0.86880013
0.83144234
0.79152423
0.74686297
1.158618
1.1586137
1.1586038
1.158585
1.1585533
1.1585046
1.1584341
1.1583364
1.158206
1.158036
1.1578065
1.1572345
1.1512648
1.0751074
0.98743682
0.97258336
0.96610938
0.96079004
0.95446457
0.94770934
0.93749619
0.92606754
0.91510104
0.9056887
0.89844295
0.88904276
0.87347379
0.84679125
0.81048664
0.76831856
1.0690156
0.99820349
0.9423047
0.8964736
0.85764754
0.8240305
0.79450605
0.76833068
0.74501241
0.72428917
0.70619377
0.69125122
0.6807892
0.68620313
0.69120033
0.69313668
0.69239605
0.69072465
0.68962634
0.69005325
0.69244111
0.69672774
0.70257974
0.70957421
0.71703823
0.72357102
0.7266241
0.72318041
0.71279443
0.69735896
1.1565357
1.1526738
1.147518
1.141372
1.1344597
1.1269529
1.1189976
1.1107342
1.1023255
1.094014
1.0862418
1.0798312
1.0759075
1.0739986
1.0706416
1.0655827
1.0597691
1.0537676
1.0476353
1.0409721
1.0330381
1.0231619
1.0111416
0.9972631
0.98171441
0.96425258
0.94481057
0.92331802
0.88681293
0.82286332
1.1585738
1.1584452
1.1582119
1.1578574
1.1573698
1.1567413
1.1559679
1.1550509
1.1539998
1.1528432
1.1516538
1.1505824
1.1494637
1.1429929
1.1262257
1.11169
1.1018331
1.0942738
1.0853332
1.0728154
1.0554912
1.0331001
1.006986
0.97913075
0.95002922
0.92073606
0.89455833
0.87234755
0.84870862
0.8152406
1.158618
1.1586137
1.1586039
1.1585851
1.1585537
1.1585054
1.1584358
1.1583398
1.1582124
1.158048
1.1578359
1.157459
1.1549876
1.1280492
1.0566449
0.99985513
0.99491703
0.99568497
0.99528681
0.97822876
0.95726432
0.93785488
0.92053236
0.90551167
0.89004392
0.87464523
0.85903814
0.84225987
0.81842449
0.79527112
1.0690199
0.99825487
0.9424525
0.8967704
0.8581751
0.82491977
0.79595073
0.77060991
0.74853125
0.72960811
0.71402182
0.70232835
0.69582252
0.70646777
0.72194898
0.73953383
0.75706588
0.77370648
0.78905387
0.80282139
0.81485419
0.82494458
0.83271871
0.83774285
0.8397264
0.83867401
0.83476336
0.82805114
0.81702567
0.79861199
1.1565359
1.1526793
1.1475399
1.1414271
1.1345741
1.1271692
1.1193845
1.1113974
1.1034205
1.0957336
1.0887647
1.083181
1.0799304
1.079844
1.0808921
1.0804912
1.0782046
1.0744882
1.0693253
1.0626611
1.0543981
1.0441982
1.0316454
1.0165371
0.99892084
0.97900954
0.95716769
0.93421741
0.91025071
0.88303687
1.1585738
1.1584454
1.1582132
1.157861
1.1573784
1.156759
1.1560018
1.1551116
1.1541029
1.1530075
1.1518884
1.1508635
1.1500162
1.14794
1.1394819
1.1243171
1.1088856
1.0959238
1.0828458
1.0687938
1.0531543
1.0346899
1.0128621
0.98819544
0.96170328
0.9353126
0.91109535
0.890038
0.86840701
0.8432251
1.158618
1.1586138
1.1586039
1.1585853
1.1585543
1.1585068
1.1584387
1.1583457
1.1582234
1.158068
1.1578747
1.157608
1.1567174
1.1489382
1.1174947
1.0714921
1.0446102
1.040304
1.0170898
0.98572439
0.95697353
0.9342629
0.9163126
0.90167876
0.88919869
0.87854647
0.86953064
0.86123871
0.84464585
0.81511902
1.0690151
0.99837391
0.94271377
0.8971844
0.85876454
0.82573061
0.79712791
0.77242478
0.75143325
0.73423054
0.72112264
0.71258238
0.70943787
0.72223642
0.73984093
0.75983414
0.77867082
0.79367979
0.80403865
0.81041211
0.8139927
0.81570688
0.81609297
0.81539122
0.81365673
0.81077108
0.80642249
0.79993976
0.78962956
0.7723421
1.1565362
1.1526923
1.1475763
1.1414942
1.134681
1.1273345
1.119652
1.1118456
1.1041616
1.0969129
1.0905057
1.0854522
1.0823623
1.0820417
1.0835438
1.0844517
1.0822891
1.076506
1.0682311
1.0588891
1.0492173
1.039239
1.0287685
1.0175009
1.0051233
0.99140613
0.9763442
0.96017418
0.94265517
0.92074463
1.1585738
1.158446
1.158215
1.1578647
1.1573841
1.1567669
1.1560127
1.155128
1.1541284
1.1530439
1.1519274
1.1507726
1.1496062
1.1482312
1.144245
1.1344584
1.1163108
1.091962
1.0660653
1.0426985
1.0228087
1.0036819
0.98523551
0.96769924
0.95153002
0.93570606
0.91921372
0.90226052
0.88491952
0.86677277
1.158618
1.1586138
1.158604
1.1585855
1.1585545
1.158507
1.1584386
1.1583446
1.1582206
1.1580616
1.1578604
1.157581
1.1569801
1.1540308
1.1418101
1.1159216
1.0817929
1.0405951
1.0000203
0.96441527
0.93586714
0.91506806
0.89900181
0.88607788
0.87512553
0.86622444
0.85908667
0.85294202
0.84696377
0.83916832
1.0689972
0.99764224
0.94081334
0.89378362
0.85353611
0.81830597
0.78712495
0.75965978
0.7358519
0.71525956
0.69765253
0.68299863
0.67166367
0.67195467
0.6755283
0.68239308
0.69174483
0.70226977
0.71265205
0.72192417
0.72955516
0.73535498
0.73934574
0.74164769
0.74239282
0.74164832
0.7393464
0.73518724
0.72840836
0.71781103
1.1565334
1.1526167
1.147301
1.1408553
1.1334785
1.1253307
1.1165544
1.1064023
1.0927643
1.0749787
1.0507532
1.0197251
0.98260662
0.94555357
0.9119941
0.88418181
0.86257655
0.84679691
0.83623075
0.83013435
0.82742976
0.82680932
0.82705756
0.82719009
0.8264184
0.82401773
0.8191691
0.81071319
0.79659789
0.7752687
1.1585736
1.1584423
1.1581988
1.1578194
1.1572843
1.156577
1.1556844
1.1545753
1.1531659
1.1513602
1.1488757
1.1408651
1.1207989
1.087909
1.0469722
1.0036227
0.96327557
0.92849684
0.90028253
0.87869327
0.86311195
0.85242438
0.84532651
0.84057486
0.83709558
0.83396855
0.83034771
0.82527328
0.81715632
0.80380213
1.158618
1.1586136
1.1586032
1.1585826
1.1585471
1.1584906
1.1584061
1.1582847
1.1581134
1.1578728
1.1575165
1.1567479
1.1544068
1.1417844
1.1091804
1.0656648
1.022791
0.98369228
0.9496985
0.92147239
0.89907873
0.88199398
0.86928678
0.85990645
0.85287902
0.84737013
0.84264555
0.83795014
0.83219369
0.82373278
)
;

boundaryField
{
    maxY
    {
        type            calculated;
        value           nonuniform List<scalar> 
300
(
1.1586174
1.1586174
1.1586174
1.1586174
1.1586174
1.1586174
1.1586174
1.1586174
1.1586174
1.1586174
1.1586131
1.1586133
1.1586132
1.1586132
1.1586132
1.1586132
1.1586132
1.1586132
1.1586133
1.1586131
1.1586026
1.1586035
1.1586034
1.1586033
1.1586033
1.1586033
1.1586033
1.1586034
1.1586035
1.1586026
1.1585821
1.1585849
1.1585848
1.1585845
1.1585844
1.1585844
1.1585846
1.1585848
1.1585849
1.1585821
1.1585464
1.1585539
1.1585537
1.1585531
1.1585528
1.1585528
1.1585531
1.1585537
1.158554
1.1585466
1.1584897
1.1585061
1.1585061
1.1585047
1.158504
1.1585041
1.1585049
1.1585063
1.1585065
1.1584901
1.1584046
1.1584372
1.1584377
1.1584349
1.1584334
1.1584335
1.1584352
1.1584382
1.158438
1.1584056
1.1582822
1.1583424
1.158344
1.1583385
1.1583355
1.1583359
1.1583393
1.1583451
1.1583441
1.1582841
1.1581091
1.1582169
1.1582207
1.1582102
1.1582046
1.1582055
1.1582118
1.1582228
1.1582201
1.1581129
1.1578653
1.1580553
1.1580635
1.1580444
1.1580335
1.1580354
1.1580475
1.1580675
1.1580611
1.1578723
1.1575017
1.1578498
1.1578677
1.1578296
1.1577993
1.157806
1.1578354
1.1578742
1.1578599
1.1575159
1.156709
1.1575614
1.1575953
1.1574333
1.1571374
1.157234
1.1574585
1.1576074
1.1575805
1.1567474
1.1541679
1.1569134
1.156601
1.1544344
1.1489107
1.1512643
1.1549871
1.1567169
1.1569796
1.1544063
1.1404097
1.1535038
1.1467497
1.1182953
1.0390639
1.075107
1.1280487
1.1489377
1.1540303
1.1417839
1.1054185
1.1390488
1.1071259
1.031255
0.97833531
0.98743644
1.0566445
1.1174942
1.1418096
1.10918
1.0606718
1.1106416
1.0601206
0.992631
0.96717285
0.97258299
0.99985473
1.0714917
1.1159211
1.0656643
1.0175547
1.0748147
1.0340823
0.98943679
0.96213152
0.96610901
0.99491664
1.0446097
1.0817924
1.0227906
0.9785273
1.033022
1.0330236
0.99035245
0.95629487
0.96078968
0.99568458
1.0403036
1.0405947
0.9836919
0.94484106
0.99277648
1.0087088
0.98954878
0.94847411
0.95446422
0.99528642
1.0170894
1.0000199
0.94969815
0.91720434
0.95840002
0.97887263
0.97365737
0.94044648
0.94770899
0.97822839
0.985724
0.9644149
0.92147206
0.89561833
0.9318028
0.95266104
0.95485715
0.93111846
0.93749584
0.95726396
0.95697317
0.9358668
0.89907841
0.87941133
0.9122348
0.93187905
0.93723778
0.92045099
0.9260672
0.93785454
0.93426256
0.91506773
0.88199368
0.86752955
0.89698516
0.9151964
0.9204189
0.90958526
0.91510071
0.92053203
0.91631227
0.89900149
0.86928649
0.85885862
0.88459541
0.90142275
0.90692142
0.89952926
0.90568838
0.90551135
0.90167845
0.88607757
0.85990616
0.852406
0.87418866
0.88972402
0.89424727
0.89016662
0.89844263
0.89004361
0.88919838
0.87512523
0.85287873
0.84735259
0.86611591
0.87989491
0.87889487
0.88112412
0.88904245
0.87464493
0.87854617
0.86622415
0.84736985
0.84298971
0.85959655
0.87158012
0.86428373
0.87412883
0.87347349
0.85903785
0.86953034
0.85908638
0.84264528
0.83859026
0.85395143
0.86404743
0.84821719
0.8525624
0.84679097
0.84225959
0.86123842
0.85294174
0.83794987
0.83308245
0.84843638
0.8499098
0.82662167
0.8246492
0.81048638
0.81842423
0.84464557
0.84696349
0.83219342
0.82480169
0.84199363
0.82601064
0.80793059
0.79070034
0.76831833
0.79527087
0.81511876
0.83916804
0.82373251
)
;
    }
    minX
    {
        type            calculated;
        value           nonuniform List<scalar> 
40
(
1.1586222
1.1586212
1.1586201
1.1586191
1.1586222
1.1586212
1.1586201
1.1586191
1.1586222
1.1586212
1.1586201
1.1586191
1.1586222
1.1586212
1.1586201
1.1586191
1.1586222
1.1586212
1.1586201
1.1586191
1.1586222
1.1586212
1.1586201
1.1586191
1.1586222
1.1586212
1.1586201
1.1586191
1.1586222
1.1586212
1.1586201
1.1586191
1.1586222
1.1586212
1.1586201
1.1586191
1.1586222
1.1586212
1.1586201
1.1586191
)
;
    }
    maxX
    {
        type            calculated;
        value           nonuniform List<scalar> 
40
(
0.71711061
0.77500579
0.80434407
0.82493009
0.76898888
0.91963346
0.868967
0.8420136
0.79455678
0.88451547
0.85006927
0.82559321
0.70729191
0.82969702
0.82710117
0.80830509
0.65031697
0.72864427
0.78002978
0.79077419
0.64113703
0.69742842
0.74634977
0.76841869
0.69711687
0.82226925
0.81508066
0.79592223
0.79857852
0.88290453
0.84310669
0.81510282
0.77229696
0.92065384
0.86671681
0.83918181
0.71777055
0.77523189
0.80377684
0.82369543
)
;
    }
    minZ
    {
        type            calculated;
        value           nonuniform List<scalar> 
120
(
1.0689964
1.1565334
1.1585736
1.158618
0.99764165
1.1526166
1.1584423
1.1586136
0.940814
1.1473
1.1581986
1.1586031
0.89378485
1.1408521
1.1578189
1.1585826
0.85353349
1.1334706
1.157283
1.158547
0.81829096
1.1253147
1.1565741
1.1584902
0.78707793
1.1165284
1.1556788
1.1584051
0.75955853
1.1064823
1.1545689
1.1582827
0.73569534
1.0929641
1.1531606
1.1581097
0.71504952
1.0753921
1.1513596
1.1578658
0.69740074
1.051403
1.14889
1.1575022
0.68273103
1.0202464
1.1412184
1.1567095
0.67143413
0.98277821
1.1211384
1.1541684
0.67189566
0.94529829
1.0875737
1.1404102
0.67572303
0.91134718
1.0457908
1.105419
0.6828661
0.88319103
1.0016107
1.0606722
0.69243619
0.86130407
0.96067692
1.0175551
0.7030854
0.84541221
0.92559406
0.97852768
0.71352796
0.83500538
0.89741179
0.94484142
0.72284761
0.82931697
0.87618501
0.91720467
0.73053599
0.82712493
0.8611854
0.89561865
0.73638874
0.82698249
0.85115356
0.87941163
0.7403797
0.82756511
0.84466277
0.86752985
0.74257266
0.82783583
0.84039306
0.85885891
0.74307469
0.82702964
0.83724959
0.85240628
0.74197516
0.82448328
0.83433074
0.84735287
0.73926268
0.81941825
0.83082209
0.84298999
0.73470359
0.81069276
0.82578426
0.83859053
0.7276118
0.79628841
0.81762798
0.83308272
0.71697381
0.7748066
0.80416003
0.82480196
)
;
    }
    maxZ
    {
        type            calculated;
        value           nonuniform List<scalar> 
120
(
1.0689972
1.1565334
1.1585736
1.158618
0.99764224
1.1526167
1.1584423
1.1586136
0.94081334
1.147301
1.1581988
1.1586032
0.89378362
1.1408553
1.1578194
1.1585826
0.85353611
1.1334785
1.1572843
1.1585471
0.81830597
1.1253307
1.156577
1.1584906
0.78712495
1.1165544
1.1556844
1.1584061
0.75965978
1.1064023
1.1545753
1.1582847
0.7358519
1.0927643
1.1531659
1.1581134
0.71525956
1.0749787
1.1513602
1.1578728
0.69765253
1.0507532
1.1488757
1.1575165
0.68299863
1.0197251
1.1408651
1.1567479
0.67166367
0.98260662
1.1207989
1.1544068
0.67195467
0.94555357
1.087909
1.1417844
0.6755283
0.9119941
1.0469722
1.1091804
0.68239308
0.88418181
1.0036227
1.0656648
0.69174483
0.86257655
0.96327557
1.022791
0.70226977
0.84679691
0.92849684
0.98369228
0.71265205
0.83623075
0.90028253
0.9496985
0.72192417
0.83013435
0.87869327
0.92147239
0.72955516
0.82742976
0.86311195
0.89907873
0.73535498
0.82680932
0.85242438
0.88199398
0.73934574
0.82705756
0.84532651
0.86928678
0.74164769
0.82719009
0.84057486
0.85990645
0.74239282
0.8264184
0.83709558
0.85287902
0.74164832
0.82401773
0.83396855
0.84737013
0.7393464
0.8191691
0.83034771
0.84264555
0.73518724
0.81071319
0.82527328
0.83795014
0.72840836
0.79659789
0.81715632
0.83219369
0.71781103
0.7752687
0.80380213
0.82373278
)
;
    }
    topAir_to_rightSolid
    {
        type            calculated;
        value           nonuniform List<scalar> 
130
(
0.4615322
0.45662868
0.45162796
0.44679876
0.44231607
0.4382824
0.43475494
0.43175823
0.42929575
0.42734252
0.42587726
0.42489954
0.42441019
0.46521598
0.45941389
0.45364893
0.44822454
0.44330266
0.43895855
0.43521664
0.43207343
0.42951157
0.42748301
0.42596841
0.42496029
0.42445433
0.47270589
0.46479154
0.45736895
0.45074378
0.44498966
0.44008256
0.43596296
0.43256531
0.42982831
0.42768446
0.42609886
0.42505004
0.42452506
0.48426724
0.47219953
0.46203828
0.45368174
0.44684488
0.44125968
0.43671124
0.43303756
0.43011645
0.42785932
0.42620689
0.42512008
0.42457918
0.49862738
0.47942964
0.4659323
0.45588817
0.4481389
0.44203653
0.43718405
0.43332435
0.43028735
0.42796066
0.42626863
0.42516095
0.42461166
0.49848336
0.47931866
0.46584755
0.45582218
0.44808789
0.44199755
0.43715541
0.43330638
0.43027694
0.4279553
0.42626551
0.42515943
0.424611
0.48396948
0.47197119
0.46186449
0.45354626
0.44673601
0.44116997
0.43663864
0.43298146
0.4300771
0.42783193
0.4261861
0.42510547
0.42456969
0.47234763
0.46450349
0.45715429
0.45058289
0.44486561
0.43998409
0.43588161
0.43249405
0.42976238
0.42762222
0.42604405
0.4250033
0.42448606
0.46486071
0.45911678
0.45342278
0.44805894
0.44318452
0.43887448
0.43515186
0.4320132
0.42943864
0.42740057
0.42588517
0.42487963
0.42437564
0.46121008
0.45635581
0.45141727
0.44664384
0.44220538
0.43820563
0.43469886
0.43170661
0.42922954
0.42725563
0.4257808
0.42479982
0.42430798
)
;
    }
    topAir_to_heater
    {
        type            calculated;
        value           nonuniform List<scalar> 
40
(
0.47350446
0.47221409
0.46966509
0.46599819
0.47972812
0.47816499
0.47506483
0.47060747
0.49323823
0.49107652
0.48674847
0.48040584
0.51685922
0.5138746
0.50745279
0.49738486
0.55564833
0.55244565
0.54422737
0.52837459
0.55559826
0.55236798
0.54412442
0.52824833
0.51670713
0.51363607
0.5071576
0.49706338
0.49311564
0.49086766
0.48640621
0.48001718
0.47963374
0.47795642
0.4747314
0.47022897
0.47344466
0.47204482
0.4693745
0.46565903
)
;
    }
    topAir_to_leftSolid
    {
        type            calculated;
        value           nonuniform List<scalar> 
130
(
0.37841129
0.37842772
0.37846533
0.37851965
0.37858771
0.37866631
0.37875547
0.37885336
0.37895785
0.37906121
0.37915964
0.37922914
0.37926623
0.37840991
0.37842675
0.3784654
0.37852593
0.3785994
0.37868776
0.37879024
0.37890093
0.37901288
0.37912089
0.37922373
0.37929957
0.3793427
0.37840118
0.3784192
0.37845955
0.37852332
0.37860643
0.37871238
0.37883186
0.37895512
0.37907558
0.37918914
0.37929276
0.37938039
0.379429
0.37838092
0.37839669
0.37843498
0.37849799
0.37858732
0.3787065
0.37884044
0.37897522
0.37910976
0.37924029
0.37935955
0.37945794
0.37951752
0.37836811
0.37838259
0.37841867
0.37847955
0.37856819
0.37868594
0.37882558
0.37896883
0.37912171
0.3792791
0.3794249
0.37955016
0.37962514
0.37836535
0.37837877
0.37841303
0.37847184
0.3785583
0.3786738
0.37880929
0.37895741
0.37912264
0.3793048
0.37947724
0.37962329
0.37970596
0.37837341
0.37838554
0.37841788
0.3784752
0.37856224
0.37867123
0.37879985
0.3789505
0.37912566
0.37932538
0.37951757
0.37966464
0.37974432
0.37838898
0.37840021
0.37843109
0.37848701
0.37857288
0.37867677
0.37880506
0.37896054
0.37913872
0.37933612
0.3795262
0.37967049
0.37974924
0.37840811
0.37841891
0.37844928
0.37850421
0.37858133
0.37867864
0.37879991
0.3789513
0.37911537
0.37929894
0.37948607
0.37963636
0.37971562
0.3784174
0.37842786
0.37845659
0.37850764
0.37858458
0.37868347
0.37880181
0.37893635
0.37908676
0.37925494
0.37943207
0.37959067
0.37967432
)
;
    }
}


// ************************************************************************* //
