/*--------------------------------*- C++ -*----------------------------------*\
| =========                 |                                                 |
| \\      /  F ield         | OpenFOAM: The Open Source CFD Toolbox           |
|  \\    /   O peration     | Version:  v2012                                 |
|   \\  /    A nd           | Website:  www.openfoam.com                      |
|    \\/     M anipulation  |                                                 |
\*---------------------------------------------------------------------------*/
FoamFile
{
    version     2.0;
    format      ascii;
    class       volScalarField;
    location    "580/topAir";
    object      T;
}
// * * * * * * * * * * * * * * * * * * * * * * * * * * * * * * * * * * * * * //

dimensions      [0 0 0 1 0 0 0];


internalField   nonuniform List<scalar> 
1200
(
325.15232
348.40832
369.45309
388.89295
407.23255
424.77142
441.61651
457.61661
472.45996
486.10142
498.40293
509.11201
517.67782
517.32221
514.39203
509.01125
501.97625
494.37311
487.1379
480.85725
475.79656
472.01497
469.4706
468.08416
467.76791
468.46108
470.17994
473.09757
477.70869
484.79663
300.54156
301.56286
302.96029
304.67259
306.65669
308.87925
311.3099
314.13639
318.02173
323.21823
330.59286
340.68861
353.67728
367.70014
381.39835
393.55733
403.55817
411.14415
416.26831
419.12356
420.23431
420.30669
420.01078
419.87342
420.28271
421.58072
424.18662
428.75214
436.50799
448.61034
300.01204
300.04605
300.10918
300.2076
300.34661
300.53072
300.76353
301.05267
301.42032
301.89182
302.54075
304.57451
310.02954
319.59766
332.36668
347.02707
361.81364
375.52749
387.32054
396.70391
403.61346
408.37052
411.50863
413.59934
415.15221
416.60459
418.36396
420.91626
425.11512
432.23489
300.00029
300.00141
300.00412
300.00945
300.01867
300.03337
300.0554
300.08712
300.13196
300.19516
300.28947
300.49525
301.15685
304.79009
314.43798
327.70325
341.58911
355.213
367.87736
378.96206
388.09574
395.24811
400.66148
404.70651
407.7701
410.20195
412.32494
414.4881
417.22844
421.41728
325.14606
348.15093
368.70462
387.41265
404.74216
420.93293
436.04379
450.00037
462.58118
473.4273
482.01638
487.71528
489.69641
480.67542
468.91506
456.45314
445.54841
437.38963
431.97401
428.65268
426.7349
425.78124
425.6055
426.16634
427.44829
429.46549
432.31405
436.32691
442.46457
452.11851
300.54082
301.54301
302.88742
304.50164
306.33084
308.32863
310.44684
312.62958
314.80624
316.88469
318.73605
320.19452
321.05997
321.09147
320.63597
320.46761
321.2994
323.20988
325.82839
328.75584
331.83761
335.09296
338.60055
342.4494
346.7176
351.47766
356.76278
362.51986
368.8666
377.99872
300.01199
300.0451
300.10495
300.19581
300.32064
300.48123
300.67792
300.9092
301.17117
301.45574
301.74875
302.04935
302.34831
302.73491
303.96531
306.91963
312.32312
319.54274
327.26959
334.2552
340.57424
346.80992
353.02658
359.21769
365.18688
371.3591
377.9385
384.8625
392.19282
400.01874
300.00029
300.00137
300.0039
300.00871
300.01675
300.02911
300.04696
300.07151
300.10405
300.14591
300.19918
300.27397
300.44215
301.33023
305.15424
312.95925
323.39115
336.47451
350.11465
362.67278
373.02486
381.02648
387.50432
392.93176
397.60941
401.31539
404.35906
407.03212
409.67793
412.81269
325.14374
348.19106
368.8052
387.58999
405.02
421.34689
436.67644
451.03211
464.3323
476.35467
486.68627
494.62645
498.92077
490.81783
479.77806
468.10097
457.24246
447.49845
438.87305
431.39787
425.12878
420.21155
416.85627
415.19037
415.14678
416.49105
418.9706
422.51506
427.99156
437.63165
300.54086
301.54637
302.89692
304.51924
306.35912
308.37267
310.51835
312.75073
315.01084
317.21295
319.22238
320.82144
321.7
321.62077
321.33661
321.59829
322.45319
323.73149
325.45274
327.65753
330.43602
333.9654
338.40917
343.79005
349.98969
356.95945
364.79001
373.33121
382.38488
392.91659
300.012
300.04525
300.10543
300.19674
300.32204
300.48307
300.6803
300.91255
301.17615
301.46274
301.75469
302.01919
302.23554
302.8854
305.67095
310.26369
314.73434
318.47871
322.41796
326.82584
332.09642
338.73775
346.8588
355.99242
365.29818
374.17972
382.65677
390.46866
398.77907
408.7506
300.00029
300.00138
300.00392
300.00875
300.0168
300.02913
300.04684
300.07111
300.10306
300.14377
300.19455
300.26518
300.52332
303.105
313.95306
327.87363
336.12952
336.47398
344.58466
355.08767
364.85758
372.99434
379.79348
385.59669
390.66681
395.03087
398.79943
402.27614
408.96772
420.80048
325.14553
348.21015
368.86486
387.72041
405.2699
421.79916
437.46668
452.35923
466.4923
479.78525
491.96264
502.35396
509.64983
505.19148
501.5169
500.22929
500.71909
501.63103
501.79243
500.41973
497.27636
492.7497
487.55258
482.25644
477.20056
473.02718
471.11402
473.41599
481.00297
491.60738
300.54095
301.54783
302.90272
304.53387
306.38964
308.43083
310.62366
312.9341
315.31811
317.70313
319.94881
321.78653
322.85585
323.41658
324.58232
326.22901
328.08717
329.98116
331.87462
333.91664
336.41049
339.70267
343.99385
349.25262
355.38663
362.49705
370.23537
378.54059
391.32471
418.97983
300.012
300.04531
300.10574
300.19767
300.32421
300.48752
300.68877
300.92783
301.20229
301.50444
301.81403
302.08873
302.39607
304.6203
309.76251
313.7177
316.4089
318.65617
321.54495
325.84239
332.06273
340.54407
351.03717
362.43793
373.63683
384.47758
392.95978
399.98119
407.78742
420.29125
300.00029
300.00138
300.00394
300.00881
300.01695
300.02947
300.04756
300.07253
300.10576
300.14874
300.20443
300.3072
301.08732
310.81736
337.05106
350.16596
351.29641
350.97161
351.25665
356.98965
364.01844
370.86173
377.63852
383.25883
388.69075
395.48035
402.16615
409.78381
420.48943
430.21726
325.14602
348.21617
368.88235
387.755
405.32839
421.8904
437.59924
452.53791
466.71369
479.99973
491.98355
501.7492
508.07468
503.2572
501.32946
502.48255
504.58051
507.7623
511.49805
515.34889
518.90106
521.78956
523.75602
524.68629
524.63858
523.93786
523.31941
523.92095
527.15948
534.64471
300.54097
301.54841
302.90502
304.53949
306.40061
308.44977
310.6537
312.97784
315.37514
317.75901
319.94785
321.59812
322.44792
323.77013
325.61038
327.72705
331.46941
336.74801
343.02224
349.92621
357.20139
365.0531
374.23363
384.8501
396.71792
409.46305
422.93174
437.5571
454.71092
477.37632
300.012
300.04534
300.10589
300.19809
300.32518
300.48945
300.69223
300.93351
301.21059
301.51404
301.81714
302.07332
302.67107
307.843
311.76529
314.1197
315.70485
317.55378
319.87455
323.23735
328.99258
338.19104
350.41087
363.19899
373.91379
382.99684
393.28589
406.03846
422.87135
445.82731
300.00029
300.00138
300.00395
300.00884
300.01703
300.02965
300.04795
300.0733
300.10722
300.15156
300.21227
300.38399
302.5349
334.51802
355.28268
359.38312
361.2662
363.47115
366.4682
369.59638
373.29903
377.62535
382.1364
386.40838
390.47257
394.47979
397.63665
407.69529
421.49522
439.59222
325.14631
348.21676
368.88326
387.75621
405.33001
421.8937
437.60663
452.55445
466.7491
480.07937
492.17893
502.19832
508.84819
503.61701
500.94807
501.49538
503.86454
507.31872
511.36498
515.62024
519.72628
523.34291
526.1766
528.02626
528.86254
528.95094
528.98441
530.11395
533.86092
542.01481
300.54098
301.54843
302.90502
304.53943
306.40041
308.44942
310.65345
312.97866
315.37966
317.77512
319.99639
321.72088
322.64954
323.73891
325.43652
327.47851
330.55454
335.40239
341.70653
349.35867
358.61819
369.83279
383.05509
397.86835
413.52325
429.3084
444.9107
460.61625
477.48375
498.10243
300.012
300.04534
300.10588
300.19808
300.32514
300.48935
300.69203
300.93319
301.21029
301.51448
301.821
302.08413
302.5612
306.75681
311.09012
313.93912
315.51486
317.06167
319.10954
322.57741
328.37492
336.71281
346.87246
357.87331
370.09969
384.1879
400.07593
418.05188
439.13507
465.39469
300.00029
300.00138
300.00395
300.00884
300.01703
300.02964
300.04791
300.0732
300.10699
300.15106
300.21054
300.35894
301.9164
323.30326
352.00807
357.38399
359.77886
361.77074
364.16829
366.76407
370.75964
375.33521
379.8332
383.78061
386.87573
390.96632
397.93499
410.47401
428.86065
452.39809
325.14646
348.21221
368.86862
387.72657
405.2791
421.81281
437.48768
452.39194
466.55142
479.9003
492.19719
502.83684
510.56417
506.53597
502.87384
501.469
502.00539
503.22012
504.02155
503.70973
501.97269
498.88428
494.72892
489.85223
484.7531
480.37648
478.35805
480.63592
487.63916
498.43266
300.54097
301.54788
302.90275
304.53379
306.38933
308.43024
310.62296
312.93385
315.32097
317.71653
319.98984
321.8895
323.06339
323.63759
324.65235
326.19367
327.98307
329.85102
331.78179
333.9055
336.46995
339.71778
343.75629
348.5402
354.06048
360.47222
367.88989
376.45345
391.94991
422.41066
300.012
300.04531
300.10573
300.19763
300.3241
300.48727
300.6883
300.92704
301.20113
301.50331
301.8147
302.09573
302.38973
304.10166
308.6291
312.66451
315.46158
317.64079
320.25743
323.99423
329.31207
336.4495
345.17462
354.99448
365.86876
377.50885
388.556
398.449
409.54693
426.36004
300.00029
300.00138
300.00394
300.0088
300.01694
300.02943
300.04747
300.07233
300.10534
300.14794
300.20293
300.30067
300.94324
308.12994
328.95225
347.63609
349.36152
349.09207
349.23172
355.32152
363.1032
370.61784
377.5921
383.85564
390.52653
397.40201
404.62206
412.68236
424.70112
437.06581
325.14516
348.19429
368.81078
387.59824
405.02995
421.35809
436.69363
451.0539
464.35816
476.40176
486.80107
494.90609
499.53338
492.00627
481.45586
470.00765
459.12326
449.2486
440.51054
432.95625
426.56286
421.34531
417.4117
414.90837
413.92829
414.44769
416.38927
419.76453
425.42908
435.23823
300.5409
301.54645
302.89698
304.51908
306.35843
308.37104
310.51559
312.74714
315.00807
317.21794
319.24836
320.89404
321.85993
321.88569
321.57358
321.69286
322.3751
323.49011
325.05196
327.09044
329.65375
332.87387
336.92417
341.93171
347.96178
355.03869
363.1404
372.06142
381.8577
393.62594
300.012
300.04525
300.10541
300.19668
300.32187
300.48267
300.6795
300.91121
301.17421
301.46036
301.75321
302.02195
302.24448
302.79111
305.03864
309.15301
313.45524
317.16257
320.99307
325.21335
330.0428
335.93254
343.1721
351.73812
361.42749
371.62549
381.50344
390.52941
400.25703
412.21021
300.00029
300.00138
300.00392
300.00874
300.01678
300.02907
300.0467
300.07081
300.1025
300.14276
300.19286
300.26204
300.4932
302.52778
311.04015
324.3941
332.74204
334.11936
341.74537
352.61959
363.21353
372.04275
379.33097
385.48735
390.89774
395.63732
399.73954
403.58821
411.51661
426.42337
325.14662
348.15277
368.70856
387.41939
404.75195
420.94432
436.04873
449.99411
462.56483
473.40252
482.00759
487.78442
489.94646
481.26425
469.81256
457.45057
446.38446
437.94305
432.30078
428.90097
427.01431
426.11695
425.91535
426.28189
427.19061
428.71103
431.02282
434.51583
440.1893
450.04212
300.54084
301.54305
302.88736
304.50121
306.32957
308.32583
310.44141
312.62105
314.79662
316.87689
318.73866
320.22261
321.13676
321.2319
320.78658
320.51802
321.15846
322.88375
325.38491
328.25559
331.2815
334.46229
337.86636
341.60783
345.81453
350.59926
356.0079
362.00332
368.73105
377.50555
300.01199
300.0451
300.10493
300.19572
300.32038
300.48061
300.67666
300.90694
301.16757
301.45083
301.74299
302.0458
302.35227
302.71433
303.76887
306.38939
311.37027
318.31328
326.04569
333.35235
339.8348
346.3109
352.79482
359.18804
365.29167
371.46921
378.13404
385.23906
392.78825
401.01166
300.00029
300.00137
300.0039
300.0087
300.01672
300.02902
300.04675
300.07108
300.10321
300.1444
300.19657
300.26902
300.42498
301.19275
304.41641
311.47863
321.30524
334.02589
347.57866
360.41085
371.405
379.84688
386.63521
392.2745
397.18389
401.26525
404.59919
407.51395
410.39038
414.20269
325.15208
348.40811
369.45335
388.89349
407.2313
424.76363
441.59013
457.55562
472.35944
485.95867
498.22306
508.91254
517.50091
517.27678
514.54031
509.3641
502.47795
494.94729
487.73664
481.47233
476.43623
472.67853
470.12715
468.66795
468.19754
468.66754
470.1267
472.78634
477.18629
484.23119
300.54156
301.56282
302.96003
304.67173
306.65457
308.87484
311.30265
314.15909
318.07989
323.34254
330.79733
340.86278
353.73904
367.60087
381.12781
393.11632
402.96283
410.47184
415.65833
418.71087
420.07949
420.39472
420.26854
420.2012
420.59357
421.81891
424.31563
428.74134
436.33841
448.34295
300.01204
300.04605
300.10915
300.20748
300.34628
300.52996
300.76207
301.051
301.41892
301.89164
302.54451
304.66883
310.12345
319.49917
331.99164
346.33136
360.83757
374.35347
386.08548
395.5715
402.71255
407.7617
411.18552
413.50989
415.22859
416.78552
418.60297
421.17688
425.3605
432.42735
300.00029
300.00141
300.00412
300.00944
300.01863
300.03326
300.05515
300.08661
300.13099
300.19335
300.28577
300.48528
301.09466
304.42326
313.37167
326.16799
339.84044
353.34806
365.99591
377.20693
386.60216
394.09088
399.85169
404.2135
407.54408
410.19359
412.49348
414.80487
417.67416
421.96427
)
;

boundaryField
{
    maxY
    {
        type            zeroGradient;
    }
    minX
    {
        type            fixedValue;
        value           uniform 300;
    }
    maxX
    {
        type            inletOutlet;
        inletValue      uniform 300;
        value           nonuniform List<scalar> 
40
(
484.70416
448.49506
432.136
421.3518
452.00456
377.96163
399.99904
412.80302
437.45957
392.9679
408.89137
421.01337
491.43289
418.93151
420.24606
430.01808
534.48787
477.03154
445.60613
439.5513
542.14078
498.38279
465.71473
452.33914
498.60579
422.71584
426.44371
436.70826
435.25647
393.68491
412.2681
426.43184
450.06843
377.54273
401.03753
414.19602
484.25852
448.36425
432.44096
421.98338
)
;
    }
    minZ
    {
        type            zeroGradient;
    }
    maxZ
    {
        type            zeroGradient;
    }
    topAir_to_rightSolid
    {
        type            compressible::turbulentTemperatureCoupledBaffleMixed;
        refValue        nonuniform List<scalar> 
130
(
753.19772
761.28997
769.72322
778.04604
785.93397
793.16942
799.6066
805.15757
809.77666
813.47799
816.27639
818.15356
819.09481
747.25072
756.6915
766.31034
775.58647
784.19943
791.96157
798.7717
804.5831
809.38226
813.2228
816.11354
818.04793
819.02011
735.40525
747.93275
760.07556
771.25144
781.22774
789.94133
797.40762
803.67201
808.78993
812.84399
815.8681
817.87983
818.88832
717.82739
736.17651
752.37067
766.23285
777.96032
787.81095
796.01948
802.77546
808.22983
812.49496
815.6449
817.72803
818.76657
697.14781
725.06893
746.07656
762.51662
775.70408
786.41445
795.14473
802.22874
807.89233
812.2857
815.51047
817.63455
818.6901
697.34939
725.23687
746.21222
762.62674
775.79187
786.483
795.19569
802.26059
807.9102
812.29397
815.51436
817.63522
818.68893
718.26857
736.532
752.65269
766.46018
778.14788
787.96876
796.1493
802.87694
808.30129
812.54453
815.68222
817.75387
818.78257
735.96256
748.3961
760.43199
771.52639
781.44524
790.11796
797.55653
803.80483
808.91467
812.96314
815.97393
817.97058
818.96427
747.82173
757.18116
766.69254
775.87307
784.40839
792.1132
798.89059
804.69537
809.51997
813.38009
816.27364
818.20396
819.17264
753.7237
761.74508
770.08235
778.31573
786.13052
793.30818
799.70957
805.25371
809.90151
813.64344
816.46142
818.34579
819.29229
)
;
        refGradient     uniform 0;
        valueFraction   uniform 0.99967867;
        value           nonuniform List<scalar> 
130
(
753.11456
761.20188
769.6304
777.94892
785.8331
793.0654
799.50007
805.04916
809.66698
813.36767
816.16611
818.04415
818.98736
747.15115
756.58716
766.20184
775.47437
784.08427
791.84385
798.65197
804.46192
809.26018
813.10039
815.99149
817.92722
818.90218
735.31272
747.83343
759.96993
771.1402
781.11173
789.82144
797.28479
803.54716
808.66386
812.71742
815.74169
817.75452
818.76576
717.7579
736.10117
752.28968
766.14639
777.86863
787.71442
795.91862
802.67079
808.12207
812.38521
815.53488
817.61977
818.66139
697.08694
725.00029
746.00241
762.43832
775.62248
786.33002
795.0578
802.13951
807.80105
812.1928
815.41673
817.54116
818.59878
697.28834
725.16816
746.13813
762.54871
775.71077
786.39938
795.10987
802.17277
807.8206
812.20297
815.4227
817.54408
818.60006
718.19949
736.45731
752.57273
766.37523
778.05819
787.8746
796.05094
802.77479
808.196
812.43723
815.57466
817.64786
818.67969
735.87044
748.29718
760.32678
771.41555
781.32954
789.99821
797.43359
803.67956
808.78792
812.83572
815.84663
817.84446
818.84098
747.72216
757.07677
766.584
775.76098
784.29327
791.99554
798.77087
804.57407
809.39762
813.25724
816.15098
818.08251
819.05404
753.64055
761.65704
769.98962
778.21874
786.02981
793.20434
799.6032
805.14542
809.79187
813.53307
816.351
818.23618
819.18464
)
;
        Tnbr            T;
        thicknessLayers List<scalar> 0();
        kappaLayers     List<scalar> 0();
        kappaMethod     fluidThermo;
        kappa           none;
        alphaAni        none;
        alpha           none;
        field           T;
    }
    topAir_to_heater
    {
        type            compressible::turbulentTemperatureCoupledBaffleMixed;
        refValue        nonuniform List<scalar> 
40
(
734.14226
736.14974
740.14763
745.97533
724.62767
727.00077
731.74999
738.68565
704.77217
707.8788
714.17821
723.61274
672.55152
676.45987
685.0229
698.89204
625.59084
629.21911
638.72288
657.89059
625.64711
629.30772
638.84407
658.04809
672.7491
676.77365
685.42131
699.34373
704.94704
708.17953
714.68022
724.19812
724.7701
727.3178
732.26372
739.28009
734.23501
736.41373
740.60585
746.51861
)
;
        refGradient     uniform 0;
        valueFraction   uniform 0.99967867;
        value           nonuniform List<scalar> 
40
(
734.07259
736.07849
740.07336
745.89693
724.54928
726.91785
731.66154
738.59146
704.70342
707.80551
714.09913
723.52713
672.49774
676.40365
684.96351
698.82835
625.55153
629.17801
638.67909
657.84132
625.6079
629.26648
638.79994
657.99856
672.69569
676.71777
685.36221
699.28033
704.87861
708.10667
714.6016
724.11295
724.69186
727.23506
732.17541
739.18598
734.1653
736.34244
740.53155
746.4402
)
;
        Tnbr            T;
        thicknessLayers List<scalar> 0();
        kappaLayers     List<scalar> 0();
        kappaMethod     fluidThermo;
        kappa           none;
        alphaAni        none;
        alpha           none;
        field           T;
    }
    topAir_to_leftSolid
    {
        type            compressible::turbulentTemperatureCoupledBaffleMixed;
        refValue        nonuniform List<scalar> 
130
(
918.7331
918.68569
918.58757
918.44944
918.27837
918.08207
917.86048
917.61811
917.36025
917.10566
916.86356
916.69203
916.59957
918.73644
918.68812
918.58764
918.43467
918.25082
918.0313
917.77801
917.50535
917.23023
916.96535
916.71387
916.5287
916.42381
918.75764
918.70642
918.6018
918.44096
918.23367
917.97148
917.67696
917.37378
917.07794
916.79934
916.5455
916.3312
916.21237
918.80685
918.76109
918.66144
918.50239
918.27995
917.98559
917.65591
917.32469
916.99454
916.67457
916.3824
916.1414
915.99519
918.83796
918.79531
918.70102
918.54713
918.32634
918.03542
917.69187
917.34012
916.96556
916.58069
916.22454
915.91896
915.73595
918.84465
918.80461
918.71473
918.56583
918.35035
918.06483
917.73135
917.36776
916.9633
916.51855
916.09808
915.74234
915.54077
918.82508
918.78816
918.70296
918.55769
918.34081
918.0711
917.75426
917.38454
916.95604
916.46887
916.00072
915.64239
915.44773
918.78728
918.75254
918.67089
918.52908
918.31506
918.05782
917.7419
917.36066
916.92516
916.44405
915.98161
915.63082
915.4394
918.74081
918.70715
918.62677
918.48739
918.29465
918.05341
917.75457
917.38336
916.98223
916.53486
916.08005
915.71545
915.52355
918.71826
918.68533
918.60878
918.47858
918.28597
918.04046
917.74817
917.41713
917.04829
916.63716
916.2052
915.81887
915.61426
)
;
        refGradient     uniform 0;
        valueFraction   uniform 0.99967867;
        value           nonuniform List<scalar> 
130
(
918.54237
918.50245
918.41112
918.27928
918.11415
917.92356
917.70745
917.4703
917.21729
916.96716
916.72909
916.56107
916.47139
918.5457
918.50479
918.41095
918.26404
918.08581
917.87157
917.62322
917.35513
917.08414
916.82283
916.5742
916.39092
916.2867
918.56689
918.5231
918.42513
918.27038
918.06876
917.8119
917.5224
917.22393
916.93246
916.65781
916.40738
916.19569
916.07829
918.61609
918.57776
918.48478
918.33184
918.11511
917.82615
917.50162
917.17528
916.84978
916.53418
916.24602
916.00844
915.86463
918.64719
918.61197
918.52435
918.37658
918.1615
917.87599
917.53761
917.19077
916.82088
916.44041
916.08822
915.78588
915.60497
918.65388
918.62127
918.53806
918.39527
918.1855
917.9054
917.57708
917.2184
916.81864
916.37831
915.96187
915.60946
915.41008
918.63431
918.60481
918.52628
918.38712
918.17595
917.91164
917.59994
917.23513
916.81132
916.32859
915.86454
915.50974
915.31762
918.59652
918.5692
918.4942
918.35847
918.15013
917.89822
917.58733
917.21083
916.77974
916.30265
915.84371
915.49563
915.30576
918.55007
918.52382
918.45007
918.31674
918.12964
917.89368
917.59979
917.23318
916.83622
916.39247
915.94057
915.57795
915.3868
918.52754
918.50209
918.43232
918.30842
918.12175
917.88196
917.59517
917.26937
916.9054
916.49877
916.07089
915.68812
915.48633
)
;
        Tnbr            T;
        thicknessLayers List<scalar> 0();
        kappaLayers     List<scalar> 0();
        kappaMethod     fluidThermo;
        kappa           none;
        alphaAni        none;
        alpha           none;
        field           T;
    }
}


// ************************************************************************* //
