/*--------------------------------*- C++ -*----------------------------------*\
| =========                 |                                                 |
| \\      /  F ield         | OpenFOAM: The Open Source CFD Toolbox           |
|  \\    /   O peration     | Version:  v2012                                 |
|   \\  /    A nd           | Website:  www.openfoam.com                      |
|    \\/     M anipulation  |                                                 |
\*---------------------------------------------------------------------------*/
FoamFile
{
    version     2.0;
    format      ascii;
    class       volVectorField;
    location    "580/topAir";
    object      U;
}
// * * * * * * * * * * * * * * * * * * * * * * * * * * * * * * * * * * * * * //

dimensions      [0 1 -1 0 0 0 0];


internalField   nonuniform List<vector> 
1200
(
(0.10462498 -0.0024618587 0.00087842378)
(0.1184074 -0.002538796 0.0013213945)
(0.13023878 -0.0023189406 0.0014047296)
(0.13946293 -0.0017605662 0.0012678415)
(0.14751174 -0.00092671897 0.0009245356)
(0.15503007 9.4542714e-06 0.00033320131)
(0.16227654 0.00094645072 -0.00053927744)
(0.16951825 0.001814034 -0.0018431493)
(0.17695429 0.0027097206 -0.0038505977)
(0.18490412 0.0038140097 -0.0068818853)
(0.1935548 0.0054619546 -0.011351633)
(0.20258923 0.0080399999 -0.017686139)
(0.21047932 0.011956417 -0.026147673)
(0.21561699 0.016611754 -0.036545175)
(0.2180119 0.021831997 -0.048024729)
(0.21821596 0.026888613 -0.059333742)
(0.21642284 0.031186475 -0.069294082)
(0.21285251 0.034417654 -0.077218687)
(0.20808499 0.036457575 -0.082948005)
(0.20302855 0.037312679 -0.086660694)
(0.19861165 0.037162745 -0.088671194)
(0.1954536 0.036306517 -0.089303894)
(0.19374864 0.035034767 -0.088836309)
(0.19335366 0.033571015 -0.087492073)
(0.19392492 0.032086023 -0.085426135)
(0.19492382 0.030800117 -0.08264962)
(0.19536983 0.030116514 -0.078924172)
(0.1933334 0.03086393 -0.073670675)
(0.18532824 0.034990107 -0.065902792)
(0.1439325 0.048514281 -0.05360596)
(0.098684313 -0.0039006845 0.00085034245)
(0.098448821 -0.004713463 0.0012865449)
(0.098869841 -0.0047623586 0.0014728911)
(0.099747797 -0.004293386 0.0015596952)
(0.10116312 -0.0034971149 0.001573547)
(0.10314781 -0.0026237486 0.0014990612)
(0.10568194 -0.0018388044 0.0013104616)
(0.10891834 -0.0012156326 0.00094974564)
(0.11335514 -0.00043351997 0.00029023963)
(0.11950864 0.00087320961 -0.00083867978)
(0.12835396 0.0035386666 -0.0027549302)
(0.14028016 0.0086330462 -0.005848211)
(0.15498255 0.017023999 -0.010624474)
(0.170586 0.027672833 -0.017173552)
(0.18493278 0.03993458 -0.024993655)
(0.19623249 0.052456056 -0.033109136)
(0.20335631 0.064136228 -0.040614558)
(0.20607245 0.074015416 -0.047046642)
(0.20514572 0.081299149 -0.052264964)
(0.20205043 0.085590321 -0.056254193)
(0.19835184 0.087157347 -0.059020295)
(0.19510973 0.086732343 -0.060573889)
(0.19275834 0.085070225 -0.060993746)
(0.19132993 0.082719004 -0.060419818)
(0.19068371 0.079986303 -0.058966631)
(0.19054082 0.077221623 -0.056552502)
(0.19026529 0.075142001 -0.052742382)
(0.18855604 0.075295485 -0.046585447)
(0.1840369 0.080955603 -0.036129767)
(0.15651609 0.096999001 -0.016787285)
(0.098815326 -0.0029204573 0.00087729292)
(0.097952462 -0.0042256142 0.0013344453)
(0.096295401 -0.0046344587 0.0015420187)
(0.094215071 -0.0047257209 0.0016691245)
(0.092176702 -0.0046894653 0.0017677261)
(0.090360856 -0.0046133141 0.0018495476)
(0.088754951 -0.0046020455 0.0019314775)
(0.087290641 -0.0047108249 0.0020534999)
(0.086017832 -0.0047711238 0.0022826682)
(0.085248646 -0.004692894 0.0026568317)
(0.085536246 -0.0042312486 0.0031093176)
(0.088946558 -0.0019050837 0.0032315149)
(0.09892072 0.0053511203 0.0023352947)
(0.11494836 0.018701072 0.00021242188)
(0.13373137 0.036128386 -0.0028116614)
(0.15178072 0.054708034 -0.0058680358)
(0.16621225 0.071572539 -0.0084409403)
(0.17586046 0.085551593 -0.010440353)
(0.18117336 0.096069642 -0.012136153)
(0.1835903 0.10292832 -0.013787947)
(0.18464094 0.10630608 -0.015470817)
(0.18521384 0.10672863 -0.01687247)
(0.18552999 0.10491875 -0.017663714)
(0.18547635 0.10155106 -0.017773797)
(0.18493883 0.097132713 -0.017242986)
(0.1838941 0.092096737 -0.01595146)
(0.18221089 0.087163105 -0.01350727)
(0.17955503 0.083928274 -0.0092519652)
(0.17635418 0.085995427 -0.0021820654)
(0.15995825 0.099536743 0.010543091)
(0.096856984 -0.001554651 0.00084256919)
(0.094626983 -0.0022982667 0.0012612793)
(0.090890947 -0.0025258735 0.0014297005)
(0.086311899 -0.0025584252 0.0015155488)
(0.081707963 -0.0024982089 0.001574549)
(0.077322686 -0.0023769955 0.0016224371)
(0.073117364 -0.0022357753 0.0016821823)
(0.068992668 -0.0021155356 0.0017978764)
(0.064817343 -0.0020562125 0.0020441693)
(0.060374982 -0.0022353354 0.0025347379)
(0.055245599 -0.0031679947 0.0034837825)
(0.04898561 -0.0049674211 0.0053223956)
(0.040921458 -0.0057149434 0.0087352915)
(0.036366482 0.00091277722 0.013599675)
(0.04360057 0.016895653 0.019212384)
(0.059109504 0.03460213 0.025274921)
(0.07556846 0.049554092 0.031106236)
(0.090082113 0.061651706 0.036394716)
(0.10246761 0.070935753 0.04064102)
(0.11343931 0.077351408 0.043525284)
(0.12346913 0.080869906 0.045255119)
(0.13251506 0.08164938 0.046052448)
(0.14022836 0.080156016 0.04613592)
(0.14620811 0.076964083 0.045733243)
(0.15023611 0.072645852 0.045070812)
(0.15240875 0.067669456 0.044408282)
(0.15315331 0.062664472 0.044040699)
(0.15347401 0.058842118 0.044041582)
(0.15726948 0.05892289 0.043928582)
(0.17716631 0.068603887 0.043598745)
(0.10588925 -0.0024630168 0.0010161655)
(0.12052773 -0.0025507792 0.0014261932)
(0.13360787 -0.0024213312 0.0014359989)
(0.14416702 -0.0020497257 0.0012146004)
(0.15335645 -0.0015059105 0.0007806553)
(0.1617539 -0.00097017311 9.0616723e-05)
(0.16938977 -0.00058593043 -0.00091482133)
(0.17617894 -0.000429569 -0.0024044704)
(0.1820874 -0.00056737524 -0.0046380545)
(0.18709681 -0.0010757964 -0.0079047219)
(0.19114389 -0.0020910561 -0.012555866)
(0.19413898 -0.0037642436 -0.018867633)
(0.19550743 -0.0062419426 -0.026807214)
(0.19500012 -0.010201672 -0.035632887)
(0.19429469 -0.014802594 -0.044077306)
(0.19464188 -0.019056589 -0.051113215)
(0.19574973 -0.021956862 -0.056522624)
(0.1965837 -0.023233139 -0.060639298)
(0.19644539 -0.023393385 -0.063760484)
(0.19538552 -0.02319004 -0.065983386)
(0.19398048 -0.023059562 -0.067357016)
(0.19285003 -0.023021772 -0.067927182)
(0.19234027 -0.02297786 -0.067735289)
(0.19250845 -0.0228713 -0.066840915)
(0.19331808 -0.022693734 -0.065303003)
(0.1947828 -0.022314794 -0.063088019)
(0.19685554 -0.021293092 -0.059897481)
(0.19922994 -0.01847 -0.055088452)
(0.20112486 -0.010411363 -0.047783338)
(0.19195456 0.012989155 -0.037586803)
(0.099975034 -0.0039123856 0.0010711204)
(0.1006807 -0.0047616562 0.0016334247)
(0.10248217 -0.0049493249 0.0018482937)
(0.10491165 -0.0047385636 0.0019097679)
(0.10778661 -0.0043240486 0.0018590333)
(0.11104738 -0.003956375 0.0016726713)
(0.11460334 -0.0038284638 0.0013054096)
(0.11837689 -0.0040615123 0.0006788447)
(0.12236753 -0.0047823943 -0.00033182302)
(0.12653999 -0.0061702703 -0.001881467)
(0.13091304 -0.0084930187 -0.0041368185)
(0.13559293 -0.012039295 -0.0072671395)
(0.14075277 -0.017131993 -0.011317495)
(0.14636167 -0.02439737 -0.015675694)
(0.15234792 -0.032196274 -0.019222406)
(0.15834209 -0.03819404 -0.021220464)
(0.16368414 -0.040434379 -0.021989901)
(0.16737511 -0.038880949 -0.022751107)
(0.16894168 -0.035133087 -0.024223694)
(0.16880572 -0.031110452 -0.02635523)
(0.16793308 -0.027897729 -0.02867283)
(0.16709659 -0.025470475 -0.030693884)
(0.16649451 -0.023520405 -0.031993886)
(0.16608185 -0.021963352 -0.032267623)
(0.16599185 -0.021070862 -0.031265225)
(0.16679366 -0.021045401 -0.028708672)
(0.16959163 -0.021788117 -0.024025959)
(0.17662736 -0.022575021 -0.016173443)
(0.19344998 -0.021647637 -0.0035276858)
(0.25086825 -0.012594585 0.011990563)
(0.10011664 -0.0029488025 0.0010917553)
(0.10021031 -0.0042788855 0.0016812422)
(0.099998524 -0.0047311382 0.0019441613)
(0.099620607 -0.0049000835 0.0020832001)
(0.099290381 -0.0049805049 0.0021576049)
(0.099122356 -0.0050596668 0.0021669615)
(0.099129934 -0.0052251641 0.0021065113)
(0.099294086 -0.0055769401 0.0019823629)
(0.099609468 -0.0062535592 0.0018121807)
(0.10010175 -0.007513688 0.0015714016)
(0.10087917 -0.009711758 0.0011136334)
(0.10215088 -0.013352895 0.00019239649)
(0.10415522 -0.019186603 -0.0011396883)
(0.10695345 -0.027729766 -0.0020216497)
(0.11048455 -0.03690852 -0.0008276832)
(0.11437377 -0.043293817 0.004272849)
(0.11972981 -0.043451133 0.013160212)
(0.12525788 -0.038557464 0.021713081)
(0.12957649 -0.03187084 0.027782902)
(0.13229164 -0.026581828 0.030811125)
(0.13364253 -0.022971081 0.032461524)
(0.1349928 -0.02045389 0.034293786)
(0.13722023 -0.019031208 0.036513441)
(0.14021527 -0.018404652 0.039323884)
(0.14286565 -0.019005405 0.041763483)
(0.14450385 -0.020580829 0.043673859)
(0.14591867 -0.022999812 0.045018486)
(0.14822075 -0.026544814 0.046316062)
(0.15532133 -0.031311677 0.049683831)
(0.18459376 -0.037187136 0.053483932)
(0.098102115 -0.0015817542 0.0010663949)
(0.09677047 -0.0023548453 0.0016367146)
(0.094408106 -0.002615655 0.0018849961)
(0.091452137 -0.002694245 0.002006123)
(0.0884762 -0.0026962366 0.0020589695)
(0.085669933 -0.0026558793 0.002046724)
(0.083031073 -0.0026165703 0.0019701657)
(0.080527447 -0.0026357715 0.001838803)
(0.078115463 -0.0027965772 0.0016774672)
(0.075738401 -0.0032513152 0.0015256083)
(0.073302891 -0.0042761564 0.00142641)
(0.070610692 -0.0063849852 0.0014409537)
(0.067287393 -0.010333501 0.0014571523)
(0.063040162 -0.016396574 0.0013768013)
(0.057923521 -0.021457392 0.0038985795)
(0.054157976 -0.020011825 0.016045371)
(0.056850605 -0.01010744 0.042159138)
(0.060259246 0.0039302672 0.066304216)
(0.064264055 0.017485837 0.084022788)
(0.07029887 0.027924537 0.096154032)
(0.078698581 0.034436448 0.10337276)
(0.087904128 0.036712157 0.10653775)
(0.096189695 0.036000288 0.10735455)
(0.10298096 0.033324229 0.10648655)
(0.10799065 0.029556131 0.10417987)
(0.11171373 0.024461666 0.099632515)
(0.11433517 0.018535255 0.093075329)
(0.11627353 0.011990546 0.085176077)
(0.12247451 0.0052232928 0.077641106)
(0.1519921 -0.00083206806 0.063571494)
(0.10576287 -0.002483181 0.00037283554)
(0.12020138 -0.0025686274 0.00061827352)
(0.13319145 -0.0024121192 0.0007274378)
(0.1437706 -0.0019914297 0.00074310236)
(0.15302627 -0.0013869093 0.00068986429)
(0.1614541 -0.00078870203 0.00056917383)
(0.16906512 -0.00031128854 0.00035155154)
(0.17583909 1.5992564e-05 1.3078692e-05)
(0.18180149 0.00016708129 -0.00046111896)
(0.1869317 8.7663788e-05 -0.0010956643)
(0.19116985 -0.00031103426 -0.0019028082)
(0.19443599 -0.001184134 -0.0028304916)
(0.19613121 -0.0027799687 -0.0036712889)
(0.19599818 -0.0059376774 -0.0040126897)
(0.19557952 -0.0096206515 -0.0034730283)
(0.19538253 -0.013068664 -0.0024453915)
(0.19452922 -0.016271865 -0.0019702201)
(0.19240389 -0.019591883 -0.0028144843)
(0.18927613 -0.023034081 -0.0050282697)
(0.18575848 -0.026485438 -0.0081584573)
(0.1824262 -0.029820997 -0.011601744)
(0.17970498 -0.032806699 -0.014778041)
(0.17770723 -0.035155433 -0.017253204)
(0.17621467 -0.03670649 -0.018859586)
(0.17495286 -0.037553635 -0.019586603)
(0.17387172 -0.03805229 -0.019318882)
(0.17345714 -0.038573199 -0.017811946)
(0.17511487 -0.038711746 -0.015713526)
(0.18043596 -0.034755587 -0.016289801)
(0.18848492 -0.017508087 -0.02133035)
(0.09985182 -0.0039247469 0.00036950696)
(0.10032532 -0.0047610924 0.00063586875)
(0.10200112 -0.0049056532 0.0007673637)
(0.10442017 -0.0046247992 0.00079996176)
(0.10731639 -0.0041231267 0.00074630243)
(0.11056828 -0.0036565404 0.00058871244)
(0.11405264 -0.0033740672 0.00029255325)
(0.1176757 -0.0033333328 -0.00018541412)
(0.12138847 -0.003617341 -0.00090031603)
(0.12518157 -0.0043761901 -0.0019387421)
(0.12910528 -0.0058614017 -0.0033628773)
(0.13332109 -0.0085176028 -0.0051661133)
(0.13816313 -0.012996616 -0.0071299569)
(0.14361013 -0.019904507 -0.0086794543)
(0.14903421 -0.026223571 -0.009649221)
(0.15311509 -0.029985809 -0.011402704)
(0.1545544 -0.031932363 -0.015254778)
(0.15339694 -0.033769987 -0.020984595)
(0.15076601 -0.035528884 -0.027666036)
(0.14747159 -0.037138642 -0.034243796)
(0.14389272 -0.038751713 -0.039802116)
(0.14027415 -0.040288335 -0.043742725)
(0.13665214 -0.0414146 -0.045798075)
(0.13279023 -0.041946424 -0.046028428)
(0.12852866 -0.04225855 -0.044376218)
(0.12382782 -0.04352874 -0.040419206)
(0.12023632 -0.046881118 -0.033525986)
(0.12298426 -0.051817354 -0.026035666)
(0.13896636 -0.051634864 -0.029645046)
(0.19064941 -0.035120016 -0.0497006)
(0.099998013 -0.0029436677 0.00037443663)
(0.099870972 -0.0042669515 0.00064757558)
(0.099541206 -0.0046984547 0.00079465592)
(0.099163941 -0.0048344884 0.00084817023)
(0.098881163 -0.0048694664 0.00081802416)
(0.098757539 -0.0048836629 0.0006849498)
(0.098777648 -0.0049483017 0.00041273808)
(0.098895756 -0.0051440769 -5.0981406e-05)
(0.099078082 -0.0055976364 -0.00078672816)
(0.099312487 -0.0065197342 -0.0018943428)
(0.099575634 -0.0083116223 -0.0034959207)
(0.099915176 -0.011723573 -0.0057301805)
(0.100645 -0.01797585 -0.0085237482)
(0.10170433 -0.027165257 -0.01119694)
(0.10206005 -0.033679409 -0.013152682)
(0.10047101 -0.034580318 -0.01588802)
(0.095910658 -0.032128138 -0.020435242)
(0.090390574 -0.030884332 -0.02432577)
(0.085402555 -0.030752378 -0.028998322)
(0.080673518 -0.03171409 -0.034491155)
(0.075325655 -0.033812211 -0.038838946)
(0.069669513 -0.03643715 -0.040647059)
(0.064519156 -0.038749686 -0.039641747)
(0.060294025 -0.040567002 -0.035953625)
(0.057886632 -0.042357954 -0.028639093)
(0.056637167 -0.045447935 -0.017753789)
(0.057441875 -0.051042525 -0.0044820005)
(0.065950368 -0.059581278 0.0042379287)
(0.078898945 -0.064967033 -0.013192283)
(0.11484814 -0.057163713 -0.057617556)
(0.097986101 -0.0015767044 0.00036493501)
(0.096437669 -0.0023445048 0.00062625347)
(0.093959542 -0.0025969261 0.00076291753)
(0.091003623 -0.002664995 0.00080695922)
(0.088073047 -0.0026537028 0.00076804394)
(0.085306043 -0.0025951077 0.00062618623)
(0.082668196 -0.0025293215 0.00034206935)
(0.08009533 -0.0025086067 -0.00014625982)
(0.077518248 -0.0026070478 -0.00093739037)
(0.074808081 -0.0029570639 -0.0021744031)
(0.071673364 -0.0038626 -0.0041255908)
(0.067551953 -0.0060314273 -0.0073313658)
(0.06148979 -0.011186013 -0.012925602)
(0.051394625 -0.020177195 -0.022268723)
(0.03498012 -0.023252165 -0.032997174)
(0.018944158 -0.01720034 -0.03795407)
(0.0075057731 -0.009184779 -0.029049704)
(0.021036638 -0.00620104 0.011531934)
(0.024014889 0.0023419404 0.045190119)
(0.030065418 0.010602754 0.065252968)
(0.037969892 0.016183446 0.076341584)
(0.046044863 0.018495065 0.081652877)
(0.053014112 0.018105543 0.083339873)
(0.058022072 0.015473803 0.082398653)
(0.059993132 0.010790643 0.079168239)
(0.058197273 0.0036616341 0.073175337)
(0.053825222 -0.0060689014 0.064132978)
(0.052729072 -0.019404562 0.050629559)
(0.044077346 -0.027276007 0.0012710879)
(0.059110788 -0.013156212 -0.078652435)
(0.10573397 -0.0024844436 0.00021075527)
(0.12009519 -0.0025647122 0.00038537635)
(0.13300125 -0.0023932174 0.00049979854)
(0.14351727 -0.0019416692 0.0005558621)
(0.15273866 -0.0012806926 0.00056027278)
(0.16117313 -0.00058737902 0.00051458893)
(0.16887322 3.9817023e-05 0.00041835513)
(0.1758445 0.00057922057 0.00028025993)
(0.18213994 0.0010269494 9.8250646e-05)
(0.18784943 0.0013747576 -0.00011738918)
(0.1931178 0.0015767214 -0.00030112721)
(0.19818181 0.0015101044 -0.00027100251)
(0.20286934 0.0010255705 0.00043728643)
(0.20724139 -8.7580853e-06 0.002542735)
(0.21238624 0.00032651907 0.0060587337)
(0.21759479 0.0015589625 0.010307844)
(0.22146404 0.0025886762 0.014730841)
(0.22361131 0.0028326096 0.019205066)
(0.22448438 0.0021346229 0.023739919)
(0.224591 0.00053886783 0.028257352)
(0.22430235 -0.0017296975 0.032637562)
(0.22377376 -0.0043237288 0.036832041)
(0.22281596 -0.0069253752 0.040853186)
(0.2210745 -0.0094388765 0.044566408)
(0.21853004 -0.011842412 0.047611021)
(0.21573356 -0.013558354 0.049521803)
(0.2132914 -0.013144025 0.049587228)
(0.2104675 -0.0087703411 0.046980222)
(0.20257537 0.0018632994 0.039078724)
(0.14478187 0.030413089 0.019425558)
(0.099821747 -0.0039260761 0.00021132287)
(0.10019599 -0.0047554904 0.00039843478)
(0.10174299 -0.0048781499 0.00052247024)
(0.10403927 -0.0045521514 0.0005783997)
(0.10681812 -0.0039693029 0.00056810981)
(0.10994655 -0.0033676985 0.00048491565)
(0.11329767 -0.0028736786 0.00031308446)
(0.11676872 -0.0025298019 3.0913368e-05)
(0.12032584 -0.0023904339 -0.00039247113)
(0.12402217 -0.0025744132 -0.00098028143)
(0.12804954 -0.003370735 -0.0017074392)
(0.1328736 -0.005358644 -0.0023911192)
(0.13929634 -0.0091906731 -0.002471397)
(0.14751917 -0.013266384 -0.001037947)
(0.15645446 -0.012311888 0.0010738431)
(0.1634791 -0.0086770665 0.0022719659)
(0.16766321 -0.0057131581 0.0019126743)
(0.16941927 -0.0049051887 0.0001956891)
(0.16933802 -0.0063300541 -0.002722479)
(0.16782438 -0.0092653935 -0.0066018477)
(0.16533921 -0.012919538 -0.010870111)
(0.16218355 -0.016532335 -0.014593362)
(0.15824495 -0.019472488 -0.016913178)
(0.15309759 -0.021810541 -0.017423885)
(0.14670646 -0.024311098 -0.01608537)
(0.14047162 -0.027042751 -0.013997423)
(0.13877253 -0.02707225 -0.015719561)
(0.14460715 -0.018298111 -0.023158864)
(0.16074425 0.0048369694 -0.035759096)
(0.17175431 0.045251866 -0.050973604)
(0.099969095 -0.0029409145 0.00021250086)
(0.099745617 -0.0042608975 0.0004002354)
(0.099283993 -0.0046830341 0.00052827127)
(0.0987709 -0.0048004669 0.00058851421)
(0.098346338 -0.0048037854 0.00057835068)
(0.098058387 -0.0047659294 0.00048511376)
(0.097875503 -0.0047478178 0.00028352301)
(0.097722707 -0.0048208079 -6.4181638e-05)
(0.097537038 -0.0051044802 -0.00061032474)
(0.097274044 -0.0058514086 -0.0014386303)
(0.096951207 -0.0076216364 -0.00263952)
(0.096922066 -0.011596755 -0.0041785952)
(0.098021668 -0.019661563 -0.0054969184)
(0.099609326 -0.027734455 -0.0049318539)
(0.10264766 -0.025304384 -0.0024125216)
(0.10276739 -0.019278636 -0.00073695289)
(0.097363512 -0.013904643 -0.0023381072)
(0.089065277 -0.011027087 -0.0068335147)
(0.079203569 -0.012335385 -0.013264412)
(0.069254345 -0.016599454 -0.019838127)
(0.059596519 -0.021994723 -0.024492801)
(0.050244248 -0.026990554 -0.025743591)
(0.041664876 -0.030416604 -0.023080983)
(0.034667042 -0.033020616 -0.016501947)
(0.029657494 -0.036817781 -0.0067446109)
(0.027834505 -0.042316249 -0.0015385096)
(0.036758038 -0.042338828 -0.016417588)
(0.057706539 -0.030865824 -0.038407514)
(0.085253926 -0.0095736128 -0.059682877)
(0.10857147 0.026987835 -0.082535235)
(0.097957728 -0.001578309 0.00020684174)
(0.096315355 -0.002348155 0.00038671128)
(0.093708031 -0.0026002514 0.00050652298)
(0.090616674 -0.0026643934 0.00055793975)
(0.087541355 -0.0026443879 0.00053717457)
(0.084598989 -0.0025700576 0.00042908773)
(0.081724631 -0.0024792879 0.00020193843)
(0.078801025 -0.0024266661 -0.00019726777)
(0.075665457 -0.0024951573 -0.00086145269)
(0.072017441 -0.0028689907 -0.0019794394)
(0.06724352 -0.0040125894 -0.0039045123)
(0.060048726 -0.0072368722 -0.0073355096)
(0.048634832 -0.015963204 -0.013827455)
(0.026783001 -0.024323601 -0.024135647)
(-0.0052816798 -0.010244574 -0.03033913)
(-0.027773008 0.0027437761 -0.025989745)
(-0.042421085 0.0046237359 -0.019705592)
(-0.046232433 0.0029641494 -0.008602832)
(-0.033138627 1.5339824e-06 0.012224805)
(-0.023784282 0.00017663033 0.028433839)
(-0.01317172 0.00056119018 0.037922778)
(-0.0042645206 -7.4040273e-05 0.04274897)
(0.002556525 -0.0020034231 0.044746627)
(0.0057847905 -0.0058920447 0.044612279)
(0.00599984 -0.012020851 0.043440711)
(-0.0015541075 -0.023378771 0.031841931)
(-0.014807124 -0.028279552 -0.0058649718)
(-0.018618299 -0.011869122 -0.053883291)
(0.0024708352 0.016914693 -0.087949036)
(0.049742729 0.042372455 -0.11079506)
(0.10571802 -0.0024880149 7.3103904e-05)
(0.12003955 -0.0025707223 0.00013675705)
(0.13289866 -0.002400339 0.00018299287)
(0.14337301 -0.0019478469 0.00021217264)
(0.15256017 -0.0012831034 0.00022730977)
(0.16096265 -0.00058395535 0.00023053692)
(0.16862415 4.840658e-05 0.0002225568)
(0.17554235 0.00058862529 0.00020106523)
(0.18177851 0.0010318528 0.00016377778)
(0.18744695 0.0013468645 0.00011629942)
(0.19274283 0.0014399652 7.6439701e-05)
(0.19811155 0.0011488416 9.6797247e-05)
(0.20377754 0.00051107313 0.0003331225)
(0.20998594 0.00034819579 0.00099472255)
(0.21670063 0.0013718669 0.0020265668)
(0.22297236 0.0026775215 0.0031805125)
(0.22786723 0.0040287693 0.0044310057)
(0.23184663 0.0056782247 0.0060817498)
(0.23554663 0.0075897426 0.0084790079)
(0.23944767 0.0095838388 0.011887419)
(0.24384747 0.011463836 0.016475362)
(0.2486478 0.013293184 0.022252172)
(0.25312756 0.015302351 0.029006349)
(0.25616368 0.017475744 0.036319941)
(0.25676127 0.019652003 0.043528019)
(0.25406145 0.02201177 0.049568564)
(0.2467294 0.025269409 0.0528928)
(0.2320568 0.030988463 0.051584199)
(0.20652199 0.041703952 0.043102352)
(0.11718232 0.066887225 0.025359502)
(0.099804221 -0.0039298055 7.2764761e-05)
(0.10012709 -0.004761382 0.0001408016)
(0.10160591 -0.0048834504 0.00019113216)
(0.10383453 -0.0045530884 0.00022154753)
(0.10654674 -0.0039615379 0.00023323077)
(0.10959966 -0.0033484553 0.00022586714)
(0.11285586 -0.0028449789 0.00019580655)
(0.11621202 -0.0025028226 0.00013663975)
(0.11963462 -0.0023858602 4.5157191e-05)
(0.12320298 -0.0026776133 -8.0990425e-05)
(0.12723854 -0.0038050166 -0.0002234539)
(0.13256773 -0.0065227041 -0.00030294571)
(0.14029015 -0.010893883 -0.00012290998)
(0.15039958 -0.010573478 0.00066159581)
(0.15983707 -0.0063680796 0.001455727)
(0.16696376 -0.0022343673 0.0016524141)
(0.17303572 0.00070524082 0.001434548)
(0.17888894 0.002675907 0.0012596682)
(0.18448777 0.0039306298 0.0013198602)
(0.19042042 0.0047652275 0.0015974259)
(0.19699659 0.0059480551 0.0021053238)
(0.20440381 0.0085924863 0.0030296326)
(0.21342052 0.013977682 0.004730334)
(0.22213238 0.021953974 0.0073346396)
(0.22954726 0.031451538 0.010753618)
(0.23459442 0.04161894 0.014109877)
(0.23527352 0.052808936 0.015575324)
(0.22818245 0.066527078 0.012856959)
(0.21178157 0.085343148 0.0033916825)
(0.15067738 0.11613396 -0.014765508)
(0.099951482 -0.0029411095 7.2609885e-05)
(0.099676421 -0.0042617966 0.00014004925)
(0.099142937 -0.0046829937 0.00019081433)
(0.098552168 -0.0047972601 0.0002217979)
(0.098042502 -0.0047957498 0.0002326083)
(0.097647945 -0.0047528325 0.00022097237)
(0.097318201 -0.0047334615 0.00017968801)
(0.096967568 -0.0048183401 9.7009483e-05)
(0.09649194 -0.0051587437 -3.8418365e-05)
(0.09579821 -0.0061024859 -0.00025004525)
(0.094976791 -0.0084605597 -0.00055879031)
(0.094936653 -0.014011149 -0.00096378988)
(0.09629491 -0.025099352 -0.0014883458)
(0.099894648 -0.023773859 -0.0011363486)
(0.10447869 -0.016839601 0.00032244799)
(0.10367473 -0.010414539 0.0002462817)
(0.099640918 -0.0046702769 -0.00090551612)
(0.092753968 -0.0002141863 -0.0025751293)
(0.085286161 0.0014861424 -0.0046555949)
(0.0759411 -0.00026824178 -0.0074347146)
(0.06379708 -0.004433422 -0.010457234)
(0.051713313 -0.0082599119 -0.012667398)
(0.043587262 -0.0088840919 -0.013417018)
(0.050331361 -0.0048239962 -0.012875005)
(0.06979307 0.0032270985 -0.012758548)
(0.10071826 0.017151013 -0.013576547)
(0.12488192 0.033080654 -0.015986089)
(0.13951426 0.052169714 -0.022316025)
(0.1460324 0.077597695 -0.034021519)
(0.12481266 0.11371797 -0.049306712)
(0.097940234 -0.0015781456 7.0532246e-05)
(0.096246737 -0.0023478554 0.00013490705)
(0.093567293 -0.0025990697 0.00018221679)
(0.090395273 -0.0026615157 0.00020915919)
(0.08722728 -0.0026394201 0.00021473248)
(0.08416152 -0.0025633406 0.00019594178)
(0.08110635 -0.0024735259 0.0001428231)
(0.077903522 -0.0024290868 3.8757053e-05)
(0.074281863 -0.0025397847 -0.00014401039)
(0.069710516 -0.0030606967 -0.00046727231)
(0.063087023 -0.0047047514 -0.0010607512)
(0.051899302 -0.00972555 -0.0022707477)
(0.034274159 -0.023524867 -0.0053713502)
(-0.01502895 -0.011474447 -0.013714268)
(-0.044458655 0.0050653714 -0.013476782)
(-0.06403139 0.0076830251 -0.011656464)
(-0.077676805 0.0073793519 -0.0092753304)
(-0.085073531 0.0044141025 -0.0053379442)
(-0.086366245 -0.0001582531 -0.00056830732)
(-0.079758589 -0.0048628476 0.0042772275)
(-0.07003384 -0.0091081624 0.0066078474)
(-0.060797238 -0.013215873 0.0069113307)
(-0.052622886 -0.01768964 0.0059945753)
(-0.044904001 -0.021705688 0.0041526424)
(-0.036734684 -0.022238307 0.00062725991)
(-0.030015224 -0.014578805 -0.010327284)
(-0.0083857562 0.008759632 -0.028763584)
(0.011487624 0.035883859 -0.045956906)
(0.030359951 0.06243291 -0.063632146)
(0.067141834 0.095209716 -0.078861433)
(0.10571839 -0.0024879687 -3.0624936e-05)
(0.12004155 -0.0025704702 -4.5538236e-05)
(0.13290405 -0.0023998886 -3.6886126e-05)
(0.14338392 -0.0019472636 -4.2366054e-06)
(0.15257992 -0.0012822043 5.0862196e-05)
(0.16099794 -0.00058152741 0.00012901914)
(0.16868428 5.3988631e-05 0.00023363576)
(0.17563958 0.00060006441 0.00037176557)
(0.18192742 0.0010525657 0.00055289383)
(0.1876565 0.0013858371 0.00078138434)
(0.19301015 0.0015217218 0.0010374051)
(0.19837138 0.0013025764 0.0012407413)
(0.20380556 0.00067695017 0.0011474827)
(0.20954927 0.00011100476 0.00039214913)
(0.21606331 0.00091569484 -0.00084576199)
(0.2224566 0.0021947733 -0.0020896891)
(0.22789398 0.0034735284 -0.0031492431)
(0.23257444 0.0050432718 -0.0042308126)
(0.23725092 0.007049761 -0.0056023155)
(0.24246241 0.0094102527 -0.0074594029)
(0.24836217 0.012164253 -0.0099986032)
(0.25448123 0.015474492 -0.013451924)
(0.25980583 0.019276513 -0.017989361)
(0.26321493 0.023323451 -0.023484651)
(0.26380671 0.027373428 -0.029377169)
(0.2607116 0.031484141 -0.034679929)
(0.2523611 0.036239389 -0.038067542)
(0.23573024 0.042678416 -0.038000865)
(0.20721759 0.052806705 -0.032132241)
(0.11075014 0.075261716 -0.018423275)
(0.099804674 -0.003929573 -2.8063564e-05)
(0.10012942 -0.0047606864 -3.956245e-05)
(0.10161223 -0.0048821578 -2.2582917e-05)
(0.10384784 -0.0045510348 2.570394e-05)
(0.10657237 -0.0039580765 0.00010534283)
(0.10964586 -0.0033409622 0.00021881134)
(0.11293271 -0.0028293558 0.00037368465)
(0.11633096 -0.0024709376 0.00058242925)
(0.11981026 -0.0023246377 0.00085909089)
(0.12344895 -0.0025509887 0.0012117008)
(0.12753873 -0.003527416 0.0016157913)
(0.13279062 -0.0059569787 0.0019490198)
(0.14021421 -0.010150112 0.001862878)
(0.14987481 -0.011458324 0.00073283425)
(0.15954757 -0.0078895708 -0.00047143753)
(0.16692301 -0.0036767352 -0.00071551549)
(0.17293527 -0.00065261267 -0.00020250422)
(0.1790271 0.0013600581 0.0005488695)
(0.1854298 0.0029120865 0.0013991232)
(0.19250676 0.0049198335 0.0023042496)
(0.20106869 0.0085342243 0.0030696583)
(0.21112728 0.01467604 0.0031878958)
(0.22185552 0.023502736 0.002096104)
(0.23212561 0.034251141 -0.00036970651)
(0.24070579 0.045894173 -0.0037852024)
(0.24599524 0.058193967 -0.0072522633)
(0.24517275 0.071521228 -0.0094477642)
(0.23381631 0.086484666 -0.0090716725)
(0.20982472 0.10473456 -0.0039492861)
(0.12397228 0.13241664 0.0094085488)
(0.099951979 -0.0029407878 -2.7239686e-05)
(0.099679036 -0.0042610613 -3.7557886e-05)
(0.099150232 -0.0046815993 -1.8798319e-05)
(0.098568117 -0.0047948091 3.3747748e-05)
(0.098074758 -0.0047913837 0.00012285236)
(0.097708869 -0.0047438996 0.00025445026)
(0.097424865 -0.004715253 0.00044257196)
(0.09714189 -0.0047812963 0.00071103972)
(0.09677664 -0.0050796991 0.0010924066)
(0.09626904 -0.0059188161 0.0016379422)
(0.09570658 -0.0080111736 0.0024021743)
(0.095799564 -0.01290635 0.0033914511)
(0.09730475 -0.02274269 0.0043950625)
(0.099881775 -0.025312458 0.0036560866)
(0.10537205 -0.018838027 0.0013175267)
(0.10468814 -0.012326841 0.0015828387)
(0.10179939 -0.0067475514 0.0036613224)
(0.096599319 -0.0022246044 0.0068078993)
(0.091857231 0.00013829436 0.010720147)
(0.087126984 -3.385799e-05 0.015289951)
(0.082720618 -0.0013062925 0.019122393)
(0.083114841 -0.0013486779 0.020597769)
(0.091103885 0.0019064881 0.019264887)
(0.10811641 0.0098312167 0.016543533)
(0.13043033 0.022730371 0.013197016)
(0.15028865 0.038618253 0.0095477425)
(0.16457195 0.055835622 0.0075467245)
(0.16820874 0.075701535 0.0084708536)
(0.16064193 0.10120085 0.013657232)
(0.10027975 0.13806389 0.023914595)
(0.097940726 -0.0015779767 -2.6201289e-05)
(0.096249462 -0.0023474765 -3.5128406e-05)
(0.093575092 -0.0025983668 -1.4584487e-05)
(0.090412748 -0.002660361 4.0850516e-05)
(0.08726418 -0.002637523 0.00013527153)
(0.084233898 -0.0025594186 0.0002767736)
(0.081236529 -0.0024652727 0.00048548987)
(0.078130269 -0.0024122512 0.00079770311)
(0.074692054 -0.0024993291 0.0012777648)
(0.070500288 -0.0029544959 0.0020533971)
(0.064679611 -0.0043955131 0.0033827578)
(0.055245673 -0.0087016607 0.0058577921)
(0.04021559 -0.020388997 0.011075181)
(0.0035249674 -0.018949918 0.020329657)
(-0.034476767 0.002460946 0.018443298)
(-0.05362186 0.0054651518 0.014733211)
(-0.06962375 0.0055904665 0.012391073)
(-0.077739381 0.00290474 0.0082907665)
(-0.078818981 -0.0018117647 0.0017578175)
(-0.071173325 -0.006904559 -0.0068430722)
(-0.061747891 -0.011268964 -0.013919489)
(-0.052413597 -0.015034846 -0.019124184)
(-0.043437816 -0.017625613 -0.022779693)
(-0.033745081 -0.017467334 -0.024692757)
(-0.021002918 -0.012197046 -0.022881574)
(0.0090213204 0.0094163381 -0.0086727601)
(0.029245777 0.031739086 -0.0027196346)
(0.038299819 0.05288014 0.0053789253)
(0.049380434 0.081248002 0.017698639)
(0.058120425 0.11993807 0.030399523)
(0.10573575 -0.0024839158 -0.0001734842)
(0.12010317 -0.0025630948 -0.00030535163)
(0.1330207 -0.0023902062 -0.00037202779)
(0.14355362 -0.0019370281 -0.0003751035)
(0.15279784 -0.0012741516 -0.000320668)
(0.16126134 -0.00057890136 -0.00020969183)
(0.16899779 5.1408295e-05 -4.4294041e-05)
(0.17601711 0.00059731747 0.00017581583)
(0.18238439 0.0010631525 0.00045361986)
(0.18819295 0.0014413084 0.0007758385)
(0.19357112 0.0016900719 0.0010846623)
(0.19873201 0.0017003478 0.0012121944)
(0.20345285 0.0013153467 0.00074109266)