/*--------------------------------*- C++ -*----------------------------------*\
| =========                 |                                                 |
| \\      /  F ield         | OpenFOAM: The Open Source CFD Toolbox           |
|  \\    /   O peration     | Version:  v2012                                 |
|   \\  /    A nd           | Website:  www.openfoam.com                      |
|    \\/     M anipulation  |                                                 |
\*---------------------------------------------------------------------------*/
FoamFile
{
    version     2.0;
    format      ascii;
    class       volScalarField;
    location    "660/heater";
    object      T;
}
// * * * * * * * * * * * * * * * * * * * * * * * * * * * * * * * * * * * * * //

dimensions      [0 0 0 1 0 0 0];


internalField   nonuniform List<scalar> 
80
(
732.38477
734.52612
738.69822
744.6172
723.1687
725.6238
730.49809
737.4884
703.72348
706.86738
713.23364
722.65697
671.92154
675.88157
684.40273
698.17475
345.5629
342.83501
342.82839
345.45068
422.27653
418.95813
419.11741
422.56729
487.92756
485.15675
485.80432
489.40996
543.84355
542.13742
543.98075
548.37413
590.06344
590.24702
594.80249
602.27046
625.17155
628.78001
638.2193
657.27857
345.54278
342.83028
342.82883
345.43195
422.25379
418.96323
419.13362
422.5665
487.9143
485.16639
485.82926
489.43738
543.80095
542.12746
543.99865
548.38869
590.01399
590.23318
594.81043
602.27535
625.18767
628.80787
638.25676
657.3174
672.05201
676.04332
684.58724
698.34332
704.12698
707.30111
713.65583
722.99406
723.84042
726.25069
731.04073
737.89693
733.26524
735.23057
739.24622
745.00626
)
;

boundaryField
{
    minY
    {
        type            fixedValue;
        value           uniform 300;
    }
    minZ
    {
        type            zeroGradient;
    }
    maxZ
    {
        type            zeroGradient;
    }
    heater_to_topAir
    {
        type            compressible::turbulentTemperatureCoupledBaffleMixed;
        refValue        nonuniform List<scalar> 
40
(
518.74361
515.7182
510.24544
503.08654
482.04646
470.12306
457.40994
446.13745
492.65851
481.72484
470.14812
459.31769
507.45547
503.77262
502.47517
503.06609
504.85908
502.36859
503.05815
505.28964
504.78558
502.67198
503.674
505.76052
507.10158
503.41465
502.14221
502.64094
492.65058
481.49313
469.71011
458.6922
482.23903
470.24915
457.61798
446.5969
519.18956
516.06209
510.49325
503.28649
)
;
        refGradient     uniform 0;
        valueFraction   nonuniform List<scalar> 
40
(
0.00032132529
0.00032132529
0.00032132529
0.00032132529
0.00032132529
0.00032132529
0.00032132529
0.00032132529
0.00032132529
0.00032132529
0.00032132529
0.00032132529
0.00032132529
0.00032132529
0.00032132529
0.00032132529
0.00032132529
0.00032132529
0.00032132529
0.00032132529
0.00032132529
0.00032132529
0.00032132529
0.00032132529
0.00032132529
0.00032132529
0.00032132529
0.00032132529
0.00032132529
0.00032132529
0.00032132529
0.00032132529
0.00032132529
0.00032132529
0.00032132529
0.00032132529
0.00032132529
0.00032132529
0.00032132529
0.00032132529
)
;
        value           nonuniform List<scalar> 
40
(
732.31651
734.4563
738.62536
744.54021
723.09126
725.54199
730.4108
737.39535
703.65565
706.79516
713.15595
722.5729
671.86889
675.8266
684.34469
698.11256
625.13308
628.73964
638.17619
657.23016
625.14916
628.76757
638.21381
657.26909
671.9992
675.98811
684.52897
698.28088
704.0592
707.22878
713.57777
722.90961
723.76297
726.16862
730.95313
737.80373
733.19672
735.16034
739.17296
744.92896
)
;
        Tnbr            T;
        thicknessLayers List<scalar> 0();
        kappaLayers     List<scalar> 0();
        kappaMethod     solidThermo;
        kappa           none;
        alphaAni        none;
        alpha           none;
        field           T;
    }
    heater_to_rightSolid
    {
        type            compressible::turbulentTemperatureCoupledBaffleMixed;
        refValue        nonuniform List<scalar> 10(751.85789 746.04496 734.38467 716.95548 696.34908 696.39487 717.11835 734.6147 746.29765 752.08727);
        refGradient     uniform 0;
        valueFraction   nonuniform List<scalar> 10(0.49999997 0.49999997 0.49999997 0.49999997 0.49999997 0.49999997 0.49999997 0.49999997 0.49999997 0.49999997);
        value           nonuniform List<scalar> 10(748.23786 741.76696 728.5211 707.56537 676.81404 676.85633 707.73106 728.80462 742.09749 748.54695);
        Tnbr            T;
        thicknessLayers List<scalar> 0();
        kappaLayers     List<scalar> 0();
        kappaMethod     solidThermo;
        kappa           none;
        alphaAni        none;
        alpha           none;
        field           T;
    }
    heater_to_leftSolid
    {
        type            compressible::turbulentTemperatureCoupledBaffleMixed;
        refValue        nonuniform List<scalar> 10(921.09356 921.13418 921.23859 921.35853 921.49248 921.66781 921.94293 922.40376 922.80673 923.0252);
        refGradient     uniform 0;
        valueFraction   nonuniform List<scalar> 10(2.0832898e-05 2.0832898e-05 2.0832898e-05 2.0832898e-05 2.0832898e-05 2.0832898e-05 2.0832898e-05 2.0832898e-05 2.0832898e-05 2.0832898e-05);
        value           nonuniform List<scalar> 10(732.38909 723.17287 703.728 671.92693 625.17792 625.19402 672.05741 704.1317 723.84475 733.26946);
        Tnbr            T;
        thicknessLayers List<scalar> 1(0.001);
        kappaLayers     List<scalar> 1(0.0005);
        kappaMethod     solidThermo;
        kappa           none;
        alphaAni        none;
        alpha           none;
        field           T;
    }
    heater_to_bottomWater
    {
        type            compressible::turbulentTemperatureCoupledBaffleMixed;
        refValue        nonuniform List<scalar> 
92
(
922.52264
921.4336
922.40662
923.027
932.43535
920.11625
918.78964
919.82331
937.02163
926.75393
917.27019
916.23264
931.02223
926.42943
921.51488
917.25816
928.35847
925.96768
920.47344
918.29587
928.48533
926.77286
922.13972
918.03046
930.1483
929.60134
920.77637
917.19978
932.33361
932.33361
927.68189
927.68189
921.97802
921.97802
918.39737
918.39737
932.47637
902.95872
928.24877
905.29115
924.72723
899.82393
934.02839
907.89471
939.8366
903.75049
930.54477
927.67694
926.56304
925.06485
897.69447
920.41048
924.50117
931.49987
931.53191
928.92779
903.42173
921.67008
924.52861
933.34714
933.63599
929.72727
903.35877
920.54995
931.2168
927.22352
928.6555
928.3109
908.02014
919.21128
936.14942
922.71653
923.94669
923.01198
903.12287
916.72635
922.71653
923.94669
923.01198
916.72635
932.00888
933.09444
931.09293
923.87783
937.86042
931.1011
932.03903
928.5139
950.85709
927.73841
927.79387
926.16192
)
;
        refGradient     uniform 0;
        valueFraction   nonuniform List<scalar> 
92
(
0.0075140686
0.0075140686
0.0075140686
0.0075140686
0.0075140686
0.0075140686
0.0075140686
0.0075140686
0.0075140686
0.0075140686
0.0075140686
0.0075140686
0.0075140686
0.0075140686
0.0075140686
0.0075140686
0.0075140686
0.0075140686
0.0075140686
0.0075140686
0.0075140686
0.0075140686
0.0075140686
0.0075140686
0.0075140686
0.0075140686
0.0075140686
0.0075140686
0.0075140686
0.0075140686
0.0075140686
0.0075140686
0.0075140686
0.0075140686
0.0075140686
0.0075140686
0.0075140679
0.0075140679
0.0075140679
0.0075140679
0.0075140679
0.0075140679
0.0075140679
0.0075140679
0.0075140679
0.0075140679
0.0075140679
0.0075140686
0.0075140686
0.0075140686
0.0075140679
0.0075140686
0.0075140679
0.0075140686
0.0075140686
0.0075140686
0.0075140679
0.0075140686
0.0075140679
0.0075140686
0.0075140686
0.0075140686
0.0075140679
0.0075140686
0.0075140679
0.0075140686
0.0075140686
0.0075140686
0.0075140679
0.0075140686
0.0075140679
0.0075140686
0.0075140686
0.0075140686
0.0075140679
0.0075140686
0.0075140686
0.0075140686
0.0075140686
0.0075140686
0.0075140686
0.0075140686
0.0075140686
0.0075140686
0.0075140686
0.0075140686
0.0075140686
0.0075140686
0.0075140686
0.0075140686
0.0075140686
0.0075140686
)
;
        value           nonuniform List<scalar> 
92
(
733.81386
735.93104
740.07916
745.9584
724.74119
727.08552
731.91338
738.85904
705.47649
708.51974
714.76721
724.11206
349.96218
347.22027
347.17676
349.74732
426.07944
422.768
422.88478
426.29236
491.23814
488.47528
489.08315
492.63087
546.74636
545.04903
546.81224
551.14578
673.87849
592.63536
677.77395
592.78274
686.18831
597.26118
699.83002
604.64621
349.9731
349.63987
426.07861
426.19464
491.2099
492.49407
546.77552
551.07586
592.69174
604.53615
349.93857
349.91702
347.21651
347.2038
349.58162
349.75231
426.02775
426.08034
422.81479
422.96433
426.17968
426.3168
491.195
491.26126
488.53633
489.16488
492.54774
492.67692
546.71195
546.68194
545.03198
546.88661
551.0912
551.17529
592.61488
592.51394
592.74089
597.27682
604.53622
604.63844
673.93571
677.90634
686.37914
699.98471
705.83948
708.99797
715.28999
724.50399
725.44877
727.79014
732.5513
739.32964
734.90051
736.67729
740.66322
746.36785
)
;
        Tnbr            T;
        thicknessLayers List<scalar> 0();
        kappaLayers     List<scalar> 0();
        kappaMethod     solidThermo;
        kappa           none;
        alphaAni        none;
        alpha           none;
        field           T;
    }
}


// ************************************************************************* //
