/*--------------------------------*- C++ -*----------------------------------*\
| =========                 |                                                 |
| \\      /  F ield         | OpenFOAM: The Open Source CFD Toolbox           |
|  \\    /   O peration     | Version:  v2012                                 |
|   \\  /    A nd           | Website:  www.openfoam.com                      |
|    \\/     M anipulation  |                                                 |
\*---------------------------------------------------------------------------*/
FoamFile
{
    version     2.0;
    format      ascii;
    class       surfaceScalarField;
    location    "180/topAir";
    object      phi;
}
// * * * * * * * * * * * * * * * * * * * * * * * * * * * * * * * * * * * * * //

dimensions      [1 0 -1 0 0 0 0];
oriented        oriented;


internalField   nonuniform List<scalar> 
3140
(
9.4370867e-06
-2.4299582e-07
7.4965712e-08
9.579599e-06
-2.3012603e-07
8.7769874e-08
9.7263077e-06
-2.2709413e-07
8.0600734e-08
9.8497681e-06
-1.8948601e-07
6.6282236e-08
9.942148e-06
-1.3882123e-07
4.6734298e-08
1.0009789e-05
-8.8844375e-08
2.1529041e-08
1.0065818e-05
-4.3950431e-08
-1.1723902e-08
1.0142501e-05
-7.8923826e-09
-6.8403367e-08
1.0242483e-05
4.4244141e-08
-1.4383125e-07
1.0382442e-05
1.117793e-07
-2.5134681e-07
1.0569703e-05
2.161164e-07
-4.0299153e-07
1.0787851e-05
3.9434482e-07
-6.1211682e-07
1.0994093e-05
6.8263708e-07
-8.8852317e-07
1.11665e-05
1.0661729e-06
-1.2382734e-06
1.1267566e-05
1.5397585e-06
-1.6405836e-06
1.1294973e-05
2.0355794e-06
-2.0628287e-06
1.1275235e-05
2.4859149e-06
-2.4661039e-06
1.1241819e-05
2.850314e-06
-2.8168987e-06
1.1213884e-05
3.1222964e-06
-3.0944213e-06
1.1197183e-05
3.3104981e-06
-3.2939055e-06
1.1198212e-05
3.4225555e-06
-3.4237446e-06
1.1227389e-05
3.4673028e-06
-3.4967071e-06
1.1292839e-05
3.4573021e-06
-3.52307e-06
1.1393698e-05
3.4067389e-06
-3.5080252e-06
1.1513323e-05
3.3308967e-06
-3.4510826e-06
1.1608623e-05
3.2489779e-06
-3.3450001e-06
1.1588114e-05
3.1924861e-06
-3.1729052e-06
1.1262694e-05
3.2271642e-06
-2.9029302e-06
1.0245282e-05
3.4981834e-06
-2.4822668e-06
4.3774404e-06
-1.8361689e-06
9.1348992e-06
-1.9014313e-07
8.1217609e-08
9.0903048e-06
-2.9113686e-07
1.0561164e-07
9.064123e-06
-3.1390463e-07
1.1300506e-07
9.0719102e-06
-3.1434466e-07
1.1709131e-07
9.1138897e-06
-2.9847658e-07
1.17704e-07
9.1846063e-06
-2.7299183e-07
1.1346832e-07
9.2840895e-06
-2.4680203e-07
1.0341611e-07
9.4200173e-06
-2.2907171e-07
8.5311592e-08
9.6156552e-06
-2.067781e-07
5.5518233e-08
9.8858509e-06
-1.6821131e-07
1.0027709e-08
1.0262639e-05
-8.4961062e-08
-7.5368362e-08
1.0757623e-05
1.0543884e-07
-2.0565436e-07
1.1332223e-05
5.0635418e-07
-3.9784006e-07
1.1883376e-05
1.1774221e-06
-6.6192842e-07
1.2324374e-05
2.0855667e-06
-9.8639038e-07
1.2604222e-05
3.0879233e-06
-1.3318713e-06
1.2746305e-05
3.9931334e-06
-1.6490891e-06
1.2799399e-05
4.7015502e-06
-1.9042298e-06
1.2793902e-05
5.2136748e-06
-2.0859066e-06
1.2750678e-05
5.5602067e-06
-2.2066576e-06
1.2698576e-05
5.7619196e-06
-2.2876165e-06
1.2662269e-05
5.8411984e-06
-2.3381755e-06
1.2655019e-05
5.8223726e-06
-2.3587011e-06
1.2676304e-05
5.7275364e-06
-2.3433221e-06
1.2707692e-05
5.5761802e-06
-2.2783566e-06
1.2705024e-05
5.389106e-06
-2.1396913e-06
1.2576178e-05
5.2056107e-06
-1.8871777e-06
1.2138563e-05
5.1182801e-06
-1.4572132e-06
1.1096357e-05
5.3176423e-06
-7.8181466e-07
6.0406473e-06
1.5880837e-07
9.1912998e-06
-1.9547894e-07
8.2994997e-08
9.0474566e-06
-2.5634778e-07
1.0905375e-07
8.8833706e-06
-2.6865626e-07
1.1883755e-07
8.7119478e-06
-2.6945982e-07
1.2653835e-07
8.5435306e-06
-2.6337236e-07
1.3331396e-07
8.3834092e-06
-2.5180413e-07
1.3893568e-07
8.2313667e-06
-2.3899129e-07
1.4423469e-07
8.0807382e-06
-2.291887e-07
1.5075006e-07
7.9369171e-06
-2.2469863e-07
1.6174927e-07
7.8176317e-06
-2.2816258e-07
1.7924923e-07
7.778375e-06
-2.4716623e-07
2.014803e-07
7.9326875e-06
-2.6655742e-07
2.1774635e-07
8.3911907e-06
-1.606135e-07
2.0860056e-07
9.1677004e-06
2.3757725e-07
1.6357561e-07
1.0055006e-05
1.1173912e-06
8.1201792e-08
1.079049e-05
2.3430135e-06
9.8063393e-09
1.1353276e-05
3.4071692e-06
2.3557583e-08
1.1777675e-05
4.1578065e-06
1.1967764e-07
1.2064515e-05
4.6295319e-06
2.9755626e-07
1.2218959e-05
4.8929699e-06
5.1293749e-07
1.2296389e-05
5.0115925e-06
6.7292263e-07
1.2340894e-05
5.0168355e-06
7.7975e-07
1.2373496e-05
4.9283951e-06
8.6112377e-07
1.2394189e-05
4.7698231e-06
9.3661738e-07
1.238166e-05
4.5633002e-06
1.0248445e-06
1.2301929e-05
4.3319714e-06
1.1361212e-06
1.2102124e-05
4.1086598e-06
1.2957889e-06
1.1696372e-05
3.966126e-06
1.5566155e-06
1.0916701e-05
4.0939949e-06
2.0015073e-06
4.9091543e-06
2.768867e-06
8.9924064e-06
8.106543e-08
8.6300933e-06
1.0596487e-07
8.2468385e-06
1.1459813e-07
7.8567577e-06
1.2062057e-07
7.4678922e-06
1.254929e-07
7.0867898e-06
1.2929798e-07
6.7145509e-06
1.3324766e-07
6.3459264e-06
1.394359e-07
5.9701377e-06
1.5109059e-07
5.5685653e-06
1.7341069e-07
5.1062145e-06
2.1518636e-07
4.5470145e-06
2.926459e-07
3.9547136e-06
4.316983e-07
3.5263064e-06
6.6604665e-07
3.5969709e-06
1.0470158e-06
4.3191142e-06
1.6213978e-06
5.3831338e-06
2.3437355e-06
6.480346e-06
3.0611509e-06
7.4512676e-06
3.6591059e-06
8.2429073e-06
4.1017317e-06
8.8697484e-06
4.3850471e-06
9.3687e-06
4.5180749e-06
9.7714154e-06
4.5257694e-06
1.0078369e-05
4.4628652e-06
1.027544e-05
4.3661378e-06
1.0343172e-05
4.2640647e-06
1.0276686e-05
4.1748752e-06
1.0130318e-05
4.112085e-06
1.0119794e-05
4.1038356e-06
4.0322408e-06
9.5521695e-06
-2.4210194e-07
3.3954861e-08
9.81533e-06
-2.3035611e-07
5.5112554e-08
1.0072456e-05
-2.3725033e-07
6.0922921e-08
1.0295408e-05
-2.1547015e-07
5.9034745e-08
1.0475028e-05
-1.8507909e-07
5.2454888e-08
1.0616823e-05
-1.6092293e-07
4.0935576e-08
1.0730195e-05
-1.4759388e-07
2.2783072e-08
1.0816882e-05
-1.4929153e-07
-5.5178725e-09
1.0879307e-05
-1.7045783e-07
-3.5535327e-08
1.0925072e-05
-2.1702446e-07
-7.9851518e-08
1.0957224e-05
-2.9295876e-07
-1.4198785e-07
1.097762e-05
-4.0459053e-07
-2.2777713e-07
1.098687e-05
-5.537713e-07
-3.4392753e-07
1.1023008e-05
-7.7267296e-07
-5.0177197e-07
1.1095652e-05
-1.0089282e-06
-7.0444964e-07
1.1217176e-05
-1.2328065e-06
-9.5179686e-07
1.1388008e-05
-1.4002186e-06
-1.2370249e-06
1.1592609e-05
-1.4829546e-06
-1.5388658e-06
1.1797832e-05
-1.477392e-06
-1.8225734e-06
1.196983e-05
-1.4079844e-06
-2.0582506e-06
1.2102846e-05
-1.3183503e-06
-2.2387867e-06
1.221596e-05
-1.2402171e-06
-2.3700739e-06
1.2334106e-05
-1.1840065e-06
-2.4578027e-06
1.2475952e-05
-1.1470671e-06
-2.5035196e-06
1.2649633e-05
-1.1201631e-06
-2.505441e-06
1.285e-05
-1.0860231e-06
-2.4603376e-06
1.3048091e-05
-1.0092623e-06
-2.3629835e-06
1.3155677e-05
-8.0916104e-07
-2.2030258e-06
1.3008218e-05
-3.5288953e-07
-1.984061e-06
1.2406649e-06
-1.7010227e-06
9.2624678e-06
-1.9142067e-07
3.7037977e-08
9.3667548e-06
-2.947e-07
6.5674171e-08
9.485261e-06
-3.220729e-07
7.9332544e-08
9.6329293e-06
-3.313175e-07
8.5287309e-08
9.8084221e-06
-3.2979014e-07
8.6946025e-08
1.0001519e-05
-3.2454667e-07
8.4025546e-08
1.0206183e-05
-3.2418187e-07
7.5377095e-08
1.0419273e-05
-3.3619153e-07
5.9164285e-08
1.0639968e-05
-3.6815421e-07
3.2566289e-08
1.0871324e-05
-4.2946108e-07
-8.8426332e-09
1.1108998e-05
-5.3290966e-07
-7.3045522e-08
1.1358767e-05
-6.9129571e-07
-1.6868345e-07
1.1632288e-05
-9.1686725e-07
-3.0825066e-07
1.1919337e-05
-1.215514e-06
-5.0615257e-07
1.2250488e-05
-1.550616e-06
-7.7591146e-07
1.2629547e-05
-1.8275512e-06
-1.1162728e-06
1.3035357e-05
-1.9592427e-06
-1.4959584e-06
1.342663e-05
-1.9307881e-06
-1.8477192e-06
1.3740227e-05
-1.7692536e-06
-2.1076667e-06
1.3932797e-05
-1.5313737e-06
-2.2758362e-06
1.402203e-05
-1.3056408e-06
-2.3895304e-06
1.4050062e-05
-1.127142e-06
-2.479236e-06
1.4048109e-05
-9.8790623e-07
-2.5527687e-06
1.4044527e-05
-8.9138951e-07
-2.5952823e-06
1.4070653e-05
-8.4155491e-07
-2.5828784e-06
1.4182107e-05
-8.4314169e-07
-2.4937297e-06
1.4501123e-05
-8.9434465e-07
-2.3207271e-06
1.5278949e-05
-9.7118515e-07
-2.0725198e-06
1.7018113e-05
-1.0896656e-06
-1.7838093e-06
-9.4644704e-07
-1.6576176e-06
9.3206662e-06
-1.97846e-07
3.7713124e-08
9.3274553e-06
-2.5983562e-07
6.7399789e-08
9.3150134e-06
-2.7371771e-07
8.2924058e-08
9.2968535e-06
-2.7813919e-07
9.1520253e-08
9.2814811e-06
-2.7791338e-07
9.6810333e-08
9.2712622e-06
-2.7447384e-07
9.9083183e-08
9.2654384e-06
-2.7222056e-07
9.8099458e-08
9.2623734e-06
-2.7598753e-07
9.3614427e-08
9.2613743e-06
-2.9072668e-07
8.5325306e-08
9.2627319e-06
-3.2396991e-07
7.2406422e-08
9.2684133e-06
-3.8927799e-07
5.217443e-08
9.284164e-06
-5.0924092e-07
1.9950013e-08
9.3341646e-06
-7.0773862e-07
-5.0518282e-08
9.4573169e-06
-1.0032238e-06
-1.7185929e-07
9.6935144e-06
-1.3508829e-06
-3.5473633e-07
1.0055588e-05
-1.579943e-06
-5.9985362e-07
1.0510848e-05
-1.5373237e-06
-8.53526e-07
1.0980652e-05
-1.2846794e-06
-9.9606443e-07
1.1365254e-05
-9.3191153e-07
-9.2433838e-07
1.1599974e-05
-5.3070704e-07
-7.2252112e-07
1.1669309e-05
-1.616049e-07
-5.4068824e-07
1.1682832e-05
5.7392099e-08
-4.1908154e-07
1.1695569e-05
1.8630722e-07
-3.272606e-07
1.1726635e-05
2.2224e-07
-2.1009641e-07
1.180194e-05
1.8529416e-07
-7.9912543e-08
1.1873925e-05
8.3210054e-08
1.3505521e-07
1.1980482e-05
-6.6564938e-08
3.5900933e-07
1.2178024e-05
-2.3834716e-07
6.2369035e-07
1.264182e-05
-4.2672325e-07
8.7197339e-07
-5.7171862e-07
8.8055207e-07
9.1155052e-06
3.6664927e-08
8.8965192e-06
6.5114845e-08
8.6577071e-06
7.9692089e-08
8.4127027e-06
8.7485381e-08
8.1682054e-06
9.2076559e-08
7.9291197e-06
9.3909503e-08
7.6970929e-06
9.3053844e-08
7.4706901e-06
8.9851243e-08
7.2461314e-06
8.4922898e-08
7.0161851e-06
7.9387716e-08
6.7666865e-06
7.5408146e-08
6.4728336e-06
7.7259667e-08
6.1052642e-06
9.1533205e-08
5.6409539e-06
1.271511e-07
5.1211852e-06
2.1600736e-07
4.7355809e-06
4.2742159e-07
4.7302434e-06
8.1244853e-07
5.1317829e-06
1.3757941e-06
5.6682661e-06
2.1915158e-06
6.1698166e-06
3.0701114e-06
6.6370395e-06
3.7566598e-06
7.062214e-06
4.1507446e-06
7.4583668e-06
4.3163372e-06
7.7936066e-06
4.3502361e-06
8.0432901e-06
4.3020754e-06
8.200623e-06
4.1901543e-06
8.3032298e-06
4.0053442e-06
8.4594422e-06
3.7168703e-06
8.6832721e-06
3.4523757e-06
2.889611e-06
9.5283419e-06
-2.4335004e-07
1.8020213e-08
9.7827606e-06
-2.3015012e-07
3.0997105e-08
1.0040213e-05
-2.3369074e-07
3.7370105e-08
1.0267239e-05
-2.0703585e-07
3.9292056e-08
1.0452731e-05
-1.7137424e-07
3.8617118e-08
1.0599492e-05
-1.4164903e-07
3.6130507e-08
1.0712335e-05
-1.2187739e-07
3.2147491e-08
1.0792774e-05
-1.1262045e-07
2.7010599e-08
1.084914e-05
-1.1292227e-07
2.1385756e-08
1.0880942e-05
-1.254477e-07
1.417272e-08
1.0888832e-05
-1.5344202e-07
3.9564561e-09
1.0868244e-05
-2.00936e-07
-5.8497164e-09
1.0809928e-05
-2.7058725e-07
-1.4614527e-08
1.0752609e-05
-4.1579527e-07
-2.8273849e-08
1.0704299e-05
-6.0393747e-07
-5.1867174e-08
1.0699175e-05
-8.5885014e-07
-8.7565026e-08
1.0784858e-05
-1.1864904e-06
-1.3605164e-07
1.0977462e-05
-1.5422896e-06
-1.8908446e-07
1.1225156e-05
-1.83759e-06
-2.3259393e-07
1.1462082e-05
-2.0306902e-06
-2.6435091e-07
1.1656778e-05
-2.1441655e-06
-2.8907608e-07
1.1815722e-05
-2.2201089e-06
-3.0849884e-07
1.1962288e-05
-2.2836973e-06
-3.1998199e-07
1.2117136e-05
-2.3384587e-06
-3.1880466e-07
1.2291526e-05
-2.3769772e-06
-3.011992e-07
1.2493792e-05
-2.391079e-06
-2.692438e-07
1.2735347e-05
-2.3663384e-06
-2.3530388e-07
1.2979649e-05
-2.2153679e-06
-2.2852003e-07
1.2959109e-05
-1.6249546e-06
-3.3512314e-07
-1.4918249e-07
-8.2418089e-07
9.2343091e-06
-1.9098086e-07
1.9329145e-08
9.3275978e-06
-2.9341342e-07
3.5654896e-08
9.446477e-06
-3.1865245e-07
4.5426905e-08
9.5992153e-06
-3.2439946e-07
4.9930865e-08
9.7819725e-06
-3.1791732e-07
5.0757412e-08
9.9822482e-06
-3.0600303e-07
4.8137099e-08
1.0190652e-05
-2.9636149e-07
4.1498895e-08
1.0401239e-05
-2.939217e-07
2.9928177e-08
1.0611291e-05
-3.0235088e-07
1.2001728e-08
1.0817855e-05
-3.2654011e-07
-1.4247068e-08
1.1017571e-05
-3.7422909e-07
-5.1900362e-08
1.1209306e-05
-4.5526982e-07
-1.0600431e-07
1.1396251e-05
-5.8260774e-07
-1.8309233e-07
1.1552755e-05
-7.8537183e-07
-2.9300029e-07
1.1706076e-05
-1.0867927e-06
-4.4631159e-07
1.1883718e-05
-1.4990221e-06
-6.5369987e-07
1.2117356e-05
-2.0057615e-06
-9.1030099e-07
1.2377719e-05
-2.480554e-06
-1.169782e-06
1.2556707e-05
-2.7383541e-06
-1.3857908e-06
1.2587542e-05
-2.7688201e-06
-1.5683454e-06
1.2475739e-05
-2.6869483e-06
-1.734632e-06
1.2272692e-05
-2.6078391e-06
-1.8879941e-06
1.2033549e-05
-2.578337e-06
-2.0183194e-06
1.1798031e-05
-2.5881431e-06
-2.1091676e-06
1.1592671e-05
-2.6076264e-06
-2.1457e-06
1.145841e-05
-2.6339084e-06
-2.1152246e-06
1.1498722e-05
-2.711541e-06
-2.0141913e-06
1.2062838e-05
-2.8903088e-06
-1.9597226e-06
1.3857865e-05
-2.9978134e-06
-2.2050651e-06
-2.5935579e-06
-2.8163462e-06
9.293516e-06
-1.9740301e-07
1.9578198e-08
9.290171e-06
-2.589237e-07
3.6254724e-08
9.2792465e-06
-2.716266e-07
4.6822608e-08
9.2683237e-06
-2.7441037e-07
5.2454198e-08
9.2645962e-06
-2.7201253e-07
5.4633842e-08
9.2696638e-06
-2.6555066e-07
5.3564868e-08
9.2815734e-06
-2.5886802e-07
4.8698858e-08
9.297598e-06
-2.5550779e-07
3.9179478e-08
9.3150636e-06
-2.5824719e-07
2.3760781e-08
9.3307323e-06
-2.7050722e-07
7.1112582e-10
9.3410237e-06
-2.9815341e-07
-3.4184996e-08
9.3431562e-06
-3.5135259e-07
-8.6090395e-08
9.3246576e-06
-4.4914011e-07
-1.6547699e-07
9.2687159e-06
-6.1858625e-07
-2.8269245e-07
9.1782073e-06
-8.9703489e-07
-4.5397574e-07
9.0918414e-06
-1.3159291e-06
-6.9656525e-07
9.0722593e-06
-1.844924e-06
-9.947284e-07
9.1052607e-06
-2.2650428e-06
-1.2443794e-06
9.0637615e-06
-2.2877667e-06
-1.3330039e-06
8.8454281e-06
-1.9516581e-06
-1.3207216e-06
8.4397673e-06
-1.5121616e-06
-1.3090022e-06
7.9480691e-06
-1.1730137e-06
-1.3611109e-06
7.4645283e-06
-1.0002062e-06
-1.4203262e-06
7.0676721e-06
-9.7868508e-07
-1.420705e-06
6.803241e-06
-1.0846938e-06
-1.3360334e-06
6.7432908e-06
-1.2908331e-06
-1.14563e-06
6.8167882e-06
-1.6160976e-06
-8.0747775e-07
7.4018318e-06
-2.0683483e-06
-7.8050501e-07
9.0477622e-06
-2.5368563e-06
-1.2314353e-06
-2.5856822e-06
-2.3448319e-06
9.0890984e-06
1.9114198e-08
8.8600577e-06
3.5231413e-08
8.6228237e-06
4.5299113e-08
8.3853843e-06
5.0513952e-08
8.1530666e-06
5.2381493e-08
7.9302192e-06
5.1206021e-08
7.7178108e-06
4.659412e-08
7.5142373e-06
3.7916915e-08
7.3166364e-06
2.4276873e-08
7.120968e-06
4.5494208e-09
6.9216801e-06
-2.3456451e-08
6.7099369e-06
-6.2348256e-08
6.4686162e-06
-1.1628405e-07
6.1678856e-06
-1.9070067e-07
5.7779754e-06
-2.9110577e-07
5.3094261e-06
-4.1991391e-07
4.8506427e-06
-5.7354624e-07
4.6047057e-06
-6.4284555e-07
4.6726553e-06
-1.6345787e-07
4.7478266e-06
1.0440156e-06
4.7702939e-06
2.2225744e-06
4.9214454e-06
2.8269336e-06
5.1592078e-06
3.078485e-06
5.4072231e-06
3.1234198e-06
5.5918574e-06
3.0323979e-06
5.666127e-06
2.8244312e-06
5.6048481e-06
2.4495054e-06
5.8851252e-06
1.3668946e-06
6.6545725e-06
1.4468024e-07
-2.001854e-06
9.5230415e-06
-2.4344816e-07
7.4840139e-09
9.7703549e-06
-2.2960219e-07
1.343897e-08
1.0022609e-05
-2.3164308e-07
1.6967523e-08
1.0245985e-05
-2.0236318e-07
1.8526074e-08
1.042872e-05
-1.6260121e-07
1.8762693e-08
1.0573515e-05
-1.2644584e-07
1.8087851e-08
1.0685985e-05
-9.6687234e-08
1.669354e-08
1.0771006e-05
-7.2351766e-08
1.4689761e-08
1.0832587e-05
-5.2045059e-08
1.221539e-08
1.0872634e-05
-3.5031688e-08
9.5387177e-09
1.0890695e-05
-2.079309e-08
7.0863067e-09
1.0887947e-05
-8.8107053e-09
6.1138706e-09
1.0855774e-05
1.0226401e-08
7.7551345e-09
1.0831939e-05
-1.136615e-08
7.3337266e-09
1.0822236e-05
-4.5588614e-08
3.799565e-09
1.0855044e-05
-1.2142864e-07
1.3801387e-09
1.0979667e-05
-2.7183594e-07
1.1388321e-08
1.1202196e-05
-4.5844394e-07
4.6893864e-08
1.1445076e-05
-5.9028628e-07
1.1465624e-07
1.1658827e-05
-6.6568699e-07
1.8720906e-07
1.1842781e-05
-7.2583273e-07
2.5217193e-07
1.2016818e-05
-7.9773599e-07
3.1422301e-07
1.2197729e-05
-8.8623422e-07
3.8392209e-07
1.2385424e-05
-9.8220274e-07
4.7372009e-07
1.2559941e-05
-1.0723252e-06
5.9386688e-07
1.269629e-05
-1.14554e-06
7.3606203e-07
1.2747754e-05
-1.1420233e-06
8.4930916e-07
1.2470148e-05
-7.9292511e-07
8.3236034e-07
1.1221353e-05
3.4497643e-07
5.6010113e-07
3.0460902e-06
-3.5670837e-08
9.2275838e-06
-1.9072191e-07
7.9885276e-09
9.3108923e-06
-2.9271293e-07
1.5463219e-08
9.4210621e-06
-3.1692095e-07
2.054693e-08
9.5661862e-06
-3.2072069e-07
2.3182545e-08
9.7414596e-06
-3.1088889e-07
2.379718e-08
9.934032e-06
-2.9340646e-07
2.2558724e-08
1.0134431e-05
-2.7481997e-07
1.9274863e-08
1.033686e-05
-2.5834016e-07
1.3537955e-08
1.0537473e-05
-2.4536777e-07
4.7708027e-09
1.0733542e-05
-2.3730554e-07
-7.9739695e-09
1.0923215e-05
-2.3647987e-07
-2.580844e-08
1.1105662e-05
-2.4669097e-07
-5.048352e-08
1.1285031e-05
-2.6869457e-07
-8.3428565e-08
1.1442932e-05
-3.354428e-07
-1.267102e-07
1.1609803e-05
-4.7363677e-07
-1.8504989e-07
1.1821195e-05
-7.3010706e-07
-2.5638922e-07
1.2127724e-05
-1.1675089e-06
-3.2123037e-07
1.2445248e-05
-1.5987275e-06
-3.4715341e-07
1.2608636e-05
-1.7557216e-06
-3.8384527e-07
1.2611221e-05
-1.7526259e-06
-4.8397425e-07
1.2497936e-05
-1.7032468e-06
-6.4378738e-07
1.2317388e-05
-1.6775149e-06
-8.2738059e-07
1.2097028e-05
-1.695912e-06
-9.8782527e-07
1.1833461e-05
-1.7440934e-06
-1.0830948e-06
1.150142e-05
-1.8113082e-06
-1.0739776e-06
1.1127444e-05
-1.9246913e-06
-9.612275e-07
1.0952671e-05
-2.1164449e-06
-8.6386324e-07
1.1232325e-05
-2.019922e-06
-1.0096887e-06
1.1446802e-05
-5.1659427e-07
-1.5659829e-06
2.3127272e-06
-2.2487892e-06
9.287141e-06
-1.9735205e-07
8.026246e-09
9.2739749e-06
-2.5885795e-07
1.5565564e-08
9.2541964e-06
-2.7119471e-07
2.0874619e-08
9.2352215e-06
-2.7312821e-07
2.3836936e-08
9.2234394e-06
-2.6925608e-07
2.4783964e-08
9.2201772e-06
-2.6035192e-07
2.3774069e-08
9.2232608e-06
-2.4971043e-07
2.0508177e-08
9.2296788e-06
-2.4003289e-07
1.4457853e-08
9.2359687e-06
-2.3285515e-07
4.9630236e-09
9.2387515e-06
-2.2966542e-07
-9.7053908e-09
9.2325484e-06
-2.3302761e-07
-3.1426067e-08
9.2108701e-06
-2.4752731e-07
-6.3565765e-08
9.1704805e-06
-2.8206587e-07
-1.1170364e-07
9.0901764e-06
-3.5773823e-07
-1.8007924e-07
8.9534762e-06
-5.1692272e-07
-2.7397746e-07
8.7677491e-06
-8.4632766e-07
-3.9461239e-07
8.6299954e-06
-1.5117195e-06
-5.1275533e-07
8.3801568e-06
-2.0737245e-06
-5.1918881e-07
7.7654773e-06
-1.9692254e-06
-5.0391775e-07
7.0580095e-06
-1.7688768e-06
-5.9563224e-07
6.3547689e-06
-1.5124454e-06
-7.9495002e-07
5.6644327e-06
-1.329718e-06
-1.0165424e-06
4.9971442e-06
-1.2843777e-06
-1.1618807e-06
4.355576e-06
-1.359099e-06
-1.1606417e-06
3.7261287e-06
-1.5356395e-06
-9.7809051e-07
3.0871005e-06
-1.8570281e-06
-5.6997675e-07
2.7548938e-06
-2.4336148e-06
-1.5576644e-07
3.320016e-06
-2.924696e-06
-4.3896146e-07
4.7011648e-06
-1.3316353e-06
-1.7915742e-06
1.2900113e-06
-3.1154403e-06
9.0829081e-06
7.8046943e-09
8.8442539e-06
1.5027253e-08
8.5983492e-06
2.0008702e-08
8.3530938e-06
2.2640751e-08
8.1129706e-06
2.324833e-08
7.8819183e-06
2.1906185e-08
7.6604633e-06
1.833852e-08
7.4462827e-06
1.2064639e-08
7.2349987e-06
2.7060226e-09
7.02242e-06
-1.2536764e-08
6.8005026e-06
-3.4565807e-08
6.5574299e-06
-6.6801421e-08
6.2737283e-06
-1.1464616e-07
5.9118325e-06
-1.8654002e-07
5.4019222e-06
-2.9811356e-07
4.6231897e-06
-4.8749857e-07
3.396294e-06
-8.5825668e-07
2.0009932e-06
-1.3195026e-06
1.0770976e-06
-1.2059131e-06
8.4926512e-07
-4.9338574e-07
1.0637859e-06
4.97819e-07
1.4462307e-06
1.1160942e-06
1.8212326e-06
1.4197001e-06
2.0504919e-06
1.5351094e-06
2.0062758e-06
1.5405695e-06
1.5134365e-06
1.4592739e-06
3.2376973e-07
1.2033758e-06
-1.0860775e-06
-1.4966731e-07
-5.1968747e-07
-1.7518556e-06
-3.643617e-06
9.5203242e-06
-2.4377429e-07
-8.7179294e-12
9.764019e-06
-2.3006719e-07
-3.5778062e-11
1.0013356e-05
-2.3208929e-07
-7.2421685e-11
1.0234793e-05
-2.0255104e-07
-1.1221052e-10
1.0416261e-05
-1.6227745e-07
-1.4875384e-10
1.0560221e-05
-1.2539014e-07
-1.7495648e-10
1.0672122e-05
-9.469504e-08
-1.8340651e-10
1.0756575e-05
-6.9242545e-08
-1.7194292e-10
1.0816955e-05
-4.7652786e-08
-1.4510341e-10
1.0855927e-05
-2.8941192e-08
-1.1063826e-10
1.0876516e-05
-1.3027079e-08
-8.2026613e-11
1.0879602e-05
3.5709393e-09
-1.3782992e-10
1.0845617e-05
4.252323e-08
-3.6744192e-10
1.0827922e-05
2.6205439e-08
-7.6888903e-10
1.0844797e-05
-1.2243098e-08
-5.0226201e-10
1.0932811e-05
-8.7328701e-08
8.8911477e-10
1.1161481e-05
-2.2458193e-07
7.3119919e-09
1.144123e-05
-2.5548671e-07
2.2539823e-08
1.1659865e-05
-1.4309429e-07
3.894489e-08
1.1830009e-05
-3.589642e-08
5.2709874e-08
1.1994113e-05
1.9077861e-08
6.8861496e-08
1.2194473e-05
2.5881561e-08
8.7967179e-08
1.2454824e-05
1.0668505e-08
1.1303221e-07
1.2769263e-05
1.4253863e-08
1.4537437e-07
1.3072364e-05
1.1147141e-07
1.7998103e-07
1.3235895e-05
3.6848983e-07
2.0513598e-07
1.3025416e-05
8.5496605e-07
2.062679e-07
1.2009121e-05
1.6738238e-06
1.7644562e-07
9.4984676e-06
2.9558387e-06
1.1626284e-07
5.2619182e-06
4.7635203e-08
9.2239157e-06
-1.907478e-07
1.5739609e-11
9.3020688e-06
-2.9276656e-07
1.5592024e-11
9.407377e-06
-3.1683401e-07
-4.6620704e-12
9.548311e-06
-3.2023598e-07
-4.8235446e-11
9.7197001e-06
-3.0972373e-07
-1.2008136e-10
9.9082619e-06
-2.9113348e-07
-2.2622923e-10
1.0104153e-05
-2.7089262e-07
-3.7619822e-10
1.0301124e-05
-2.5204011e-07
-5.8508002e-10
1.0494909e-05
-2.3572976e-07
-8.7731025e-10
1.0682295e-05
-2.2294301e-07
-1.2881581e-09
1.0861281e-05
-2.1586986e-07
-1.8710061e-09
1.1033457e-05
-2.1628676e-07
-2.7111156e-09
1.1207124e-05
-2.1066108e-07
-3.8193634e-09
1.1358108e-05
-2.4653109e-07
-4.9561207e-09
1.1536523e-05
-3.7081988e-07
-4.9086811e-09
1.1829465e-05
-6.3682559e-07
8.2010138e-11
1.2339368e-05
-1.0744586e-06
1.8568898e-08
1.2792868e-05
-1.1071839e-06
5.0958046e-08
1.3044526e-05
-8.4529746e-07
6.6690643e-08
1.31629e-05
-7.0507338e-07
6.6867369e-08
1.3178464e-05
-7.0239213e-07
6.1664114e-08
1.3128549e-05
-8.0945722e-07
5.6732637e-08
1.3056565e-05
-9.6091314e-07
5.3447845e-08
1.3006892e-05
-1.0786492e-06
5.5009212e-08
1.3057762e-05
-1.0833018e-06
6.0662972e-08
1.3231748e-05
-8.333571e-07
5.1674126e-08
1.3339101e-05
-1.6224869e-07
2.4183054e-08
1.2414708e-05
1.593417e-06
-3.2634977e-08
1.0041986e-05
3.8455273e-06
-1.1383102e-07
6.6101074e-06
-1.9054502e-07
9.2835548e-06
-1.9733146e-07
1.4081507e-11
9.2651902e-06
-2.5884857e-07
1.1735809e-11
9.2403004e-06
-2.7106023e-07
-9.4976921e-12
9.2166558e-06
-2.7269826e-07
-5.5896695e-11
9.2002092e-06
-2.6835763e-07
-1.3475887e-10
9.1918547e-06
-2.5874589e-07
-2.5739948e-10
9.1889794e-06
-2.4706375e-07
-4.4298015e-10
9.1880101e-06
-2.3588679e-07
-7.2247501e-10
9.1849182e-06
-2.2652544e-07
-1.1445864e-09
9.173905e-06
-2.1984516e-07
-1.7835361e-09
9.1471067e-06
-2.1775601e-07
-2.7335287e-09
9.0948632e-06
-2.2340949e-07
-4.1893358e-09
9.0215184e-06
-2.4267976e-07
-6.328465e-09
8.9018654e-06
-2.9768455e-07
-9.2622575e-09
8.7178619e-06
-4.4814961e-07
-1.2638078e-08
8.53323e-06
-8.3604262e-07
-1.076898e-08
8.6809849e-06
-1.7511662e-06
1.6247796e-08
8.4877718e-06
-1.5140782e-06
8.1801703e-08
7.73095e-06
-6.804424e-07
8.8952296e-08
6.8252203e-06
-4.4330909e-07
4.9304478e-08
5.8087489e-06
-4.8095099e-07
1.3642816e-09
4.7042096e-06
-6.7128873e-07
-4.8118264e-08
3.6236497e-06
-9.5928537e-07
-7.9595527e-08
2.7188815e-06
-1.2455069e-06
-8.4070348e-08
2.2191935e-06
-1.4983044e-06
-5.7044205e-08
2.5760918e-06
-1.7306106e-06
-2.1957387e-08
4.0884711e-06
-1.715161e-06
-1.0490736e-07
5.5368349e-06
2.3005729e-08
-3.1979314e-07
5.4956363e-06
2.5064049e-06
-4.2464767e-07
5.3283149e-06
-4.6896959e-07
9.0794113e-06
1.2610473e-11
8.8355808e-06
8.7070031e-12
8.5845431e-06
-1.4180579e-11
8.3345486e-06
-6.3371725e-11
8.0895866e-06
-1.4765217e-10
7.8530281e-06
-2.814811e-10
7.6247929e-06
-4.9013654e-10
7.401787e-06
-8.162059e-10
7.1792983e-06
-1.3304731e-09
6.9490722e-06
-2.1553669e-09
6.7002102e-06
-3.4590288e-09
6.4156652e-06
-5.6646139e-09
6.067874e-06
-9.5328338e-09
5.6002115e-06
-1.655936e-08
4.8836354e-06
-2.9683035e-08
3.6134759e-06
-5.3363157e-08
1.0934966e-06
-8.9059936e-08
-1.5933255e-06
-1.4005504e-07
-3.3829328e-06
-9.3862849e-08
-4.1324258e-06
-1.8444752e-07
-3.8722402e-06
-2.4012112e-07
-3.2021878e-06
-2.2220075e-07
-2.5847991e-06
-1.5414788e-07
-2.1986192e-06
-9.3785688e-08
-2.0682392e-06
-8.507105e-08
-2.1571017e-06
-1.788712e-07
-2.2520299e-06
-4.1101425e-07
-1.6745161e-06
-6.9006528e-07
-7.6142101e-08
-8.4880014e-07
-8.057136e-07
9.5203233e-06
-2.4377644e-07
-7.4985133e-09
9.7640232e-06
-2.3007823e-07
-1.350472e-08
1.0013367e-05
-2.3210986e-07
-1.7098111e-08
1.0234808e-05
-2.0258707e-07
-1.8720047e-08
1.0416275e-05
-1.6233037e-07
-1.900676e-08
1.0560216e-05
-1.254566e-07
-1.83539e-08
1.0672057e-05
-9.476428e-08
-1.6933315e-08
1.0756368e-05
-6.9304208e-08
-1.4832352e-08
1.0816449e-05
-4.7697125e-08
-1.2164671e-08
1.0854865e-05
-2.8958038e-08
-9.1893439e-09
1.0874539e-05
-1.2994761e-08
-6.3682099e-09
1.0876098e-05
3.6664526e-09
-4.9613199e-09
1.0840084e-05
4.1965815e-08
-5.9081142e-09
1.0823673e-05
2.0962995e-08
-4.9156599e-09
1.084475e-05
-2.2019682e-08
8.6954981e-10
1.0950687e-05
-1.1044274e-07
5.8611224e-09
1.1210201e-05
-2.5135994e-07
-3.0693354e-10
1.1494898e-05
-2.3041632e-07
-3.1110916e-08
1.1709716e-05
-8.4329705e-08
-9.0849295e-08
1.1895384e-05
2.4488427e-08
-1.5672388e-07
1.2078721e-05
1.0772375e-07
-2.2142202e-07
1.231148e-05
1.4288579e-07
-2.8682392e-07
1.2611513e-05
1.7897577e-07
-3.650352e-07
1.2950794e-05
2.7830116e-07
-4.7117619e-07
1.3240129e-05
4.9972278e-07
-6.0795927e-07
1.3333861e-05
8.7300157e-07
-7.6042168e-07
1.301381e-05
1.4063396e-06
-8.7881216e-07
1.1870337e-05
2.188652e-06
-8.6745431e-07
9.2199353e-06
3.3425332e-06
-5.7467834e-07
5.4418347e-06
9.3449007e-09
9.223915e-06
-1.9075102e-07
-7.9553204e-09
9.3020634e-06
-2.9277535e-07
-1.5429529e-08
9.4073607e-06
-3.1685068e-07
-2.0549275e-08
9.5482702e-06
-3.2026302e-07
-2.3263635e-08
9.719613e-06
-3.0976514e-07
-2.400267e-08
9.9080914e-06
-2.9119229e-07
-2.2935683e-08
1.0103835e-05
-2.7097099e-07
-1.9871472e-08
1.0300541e-05
-2.5214514e-07
-1.440038e-08
1.0493852e-05
-2.3588778e-07
-5.9378576e-09
1.0680438e-05
-2.2323264e-07
6.4697486e-09
1.0858023e-05
-2.1639842e-07
2.4025772e-08
1.1028008e-05
-2.1738138e-07
4.8464714e-08
1.1198751e-05
-2.1389609e-07
8.1474604e-08
1.1348075e-05
-2.5832658e-07
1.2524524e-07
1.1535064e-05
-3.98462e-07
1.8475896e-07
1.1861964e-05
-6.9423799e-07
2.5716655e-07
1.2436863e-05
-1.1314241e-06
3.2395293e-07
1.2880073e-05
-9.8008842e-07
3.5765263e-07
1.3148085e-05
-6.9754845e-07
4.1211981e-07
1.3304672e-05
-5.8253207e-07
5.176148e-07
1.3382187e-05
-5.7713198e-07
6.6946541e-07
1.3423737e-05
-6.767207e-07
8.3544327e-07
1.3489383e-05
-8.0165696e-07
9.693014e-07
1.3630366e-05
-8.3500557e-07
1.0284561e-06
1.3863621e-05
-6.6332489e-07
9.9185569e-07
1.4062845e-05
-1.6411295e-07
8.9096849e-07
1.382822e-05
8.6822332e-07
7.9673137e-07
1.2568031e-05
2.4660021e-06
9.4617922e-07
9.8134962e-06
4.4948687e-06
1.4788671e-06
7.010395e-06
2.1634066e-06
9.2835542e-06
-1.9733375e-07
-7.9983995e-09
9.2651854e-06
-2.588537e-07
-1.5541507e-08
9.240283e-06
-2.7106937e-07
-2.0888529e-08
9.2166103e-06
-2.7271277e-07
-2.3933206e-08
9.2001056e-06
-2.6837938e-07
-2.5015026e-08
9.191637e-06
-2.5877724e-07
-2.4202185e-08
9.1885422e-06
-2.4710892e-07
-2.1207944e-08
9.1871502e-06
-2.3595631e-07
-1.5515693e-08
9.1832316e-06
-2.2665014e-07
-6.4589483e-09
9.1708753e-06
-2.2012518e-07
7.471482e-09
9.1415195e-06
-2.1838254e-07
2.8614149e-08
9.084789e-06
-2.2493449e-07
6.0104437e-08
9.0035633e-06
-2.4675083e-07
1.0776541e-07
8.8693925e-06
-3.0943431e-07
1.7603391e-07
8.6689129e-06
-4.8146693e-07
2.7086526e-07
8.5061677e-06
-9.3271675e-07
3.9047461e-07
8.8860095e-06
-1.9881336e-06
4.9318105e-07
8.5741651e-06
-1.0739597e-06
4.8707032e-07
7.9162665e-06
-4.6229934e-07
5.1088454e-07
7.081396e-06
-2.8702021e-07
5.8776797e-07
6.0949767e-06
-3.6293619e-07
7.7246944e-07
4.9475225e-06
-5.5589208e-07
9.7690961e-07
3.7880093e-06
-8.3285792e-07
1.108886e-06
2.8589049e-06
-1.1000135e-06
1.1071766e-06
2.5070067e-06
-1.3018881e-06
9.3055292e-07
3.3082916e-06
-1.4635431e-06
4.7416943e-07
5.0543482e-06
-1.0667421e-06
8.4189026e-08
6.2478839e-06
6.2836948e-07
3.2219284e-07
5.4241471e-06
3.1891693e-06
1.7010227e-06
5.8137475e-06
2.9933764e-06
9.07941e-06
-7.7804162e-09
8.8355743e-06
-1.5009729e-08
8.5845227e-06
-2.0032355e-08
8.3344969e-06
-2.275077e-08
8.0894696e-06
-2.3500034e-08
7.8527782e-06
-2.2367609e-08
7.6242731e-06
-1.9094072e-08
7.4007148e-06
-1.3214157e-08
7.1770293e-06
-4.2949591e-09
6.9448396e-06
9.9095818e-09
6.6918268e-06
3.1171964e-08
6.3987695e-06
6.2459289e-08
6.0331048e-06
1.0938263e-07
5.5264812e-06
1.8063197e-07
4.7229953e-06
2.9234046e-07
3.253373e-06
4.8357381e-07
3.1479609e-07
8.6161724e-07
-2.1918744e-06
1.2916592e-06
-3.7860908e-06
1.0363881e-06
-4.3059741e-06
4.6278079e-08
-4.0238458e-06
-8.8742712e-07
-3.4260629e-06
-1.3776263e-06
-2.8695575e-06
-1.5448654e-06
-2.4909714e-06
-1.5736592e-06
-2.315355e-06
-1.5641331e-06
-2.3637033e-06
-1.5954916e-06
-2.2585932e-06
-1.5794795e-06
-1.8202401e-06
-4.7728729e-07
-1.1012576e-06
1.6525423e-06
3.5190772e-06
9.5230394e-06
-2.4347824e-07
-1.8002672e-08
9.7703642e-06
-2.2969527e-07
-3.0981504e-08
1.0022628e-05
-2.3179255e-07
-3.7362035e-08
1.0246014e-05
-2.0257546e-07
-3.9283896e-08
1.0428752e-05
-1.6288011e-07
-3.8586847e-08
1.0573535e-05
-1.2678739e-07
-3.6045002e-08
1.0685964e-05
-9.7070939e-08
-3.1965535e-08
1.0770929e-05
-7.2761027e-08
-2.6691644e-08
1.0832441e-05
-5.2482477e-08
-2.0833526e-08
1.0872397e-05
-3.5502346e-08
-1.3268596e-08
1.0890085e-05
-2.1311709e-08
-2.3563761e-09
1.0887439e-05
-9.2611819e-09
7.3299142e-09
1.0856422e-05
8.6159789e-09
1.6897835e-08
1.0834568e-05
-1.4133196e-08
3.1472018e-08
1.083182e-05
-5.2113634e-08
5.6137709e-08
1.0880208e-05
-1.3462205e-07
9.2527132e-08
1.1031474e-05
-2.9070953e-07
1.396447e-07
1.1264566e-05
-4.4916569e-07
1.8571239e-07
1.1497697e-05
-5.4186944e-07
2.190007e-07
1.1703447e-05
-6.026327e-07
2.4157208e-07
1.1888838e-05
-6.6198259e-07
2.5678698e-07
1.2073148e-05
-7.3301329e-07
2.6360652e-07
1.2269377e-05
-8.1740371e-07
2.577934e-07
1.2464873e-05
-8.9935271e-07
2.3392971e-07
1.2627685e-05
-9.6102115e-07
1.9057345e-07
1.2728028e-05
-9.9877909e-07