/*--------------------------------*- C++ -*----------------------------------*\
| =========                 |                                                 |
| \\      /  F ield         | OpenFOAM: The Open Source CFD Toolbox           |
|  \\    /   O peration     | Version:  v2012                                 |
|   \\  /    A nd           | Website:  www.openfoam.com                      |
|    \\/     M anipulation  |                                                 |
\*---------------------------------------------------------------------------*/
FoamFile
{
    version     2.0;
    format      ascii;
    class       volScalarField;
    location    "180/topAir";
    object      rho;
}
// * * * * * * * * * * * * * * * * * * * * * * * * * * * * * * * * * * * * * //

dimensions      [1 -3 0 0 0 0 0];


internalField   nonuniform List<scalar> 
1200
(
1.0945159
1.0408984
0.99665434
0.9591001
0.92636263
0.89725269
0.87102308
0.84729789
0.8262357
0.80768699
0.79146746
0.77751689
0.76599829
0.76123408
0.75879916
0.75884272
0.76119052
0.76531237
0.77044011
0.77578366
0.78073849
0.78494907
0.78825273
0.79058935
0.79192107
0.79216283
0.791101
0.78823675
0.78256541
0.77317022
1.1571559
1.1543898
1.1506082
1.145991
1.1406744
1.1347635
1.1283523
1.1215068
1.1126751
1.1010515
1.0854976
1.0645112
1.037785
1.0077043
0.97712719
0.94951842
0.92716635
0.91068802
0.89941846
0.89219308
0.88790454
0.88558201
0.88437845
0.88355278
0.88240932
0.88019979
0.87593757
0.86801212
0.85360545
0.83003704
1.1585873
1.1584948
1.158323
1.1580549
1.1576762
1.1571743
1.1565387
1.15576
1.1547899
1.1535597
1.1519378
1.1485795
1.1390301
1.1190764
1.0886783
1.0521618
1.0154847
0.98304438
0.95665997
0.93633345
0.92129012
0.91051852
0.90297101
0.89766862
0.89372869
0.89033795
0.88664822
0.88151351
0.87288096
0.85766933
1.1586181
1.1586151
1.1586077
1.1585933
1.1585685
1.1585289
1.1584698
1.1583851
1.1582667
1.1581024
1.157869
1.1574658
1.1564168
1.1516566
1.1331637
1.0986454
1.0600401
1.0249452
0.99527666
0.970997
0.95154741
0.93628509
0.92452734
0.91555396
0.90865059
0.90313859
0.89835151
0.89349835
0.88724807
0.8773323
1.0945213
1.0414559
0.99814429
0.9618226
0.93061518
0.90338435
0.8794343
0.85837014
0.84003491
0.82446394
0.81180216
0.80229267
0.79627373
0.799106
0.80490713
0.8128025
0.821548
0.82999283
0.83729554
0.84302864
0.84723549
0.85019618
0.8521764
0.85331764
0.85360691
0.85285161
0.85056781
0.8455881
0.83554855
0.82103238
1.1571577
1.1544436
1.1508051
1.1464495
1.1415396
1.1362093
1.1305831
1.1247946
1.1189798
1.113334
1.1080577
1.1033788
1.0995484
1.0969279
1.0954296
1.0945241
1.0934122
1.0915176
1.0885135
1.0843739
1.079347
1.073579
1.0670926
1.0598487
1.0517345
1.0426297
1.0324555
1.0212282
1.0087477
0.98269455
1.1585874
1.1584974
1.1583345
1.158087
1.1577466
1.157308
1.1567688
1.1561305
1.1553981
1.1545823
1.1537002
1.1527418
1.151594
1.1501249
1.1481121
1.144463
1.1374491
1.1267369
1.1128518
1.0971291
1.0815223
1.0659607
1.0500336
1.0342173
1.0186743
1.0035627
0.98831946
0.97193851
0.95377565
0.93300558
1.1586181
1.1586152
1.1586083
1.1585953
1.1585736
1.1585403
1.1584922
1.1584259
1.1583377
1.1582234
1.1580772
1.1578824
1.157555
1.1565288
1.1519605
1.1378393
1.1110045
1.0768198
1.0431173
1.0134849
0.98869337
0.96904979
0.95421332
0.94242695
0.93258978
0.92393285
0.91623569
0.90948176
0.90276449
0.89510583
1.0945116
1.0413339
0.99789755
0.96143826
0.93006564
0.90262475
0.8783949
0.85690477
0.83782821
0.82100503
0.80640163
0.79409937
0.78440711
0.78400204
0.78679403
0.79335189
0.80401996
0.8180072
0.83307028
0.84690856
0.85829896
0.86704719
0.87341997
0.87771551
0.88011068
0.88065359
0.87918527
0.87470749
0.86372808
0.83941467
1.1571571
1.1544331
1.1507774
1.1464008
1.1414661
1.1361031
1.1304255
1.1245418
1.1185627
1.1126156
1.1068612
1.101502
1.0967906
1.0932969
1.0913498
1.0911737
1.0926312
1.094542
1.0949296
1.0928044
1.0883262
1.0819589
1.0739537
1.0642876
1.0528393
1.0395895
1.0246411
1.0078916
0.98878084
0.96308571
1.1585874
1.158497
1.1583332
1.1580845
1.1577432
1.1573043
1.1567659
1.1561288
1.1553977
1.1545818
1.1536972
1.1527706
1.1518441
1.1509824
1.1502415
1.1494972
1.1478716
1.1426846
1.1318449
1.1172009
1.1014148
1.0855734
1.0693258
1.0518136
1.0326725
1.0124227
0.99230166
0.97230333
0.95342853
0.93346434
1.1586181
1.1586151
1.1586082
1.1585952
1.1585735
1.1585404
1.158493
1.1584281
1.1583427
1.1582339
1.1580988
1.1579346
1.1577351
1.1574661
1.156897
1.1549116
1.1481327
1.1301996
1.0997475
1.0644051
1.0308987
1.0028691
0.98132135
0.96484636
0.95181211
0.94096721
0.93159667
0.9232631
0.91561696
0.90379036
1.0945039
1.041288
0.99777671
0.9612018
0.92965622
0.90195152
0.87730997
0.85518022
0.83515024
0.81690935
0.80021535
0.78487962
0.77096113
0.7655958
0.76114904
0.75820623
0.75785874
0.76023587
0.76391365
0.76769911
0.77129967
0.77488041
0.77860758
0.78242366
0.78603213
0.78898024
0.79008774
0.78552415
0.77179084
0.75725258
1.1571568
1.1544291
1.1507624
1.1463642
1.1413922
1.135967
1.1301859
1.1241302
1.1178703
1.1114722
1.1050072
1.0985491
1.0918288
1.0861512
1.0814972
1.0784976
1.0779302
1.0787531
1.0785339
1.0765349
1.0726949
1.067095
1.0597763
1.0505547
1.0390514
1.0249167
1.0075933
0.98661397
0.95588063
0.88783576
1.1585874
1.1584968
1.1583324
1.1580822
1.157738
1.157294
1.1567468
1.1560947
1.155338
1.1544789
1.153523
1.1524801
1.1513613
1.1502268
1.1491718
1.1483493
1.1475418
1.141953
1.1294637
1.1150992
1.0995267
1.0822063
1.062763
1.0407875
1.0169808
0.99296471
0.96890916
0.94350663
0.92440415
0.89120486
1.1586181
1.1586151
1.1586082
1.1585951
1.1585732
1.1585397
1.1584915
1.1584253
1.1583379
1.1582254
1.1580845
1.1579112
1.157701
1.1574487
1.157137
1.1566132
1.1539514
1.1304836
1.0907324
1.0669162
1.0426187
1.0162745
0.99481104
0.97774876
0.96362935
0.95115968
0.9385817
0.91689813
0.89766015
0.87066419
1.0945095
1.0412861
0.99775556
0.9611542
0.92957442
0.90182429
0.87712061
0.85490707
0.83476697
0.81637881
0.79949887
0.78394997
0.7700017
0.76649178
0.76324156
0.76117662
0.76086773
0.75934128
0.75483911
0.74823825
0.74129094
0.73484425
0.72905954
0.72409773
0.72009091
0.71703533
0.71455179
0.71150314
0.70587962
0.69525923
1.1571569
1.1544281
1.1507573
1.1463511
1.1413663
1.1359215
1.1301112
1.1240122
1.1176886
1.1111969
1.1045917
1.0977718
1.0895068
1.0825866
1.0777146
1.0746476
1.0740348
1.0725565
1.0692696
1.065029
1.0596033
1.0534149
1.0465667
1.0376005
1.0233908
1.0014009
0.96979857
0.92602021
0.86904473
0.79876397
1.1585874
1.1584967
1.158332
1.1580812
1.1577357
1.1572895
1.1567386
1.1560807
1.155315
1.154442
1.1534639
1.1523811
1.1511721
1.1499045
1.1487166
1.1478074
1.1463702
1.1336407
1.1213463
1.1109735
1.0992558
1.0833989
1.0613994
1.0340315
1.0044581
0.97747008
0.95848788
0.94446012
0.90782003
0.84443544
1.1586181
1.1586151
1.1586082
1.158595
1.158573
1.1585393
1.1584907
1.1584239
1.1583352
1.1582209
1.1580768
1.1578981
1.1576779
1.1574088
1.1570683
1.1563543
1.1502869
1.0799998
1.0251395
1.0131339
1.0061125
0.99543368
0.98198641
0.96792345
0.95376862
0.93970631
0.92607067
0.91274609
0.89873902
0.85272443
1.0945116
1.0412892
0.99775894
0.96115752
0.92957675
0.90182383
0.87711456
0.85489287
0.83474234
0.8163416
0.799444
0.78387382
0.76990278
0.76639379
0.76334429
0.76172256
0.76187521
0.75983599
0.75430724
0.74716079
0.74026564
0.73381458
0.72799027
0.72296384
0.71883552
0.71554939
0.71272712
0.70932775
0.70340449
0.69257302
1.157157
1.1544282
1.1507575
1.1463515
1.1413667
1.1359219
1.1301114
1.124012
1.1176877
1.1111952
1.1045892
1.0977702
1.0895503
1.0828935
1.0781644
1.0753941
1.0749695
1.0727682
1.0689564
1.0636741
1.0555751
1.0464204
1.0358164
1.021548
1.0011487
0.97351857
0.93877136
0.89657291
0.84581273
0.78388676
1.1585874
1.1584967
1.158332
1.1580812
1.1577357
1.1572895
1.1567386
1.1560807
1.155315
1.1544419
1.1534636
1.1523811
1.1511751
1.1499223
1.1487677
1.1479084
1.1459339
1.1317704
1.1213825
1.1125047
1.1016289
1.0859405
1.0632801
1.0343311
1.0033483
0.97648453
0.95746984
0.93402956
0.89318964
0.8295455
1.1586181
1.1586151
1.1586082
1.158595
1.158573
1.1585393
1.1584907
1.1584239
1.1583352
1.1582208
1.1580766
1.1578976
1.157677
1.1574066
1.1570559
1.156172
1.1472589
1.0503794
1.0182216
1.0092209
1.0030401
0.99062198
0.97676164
0.96312891
0.95000861
0.9375895
0.92579538
0.91196872
0.88822493
0.83779036
1.0945121
1.0413012
0.99779183
0.96121705
0.92966924
0.90195797
0.87730348
0.85515559
0.8351044
0.81684019
0.80011691
0.78474695
0.77078773
0.76545195
0.76111672
0.75842156
0.75840914
0.76057182
0.76339458
0.7662239
0.76902317
0.77193955
0.77506131
0.77816035
0.78076031
0.78240364
0.78218522
0.77674408
0.7638544
0.75006012
1.157157
1.1544297
1.1507634
1.1463657
1.1413942
1.1359694
1.1301883
1.1241324
1.1178717
1.1114724
1.1050059
1.098549
1.0918977
1.0862532
1.0816871
1.078871
1.0785019
1.078829
1.0779265
1.0755354
1.0713778
1.0654196
1.0575451
1.0474368
1.0348598
1.0198774
1.0023343
0.98103355
0.94599265
0.87677061
1.1585874
1.1584968
1.1583324
1.1580823
1.1577381
1.1572942
1.1567469
1.1560949
1.1553382
1.1544791
1.153523
1.1524803
1.1513642
1.1502365
1.1491999
1.1484115
1.147425
1.1398911
1.1273646
1.1142188
1.0990469
1.0819341
1.0621652
1.0393579
1.0147932
0.99094948
0.96816875
0.94344412
0.91984405
0.8822611
1.1586181
1.1586151
1.1586082
1.1585951
1.1585732
1.1585397
1.1584915
1.1584253
1.1583378
1.1582254
1.1580843
1.1579107
1.1577002
1.157447
1.1571309
1.1565396
1.1528191
1.1194517
1.0824445
1.0671638
1.0386539
1.0116688
0.99081914
0.97458864
0.9612683
0.94965719
0.93834624
0.91612081
0.8889615
0.86091953
1.0945188
1.0413457
0.99791045
0.96144784
0.93006732
0.90261382
0.87836434
0.85684829
0.83774158
0.82088519
0.80624191
0.79389747
0.78416476
0.7837415
0.78654737
0.79317922
0.8040011
0.81806653
0.83305307
0.84678324
0.85816506
0.86707271
0.87376551
0.87846947
0.88126491
0.88212297
0.88085644
0.8764399
0.86504646
0.83941096
1.1571573
1.1544336
1.1507783
1.146402
1.1414673
1.1361041
1.1304257
1.1245402
1.1185586
1.1126082
1.1068497
1.1014867
1.0967768
1.0932953
1.0913846
1.0912888
1.0928607
1.0947054
1.0948553
1.0924816
1.0877891
1.0812144
1.0729251
1.0628226
1.050808
1.0370095
1.0216874
1.0047156
0.98469879
0.95759566
1.1585874
1.158497
1.1583332
1.1580846
1.1577433
1.1573044
1.1567659
1.1561288
1.1553974
1.1545812
1.1536962
1.1527693
1.151843
1.1509836
1.1502499
1.1495174
1.1478394
1.1421279
1.1308782
1.1161672
1.1004177
1.0845816
1.0680911
1.0500422
1.0303076
1.0097663
0.989716
0.97010813
0.95069838
0.92927924
1.1586181
1.1586151
1.1586082
1.1585952
1.1585735
1.1585404
1.1584929
1.158428
1.1583426
1.1582337
1.1580985
1.1579339
1.1577341
1.1574647
1.1568969
1.1549137
1.1479973
1.1286723
1.0977507
1.0620537
1.0281937
1.0003122
0.97910003
0.96295813
0.95018719
0.93955421
0.93038777
0.92223932
0.91449525
0.90043034
1.0945241
1.0414602
0.99814709
0.96181878
0.93059976
0.90335119
0.87937761
0.85828564
0.83991801
0.82430992
0.81160522
0.8020481
0.79598222
0.79878632
0.80459156
0.8125357
0.82136958
0.82987681
0.83714938
0.84280041
0.84695664
0.84994828
0.85205387
0.85338797
0.85388847
0.85332444
0.85120376
0.84636464
0.83634435
0.82134238
1.1571577
1.1544438
1.1508054
1.1464497
1.1415392
1.1362079
1.1305799
1.1247885
1.1189696
1.1133182
1.1080349
1.1033483
1.0995122
1.0968951
1.0954197
1.0945573
1.0934857
1.0915601
1.0884192
1.0841086
1.0789194
1.0729879
1.066321
1.0588494
1.0504501
1.0410338
1.0305734
1.0191059
1.0063419
0.98093893
1.1585874
1.1584974
1.1583345
1.158087
1.1577466
1.1573079
1.1567686
1.1561301
1.1553973
1.1545808
1.1536977
1.1527386
1.1515924
1.1501322
1.1481433
1.1445029
1.1373995
1.1263684
1.1119501
1.095872
1.0800834
1.0642817
1.0482499
1.0324243
1.0169387
1.0019052
0.98671883
0.97046372
0.95246199
0.93192615
1.1586181
1.1586152
1.1586083
1.1585953
1.1585736
1.1585403
1.1584922
1.1584258
1.1583375
1.1582231
1.1580766
1.1578816
1.1575543
1.1565331
1.1519734
1.1378277
1.1108771
1.0764947
1.0425894
1.01271
0.98772994
0.96816245
0.9533363
0.94151134
0.9316183
0.92293028
0.9152836
0.90857496
0.9019069
0.89430791
1.09452
1.0409039
0.99665762
0.95909628
0.92634606
0.89721701
0.8709635
0.84721152
0.82612029
0.80754024
0.79128625
0.7772987
0.76574282
0.76094723
0.75849132
0.75852965
0.7608895
0.7650262
0.77014946
0.77546729
0.78039347
0.78459153
0.78790879
0.79028352
0.79166669
0.79195906
0.79093728
0.78809612
0.78240093
0.77286934
1.157156
1.1543901
1.1506086
1.1459912
1.1406741
1.134762
1.1283488
1.1215002
1.1126604
1.1010201
1.0854443
1.0644453
1.0377235
1.007662
0.97710894
0.94951643
0.92714777
0.91057848
0.8991365
0.891717
0.88727172
0.88484311
0.88357084
0.88268794
0.88148137
0.87921872
0.87496175
0.86714792
0.85296699
0.82947275
1.1585873
1.1584948
1.158323
1.158055
1.1576762
1.1571742
1.1565385
1.1557595
1.1547888
1.1535576
1.1519346
1.1485827
1.1390725
1.1191775
1.088841
1.0523693
1.0156998
0.98320238
0.9566796
0.93616272
0.92093339
0.91001117
0.9023547
0.89697369
0.89296952
0.88952304
0.88579705
0.88066838
0.87210422
0.85695018
1.1586181
1.1586151
1.1586077
1.1585933
1.1585684
1.1585289
1.1584697
1.158385
1.1582665
1.158102
1.1578683
1.1574656
1.1564207
1.1517069
1.1332506
1.098721
1.0601204
1.025006
0.99524861
0.9708082
0.95118252
0.93577553
0.92391672
0.91487677
0.90792693
0.90237838
0.89756268
0.89269351
0.88644782
0.87654591
)
;

boundaryField
{
    maxY
    {
        type            calculated;
        value           nonuniform List<scalar> 
300
(
1.1586176
1.1586176
1.1586176
1.1586176
1.1586176
1.1586176
1.1586176
1.1586176
1.1586176
1.1586176
1.1586145
1.1586146
1.1586146
1.1586146
1.1586146
1.1586146
1.1586146
1.1586146
1.1586146
1.1586145
1.1586072
1.1586078
1.1586077
1.1586077
1.1586077
1.1586077
1.1586077
1.1586077
1.1586078
1.1586072
1.1585928
1.1585948
1.1585947
1.1585945
1.1585945
1.1585945
1.1585945
1.1585947
1.1585948
1.1585928
1.1585679
1.1585731
1.158573
1.1585727
1.1585725
1.1585725
1.1585727
1.158573
1.1585731
1.1585679
1.1585284
1.1585398
1.1585399
1.1585392
1.1585388
1.1585388
1.1585392
1.1585399
1.1585398
1.1585284
1.1584692
1.1584917
1.1584924
1.158491
1.1584902
1.1584902
1.158491
1.1584924
1.1584916
1.1584692
1.1583846
1.1584253
1.1584275
1.1584248
1.1584233
1.1584233
1.1584248
1.1584275
1.1584253
1.1583845
1.1582662
1.1583371
1.1583422
1.1583373
1.1583347
1.1583347
1.1583373
1.1583421
1.158337
1.158266
1.1581019
1.1582229
1.1582334
1.1582249
1.1582204
1.1582203
1.1582248
1.1582332
1.1582226
1.1581015
1.1578685
1.1580766
1.1580983
1.158084
1.1580763
1.1580761
1.1580838
1.158098
1.1580761
1.1578678
1.1574653
1.1578819
1.157934
1.1579106
1.1578975
1.1578971
1.1579102
1.1579334
1.1578811
1.1574651
1.1564162
1.1575545
1.1577346
1.1577005
1.1576774
1.1576764
1.1576997
1.1577335
1.1575537
1.1564202
1.1516561
1.1565282
1.1574656
1.1574481
1.1574083
1.157406
1.1574465
1.1574641
1.1565326
1.1517064
1.1331632
1.15196
1.1568964
1.1571365
1.1570678
1.1570554
1.1571304
1.1568963
1.1519729
1.1332501
1.0986449
1.1378388
1.154911
1.1566126
1.1563538
1.1561714
1.1565391
1.1549131
1.1378272
1.0987206
1.0600397
1.111004
1.1481322
1.1539509
1.1502863
1.1472584
1.1528186
1.1479968
1.1108766
1.06012
1.0249448
1.0768194
1.1301991
1.1304831
1.0799993
1.050379
1.1194512
1.1286718
1.0764942
1.0250056
0.99527627
1.0431168
1.099747
1.090732
1.0251391
1.0182212
1.0824441
1.0977503
1.042589
0.99524822
0.97099663
1.0134845
1.0644047
1.0669157
1.0131335
1.0092205
1.0671634
1.0620532
1.0127096
0.97080783
0.95154706
0.98869299
1.0308983
1.0426183
1.0061121
1.0030397
1.0386535
1.0281933
0.98772956
0.95118217
0.93628474
0.96904942
1.0028687
1.0162741
0.99543329
0.9906216
1.0116684
1.0003118
0.96816209
0.93577519
0.92452701
0.95421296
0.98132097
0.99481065
0.98198604
0.97676127
0.99081875
0.97909966
0.95333595
0.92391639
0.91555363
0.9424266
0.96484599
0.97774838
0.96792309
0.96312855
0.97458827
0.96295777
0.94151099
0.91487644
0.90865026
0.93258944
0.95181175
0.96362898
0.95376826
0.95000826
0.96126794
0.95018684
0.93161796
0.90792661
0.90313827
0.92393252
0.94096687
0.95115932
0.93970596
0.93758915
0.94965684
0.93955386
0.92292995
0.90237806
0.8983512
0.91623536
0.93159633
0.93858135
0.92607033
0.92579505
0.93834589
0.93038743
0.91528327
0.89756236
0.89349804
0.90948144
0.92326277
0.9168978
0.91274576
0.91196839
0.91612048
0.92223899
0.90857463
0.8926932
0.88724776
0.90276417
0.91561664
0.89765983
0.8987387
0.88822462
0.88896119
0.91449492
0.90190658
0.88644751
0.877332
0.89510551
0.90379004
0.87066389
0.85272415
0.83779008
0.86091924
0.90043003
0.8943076
0.87654561
)
;
    }
    minX
    {
        type            calculated;
        value           nonuniform List<scalar> 
40
(
1.158622
1.158621
1.1586199
1.1586189
1.158622
1.158621
1.1586199
1.1586189
1.158622
1.158621
1.1586199
1.1586189
1.158622
1.158621
1.1586199
1.1586189
1.158622
1.158621
1.1586199
1.1586189
1.158622
1.158621
1.1586199
1.1586189
1.158622
1.158621
1.1586199
1.1586189
1.158622
1.158621
1.1586199
1.1586189
1.158622
1.158621
1.1586199
1.1586189
1.158622
1.158621
1.1586199
1.1586189
)
;
    }
    maxX
    {
        type            calculated;
        value           nonuniform List<scalar> 
40
(
0.77311616
0.82992478
0.85760112
0.87729637
0.82098138
0.9825689
0.93291095
0.89506967
0.8394489
0.96306856
0.93362734
0.90409701
0.75704633
0.88739067
0.89140081
0.87148196
0.69523936
0.79781601
0.84403507
0.85395053
0.69257455
0.78338461
0.82951497
0.83888305
0.74993264
0.87659923
0.88298427
0.86212311
0.83915234
0.95778203
0.92978593
0.90096392
0.82116706
0.98082316
0.93187403
0.89426592
0.77276752
0.82932472
0.8568598
0.87649974
)
;
    }
    minZ
    {
        type            calculated;
        value           nonuniform List<scalar> 
120
(
1.0945159
1.1571559
1.1585873
1.1586181
1.0408984
1.1543898
1.1584948
1.1586151
0.99665434
1.1506082
1.158323
1.1586077
0.9591001
1.145991
1.1580549
1.1585933
0.92636263
1.1406744
1.1576762
1.1585685
0.89725269
1.1347635
1.1571743
1.1585289
0.87102308
1.1283523
1.1565387
1.1584698
0.84729789
1.1215068
1.15576
1.1583851
0.8262357
1.1126751
1.1547899
1.1582667
0.80768699
1.1010515
1.1535597
1.1581024
0.79146746
1.0854976
1.1519378
1.157869
0.77751689
1.0645112
1.1485795
1.1574658
0.76599829
1.037785
1.1390301
1.1564168
0.76123408
1.0077043
1.1190764
1.1516566
0.75879916
0.97712719
1.0886783
1.1331637
0.75884272
0.94951842
1.0521618
1.0986454
0.76119052
0.92716635
1.0154847
1.0600401
0.76531237
0.91068802
0.98304438
1.0249452
0.77044011
0.89941846
0.95665997
0.99527666
0.77578366
0.89219308
0.93633345
0.970997
0.78073849
0.88790454
0.92129012
0.95154741
0.78494907
0.88558201
0.91051852
0.93628509
0.78825273
0.88437845
0.90297101
0.92452734
0.79058935
0.88355278
0.89766862
0.91555396
0.79192107
0.88240932
0.89372869
0.90865059
0.79216283
0.88019979
0.89033795
0.90313859
0.791101
0.87593757
0.88664822
0.89835151
0.78823675
0.86801212
0.88151351
0.89349835
0.78256541
0.85360545
0.87288096
0.88724807
0.77317022
0.83003704
0.85766933
0.8773323
)
;
    }
    maxZ
    {
        type            calculated;
        value           nonuniform List<scalar> 
120
(
1.09452
1.157156
1.1585873
1.1586181
1.0409039
1.1543901
1.1584948
1.1586151
0.99665762
1.1506086
1.158323
1.1586077
0.95909628
1.1459912
1.158055
1.1585933
0.92634606
1.1406741
1.1576762
1.1585684
0.89721701
1.134762
1.1571742
1.1585289
0.8709635
1.1283488
1.1565385
1.1584697
0.84721152
1.1215002
1.1557595
1.158385
0.82612029
1.1126604
1.1547888
1.1582665
0.80754024
1.1010201
1.1535576
1.158102
0.79128625
1.0854443
1.1519346
1.1578683
0.7772987
1.0644453
1.1485827
1.1574656
0.76574282
1.0377235
1.1390725
1.1564207
0.76094723
1.007662
1.1191775
1.1517069
0.75849132
0.97710894
1.088841
1.1332506
0.75852965
0.94951643
1.0523693
1.098721
0.7608895
0.92714777
1.0156998
1.0601204
0.7650262
0.91057848
0.98320238
1.025006
0.77014946
0.8991365
0.9566796
0.99524861
0.77546729
0.891717
0.93616272
0.9708082
0.78039347
0.88727172
0.92093339
0.95118252
0.78459153
0.88484311
0.91001117
0.93577553
0.78790879
0.88357084
0.9023547
0.92391672
0.79028352
0.88268794
0.89697369
0.91487677
0.79166669
0.88148137
0.89296952
0.90792693
0.79195906
0.87921872
0.88952304
0.90237838
0.79093728
0.87496175
0.88579705
0.89756268
0.78809612
0.86714792
0.88066838
0.89269351
0.78240093
0.85296699
0.87210422
0.88644782
0.77286934
0.82947275
0.85695018
0.87654591
)
;
    }
    topAir_to_rightSolid
    {
        type            calculated;
        value           nonuniform List<scalar> 
130
(
0.51873786
0.51432919
0.50984995
0.50553103
0.50154375
0.49798453
0.49487986
0.49222961
0.49002322
0.48828128
0.48699161
0.48613777
0.48571048
0.52220255
0.51693766
0.51172854
0.50683415
0.5024316
0.4985729
0.49526354
0.49247693
0.49018905
0.48839319
0.48706996
0.48619546
0.4857587
0.52937783
0.52209873
0.51529422
0.5092362
0.50401528
0.4996041
0.49591902
0.4928896
0.49045511
0.48856768
0.48719095
0.48628527
0.4858332
0.5405585
0.52929931
0.51981639
0.51206689
0.50578174
0.50069653
0.49659199
0.49330538
0.4907098
0.48873053
0.48729628
0.48635432
0.48589014
0.55434705
0.53626481
0.52360591
0.51423988
0.50706435
0.50145844
0.49705158
0.4935833
0.49087607
0.48883213
0.4873608
0.48640005
0.48592633
0.5541793
0.53613987
0.52351968
0.51419508
0.50706175
0.50148526
0.49707551
0.49360494
0.49089641
0.48884598
0.48736503
0.48639444
0.48591305
0.54017905
0.52900123
0.51962863
0.5119748
0.50575794
0.50071223
0.49661881
0.49332675
0.49072423
0.48873176
0.48728672
0.48633949
0.48586585
0.5289825
0.5217751
0.51505539
0.50909812
0.50395022
0.49956354
0.49588431
0.49286034
0.49042726
0.48853967
0.48716035
0.48625335
0.48579862
0.52183099
0.5166402
0.51151591
0.5067143
0.5023662
0.49851128
0.49518794
0.49239872
0.49011818
0.48832778
0.48700742
0.48613775
0.48571255
0.51837161
0.51403782
0.50964186
0.50540842
0.50147537
0.49791777
0.49479011
0.49213298
0.4899384
0.48820737
0.48692407
0.48607893
0.48566612
)
;
    }
    topAir_to_heater
    {
        type            calculated;
        value           nonuniform List<scalar> 
40
(
0.52981067
0.52857807
0.52617434
0.52279485
0.53564569
0.53416093
0.53125858
0.52713872
0.54842951
0.54640843
0.54237767
0.53650583
0.57079117
0.56805126
0.56214057
0.55280394
0.6073258
0.60464507
0.59716061
0.58232928
0.6070929
0.60444829
0.59698873
0.58216277
0.57019905
0.56751438
0.56166599
0.55237438
0.54776718
0.54579557
0.54181316
0.53602079
0.53498501
0.53354624
0.53070965
0.52668251
0.52916335
0.52797499
0.52564156
0.52234989
)
;
    }
    topAir_to_leftSolid
    {
        type            calculated;
        value           nonuniform List<scalar> 
130
(
0.47646056
0.4764964
0.47657303
0.47669505
0.47685621
0.47703357
0.47721315
0.47739302
0.47757823
0.47777705
0.47796129
0.47811114
0.47820472
0.47642744
0.47645834
0.47653401
0.476659
0.47681694
0.47699801
0.4771914
0.47738904
0.47759479
0.47780856
0.47801169
0.47817636
0.47827883
0.47636427
0.47640257
0.47648364
0.47660828
0.476768
0.47695145
0.47716263
0.47738505
0.47761437
0.47785138
0.47808298
0.47826583
0.47837674
0.47633044
0.47637286
0.47645702
0.47657408
0.47673124
0.47693144
0.47715956
0.47739747
0.47764103
0.47789657
0.47815667
0.47837004
0.47848396
0.4763508
0.47638904
0.47646611
0.47658049
0.47673671
0.47693523
0.47715453
0.47738269
0.47762581
0.47788827
0.4781562
0.47837482
0.4785099
0.47636013
0.47639536
0.47646875
0.47657955
0.47672734
0.47690938
0.47710201
0.47730234
0.47751781
0.47775279
0.47796616
0.47813048
0.47822605
0.47636801
0.47640225
0.47647033
0.47657137
0.47670355
0.4768586
0.47701806
0.47718703
0.47737153
0.47757411
0.47774088
0.4778637
0.47793195
0.47639777
0.47642891
0.47649251
0.47658471
0.47670236
0.47683478
0.47697113
0.4771186
0.47727945
0.47745624
0.47759717
0.4777001
0.47775711
0.47644013
0.47646712
0.47652611
0.47661426
0.47672695
0.47684607
0.47697044
0.47710394
0.47724686
0.47739842
0.47752545
0.47761788
0.47766906
0.4764795
0.4765045
0.47655959
0.47664492
0.4767562
0.47687038
0.47698921
0.47711435
0.47724626
0.4773849
0.47750042
0.47758422
0.47763006
)
;
    }
}


// ************************************************************************* //
