/*--------------------------------*- C++ -*----------------------------------*\
| =========                 |                                                 |
| \\      /  F ield         | OpenFOAM: The Open Source CFD Toolbox           |
|  \\    /   O peration     | Version:  v2012                                 |
|   \\  /    A nd           | Website:  www.openfoam.com                      |
|    \\/     M anipulation  |                                                 |
\*---------------------------------------------------------------------------*/
FoamFile
{
    version     2.0;
    format      ascii;
    class       surfaceScalarField;
    location    "470/topAir";
    object      phi;
}
// * * * * * * * * * * * * * * * * * * * * * * * * * * * * * * * * * * * * * //

dimensions      [1 0 -1 0 0 0 0];
oriented        oriented;


internalField   nonuniform List<scalar> 
3140
(
9.4989562e-06
-3.0115381e-07
7.1189151e-08
9.6842687e-06
-2.658121e-07
8.0526015e-08
9.8620879e-06
-2.4687686e-07
6.9096079e-08
1.0006667e-05
-1.9534868e-07
5.0818847e-08
1.0111688e-05
-1.3232258e-07
2.7361518e-08
1.0186636e-05
-7.3966785e-08
-9.1266026e-10
1.026517e-05
-2.6392774e-08
-5.2065752e-08
1.0369022e-05
1.5505041e-08
-1.1927906e-07
1.0506358e-05
7.9486345e-08
-2.1674338e-07
1.0699523e-05
1.6308263e-07
-3.5616702e-07
1.0943189e-05
3.0886082e-07
-5.5244263e-07
1.1209089e-05
5.5264133e-07
-8.1845163e-07
1.1443643e-05
9.2407939e-07
-1.1585178e-06
1.1655936e-05
1.3621989e-06
-1.5743263e-06
1.1821802e-05
1.8534158e-06
-2.0190236e-06
1.1931815e-05
2.3329389e-06
-2.4426102e-06
1.1975937e-05
2.7578109e-06
-2.8015702e-06
1.1947906e-05
3.1048165e-06
-3.076492e-06
1.1857092e-05
3.3598023e-06
-3.2688554e-06
1.1731706e-05
3.515015e-06
-3.3897303e-06
1.1606477e-05
3.5771912e-06
-3.4523576e-06
1.1509247e-05
3.564972e-06
-3.4684852e-06
1.1456442e-05
3.4983008e-06
-3.446647e-06
1.1451532e-05
3.3942741e-06
-3.3910063e-06
1.1481083e-05
3.2686328e-06
-3.3004327e-06
1.1503947e-05
3.1410427e-06
-3.1669023e-06
1.1431402e-05
3.0420745e-06
-2.9734094e-06
1.1088789e-05
3.0301767e-06
-2.6924345e-06
1.0124e-05
3.2389148e-06
-2.2800409e-06
3.9860501e-06
-1.6744734e-06
9.1156645e-06
-2.2600401e-07
7.8156569e-08
9.0873336e-06
-3.3840204e-07
1.0092376e-07
9.0918208e-06
-3.5710668e-07
1.0574716e-07
9.1425595e-06
-3.5195362e-07
1.05873e-07
9.2381125e-06
-3.287511e-07
1.0088485e-07
9.3727712e-06
-2.9739417e-07
8.8780908e-08
9.5495153e-06
-2.705329e-07
6.7413533e-08
9.7835144e-06
-2.525771e-07
3.4170129e-08
1.0100402e-05
-2.2125846e-07
-1.5987892e-08
1.0527498e-05
-1.5979735e-07
-1.0404169e-07
1.108822e-05
-1.7640618e-08
-2.3403614e-07
1.1766344e-05
2.9715818e-07
-4.2233845e-07
1.2474701e-05
8.9970144e-07
-6.8331687e-07
1.3105763e-05
1.730145e-06
-9.9792117e-07
1.3595813e-05
2.6788087e-06
-1.31413e-06
1.388899e-05
3.6069837e-06
-1.5660392e-06
1.397063e-05
4.3989836e-06
-1.7220594e-06
1.3865865e-05
5.0201221e-06
-1.8103599e-06
1.3634282e-05
5.4663958e-06
-1.875391e-06
1.335477e-05
5.7424468e-06
-1.9487811e-06
1.3089857e-05
5.8640348e-06
-2.0232144e-06
1.2871248e-05
5.8599123e-06
-2.078035e-06
1.271014e-05
5.7564216e-06
-2.0991998e-06
1.2603236e-05
5.5736401e-06
-2.0752784e-06
1.2532316e-05
5.3268616e-06
-1.9909924e-06
1.2452515e-05
5.0390366e-06
-1.8230619e-06
1.2275928e-05
4.7542633e-06
-1.5420551e-06
1.184757e-05
4.566095e-06
-1.1160937e-06
1.0925629e-05
4.6646796e-06
-5.1481038e-07
5.2685404e-06
3.3915183e-07
9.1716747e-06
-2.0889195e-07
8.0175367e-08
9.0060018e-06
-2.777243e-07
1.0499675e-07
8.8268904e-06
-2.9084771e-07
1.1285397e-07
8.6469654e-06
-2.9006389e-07
1.1803712e-07
8.4786146e-06
-2.8209125e-07
1.2169274e-07
8.327113e-06
-2.6931594e-07
1.2342545e-07
8.1895376e-06
-2.5706503e-07
1.2410953e-07
8.0620319e-06
-2.5109203e-07
1.2602432e-07
7.9614249e-06
-2.5326668e-07
1.3262018e-07
7.9286376e-06
-2.7025931e-07
1.4325346e-07
8.0731826e-06
-3.1357747e-07
1.51404e-07
8.5473591e-06
-3.1226508e-07
1.3554808e-07
9.390748e-06
-2.0223487e-08
7.7824254e-08
1.0536313e-05
5.9543838e-07
-8.476491e-09
1.1597569e-05
1.6725007e-06
-5.1678425e-08
1.2409204e-05
2.7837375e-06
1.5374919e-08
1.2886119e-05
3.6399056e-06
2.856952e-07
1.3055552e-05
4.2472889e-06
6.061942e-07
1.3006923e-05
4.6517026e-06
8.6517339e-07
1.2854484e-05
4.8861456e-06
1.0096765e-06
1.2686297e-05
4.9706529e-06
1.0617186e-06
1.2530928e-05
4.9209485e-06
1.0938415e-06
1.2391934e-05
4.7685977e-06
1.1257952e-06
1.2259815e-05
4.5447077e-06
1.1595494e-06
1.2124371e-05
4.2751506e-06
1.1851586e-06
1.1958614e-05
3.9792613e-06
1.2229658e-06
1.1721475e-05
3.6906622e-06
1.2974486e-06
1.1368956e-05
3.4868317e-06
1.4274803e-06
1.0820538e-05
3.5502754e-06
1.6570245e-06
4.2489526e-06
1.9255199e-06
8.9817518e-06
7.8310152e-08
8.6021057e-06
1.0192342e-07
8.202585e-06
1.0867468e-07
7.800315e-06
1.1220777e-07
7.4042271e-06
1.1399839e-07
7.0208345e-06
1.1407817e-07
6.6500079e-06
1.1376321e-07
6.2834085e-06
1.1550867e-07
5.9068225e-06
1.2332036e-07
5.4933475e-06
1.4321573e-07
4.9913848e-06
1.8838588e-07
4.3974905e-06
2.8165111e-07
3.9281892e-06
4.4925574e-07
3.8338243e-06
6.916604e-07
4.4515954e-06
1.0584566e-06
5.5547813e-06
1.6849072e-06
6.5792853e-06
2.6194602e-06
7.3895298e-06
3.4401908e-06
8.008812e-06
4.0344353e-06
8.505358e-06
4.3905649e-06
8.9211844e-06
4.554974e-06
9.2778577e-06
4.5638373e-06
9.5617001e-06
4.4839046e-06
9.7595659e-06
4.3456846e-06
9.8576864e-06
4.1756227e-06
9.8568257e-06
3.9784666e-06
9.7834519e-06
3.7620981e-06
9.7468361e-06
3.5211204e-06
1.008523e-05
3.2088784e-06
2.5161792e-06
9.610827e-06
-3.0085793e-07
3.0211563e-08
9.9119137e-06
-2.6686529e-07
4.6329454e-08
1.019394e-05
-2.6037905e-07
4.748391e-08
1.0430053e-05
-2.2619439e-07
4.0943952e-08
1.0613719e-05
-1.8496482e-07
2.8712109e-08
1.0757573e-05
-1.5342356e-07
8.7163414e-09
1.0862372e-05
-1.3985824e-07
-1.6939001e-08
1.0939757e-05
-1.466937e-07
-4.9894967e-08
1.0997997e-05
-1.793453e-07
-9.5552412e-08
1.1045008e-05
-2.4470892e-07
-1.5836769e-07
1.1088478e-05
-3.5181747e-07
-2.4395782e-07
1.1137219e-05
-5.0950828e-07
-3.5745049e-07
1.1205774e-05
-7.2618734e-07
-5.0040777e-07
1.1371062e-05
-1.0639858e-06
-6.746884e-07
1.1643396e-05
-1.4350786e-06
-8.5472109e-07
1.1994764e-05
-1.7727451e-06
-1.0192156e-06
1.2342185e-05
-1.9733753e-06
-1.1734899e-06
1.2602056e-05
-1.9993574e-06
-1.3351279e-06
1.2734664e-05
-1.8950612e-06
-1.5050236e-06
1.2755391e-05
-1.7425194e-06
-1.6671685e-06
1.2708912e-05
-1.6035057e-06
-1.8022644e-06
1.263994e-05
-1.4950731e-06
-1.9050271e-06
1.2581585e-05
-1.4180163e-06
-1.9716352e-06
1.2554349e-05
-1.3675514e-06
-1.998535e-06
1.2568858e-05
-1.3365431e-06
-1.9819775e-06
1.2623911e-05
-1.3118362e-06
-1.9153528e-06
1.2695779e-05
-1.2659995e-06
-1.786619e-06
1.2729675e-05
-1.1441066e-06
-1.5920974e-06
1.2607499e-05
-8.0766943e-07
-1.3627417e-06
1.8313924e-07
-1.15237e-06
9.2402586e-06
-2.2753027e-07
3.3541186e-08
9.3590964e-06
-3.4245507e-07
5.7678369e-08
9.5044849e-06
-3.6635385e-07
6.6337571e-08
9.6896228e-06
-3.7163448e-07
6.6180912e-08
9.9107354e-06
-3.6509741e-07
5.9912692e-08
1.0155954e-05
-3.5636799e-07
4.6517145e-08
1.0416407e-05
-3.5693864e-07
2.4053988e-08
1.0690515e-05
-3.7637223e-07
-1.0240262e-08
1.0981798e-05
-4.2494815e-07
-6.164054e-08
1.1287682e-05
-5.203084e-07
-1.3428341e-07
1.1618276e-05
-6.8012895e-07
-2.3624453e-07
1.1988226e-05
-9.2811947e-07
-3.7352519e-07
1.2420437e-05
-1.2950201e-06
-5.4637422e-07
1.2908581e-05
-1.8118508e-06
-7.3761363e-07
1.346081e-05
-2.3863411e-06
-9.1431291e-07
1.3998161e-05
-2.8068379e-06
-1.0686511e-06
1.4404322e-05
-2.8607329e-06
-1.2406197e-06
1.4611614e-05
-2.5699767e-06
-1.4473063e-06
1.4617084e-05
-2.1082928e-06
-1.6683906e-06
1.4483654e-05
-1.6779273e-06
-1.8811027e-06
1.4291043e-05
-1.3692154e-06
-2.0664403e-06
1.4068405e-05
-1.1435171e-06
-2.2088741e-06
1.3829579e-05
-9.9240435e-07
-2.2882507e-06
1.3587508e-05
-9.1865011e-07
-2.2846356e-06
1.3378782e-05
-9.3908596e-07
-2.1822914e-06
1.3257628e-05
-1.0450133e-06
-1.9709357e-06
1.3305936e-05
-1.2191332e-06
-1.638553e-06
1.3751403e-05
-1.4741015e-06
-1.2316529e-06
1.5355388e-05
-1.8821465e-06
-1.0434078e-06
-2.2124147e-06
-1.2475884e-06
9.2986858e-06
-2.1126683e-07
3.4188294e-08
9.2832102e-06
-2.8144317e-07
5.9461935e-08
9.255981e-06
-2.9640671e-07
7.0137584e-08
9.2294238e-06
-2.9978829e-07
7.2749923e-08
9.2142342e-06
-2.9847221e-07
7.0258858e-08
9.2137856e-06
-2.9474119e-07
6.2249177e-08
9.2275605e-06
-2.9436814e-07
4.7765921e-08
9.2549401e-06
-3.0414392e-07
2.6418337e-08
9.294452e-06
-3.3183018e-07
-7.8677333e-12
9.3575119e-06
-3.9044416e-07
-4.9668474e-08
9.4513423e-06
-5.055655e-07
-1.1698536e-07
9.5894815e-06
-7.1528483e-07
-2.1540698e-07
9.7911064e-06
-1.0691625e-06
-3.4961357e-07
1.007628e-05
-1.6068252e-06
-4.9862178e-07
1.043894e-05
-2.2035147e-06
-5.9738237e-07
1.0790566e-05
-2.555576e-06
-5.8859657e-07
1.1103129e-05
-2.3927138e-06
-4.9665977e-07
1.1303143e-05
-1.8235274e-06
-3.4249891e-07
1.1350352e-05
-1.100044e-06
-1.9270718e-07
1.127904e-05
-4.1509718e-07
-1.8404395e-07
1.1136817e-05
3.9589566e-08
-2.0748098e-07
1.10051e-05
2.5118383e-07
-1.7215424e-07
1.0903425e-05
3.0864419e-07
-7.6977928e-08
1.0795011e-05
2.6914395e-07
7.6418799e-08
1.0650811e-05
1.1409235e-07
2.7193422e-07
1.0445454e-05
-1.2703987e-07
5.0667937e-07
1.0220598e-05
-4.9278201e-07
7.9287625e-07
1.009379e-05
-8.8214874e-07
9.59174e-07
1.0621583e-05
-1.2937683e-06
5.3718398e-07
-1.6104034e-06
-6.4466389e-07
9.1027904e-06
3.3206763e-08
8.8659348e-06
5.7337547e-08
8.611046e-06
6.715841e-08
8.35444e-06
6.9027124e-08
8.1041902e-06
6.5777632e-08
7.8664525e-06
5.7076331e-08
7.6436285e-06
4.2220633e-08
7.4338812e-06
2.1113446e-08
7.2313602e-06
-5.9877135e-09
7.0368601e-06
-5.2727928e-08
6.831052e-06
-1.1137162e-07
6.5897939e-06
-1.9237482e-07
6.2875871e-06
-3.1770062e-07
5.9011128e-06
-5.2878227e-07
5.5219798e-06
-7.666337e-07
5.2798017e-06
-6.2967224e-07
5.2449216e-06
2.6161831e-07
5.2857789e-06
1.5756186e-06
5.3236867e-06
2.8953146e-06
5.5323872e-06
3.764805e-06
5.8848482e-06
4.2404532e-06
6.2650713e-06
4.433287e-06
6.5930272e-06
4.4631979e-06
6.8437551e-06
4.3627963e-06
7.0065722e-06
4.1259499e-06
7.1110103e-06
3.7452847e-06
7.1143816e-06
3.2638092e-06
7.0672011e-06
2.6836501e-06
7.683195e-06
1.2963125e-06
-1.1339371e-06
9.5881539e-06
-3.0283776e-07
1.3886931e-08
9.8797197e-06
-2.6766452e-07
2.2453577e-08
1.0160393e-05
-2.5778955e-07
2.4635831e-08
1.039836e-05
-2.1932581e-07
2.2347233e-08
1.0583833e-05
-1.7379226e-07
1.7083661e-08
1.0721222e-05
-1.3792062e-07
9.3061199e-09
1.0820813e-05
-1.1510933e-07
-1.3547909e-09
1.0890001e-05
-1.0584248e-07
-1.3162851e-08
1.0934736e-05
-1.1190223e-07
-2.8279785e-08
1.0960262e-05
-1.3765096e-07
-4.6071101e-08
1.097308e-05
-1.9100951e-07
-6.5446493e-08
1.0984015e-05
-2.84655e-07
-8.3094664e-08
1.1014714e-05
-4.3916356e-07
-9.071177e-08
1.1154951e-05
-7.3596949e-07
-7.7022694e-08
1.1398047e-05
-1.0637472e-06
-3.1858047e-08
1.1662639e-05
-1.3542595e-06
7.1993602e-08
1.1879347e-05
-1.5837429e-06
1.9378644e-07
1.203287e-05
-1.7799716e-06
2.9007643e-07
1.2114437e-05
-1.9508379e-06
3.6162674e-07
1.2125381e-05
-2.104003e-06
4.2220005e-07
1.2087785e-05
-2.2573348e-06
4.8825844e-07
1.2025058e-05
-2.4151049e-06
5.6791143e-07
1.1950896e-05
-2.5615785e-06
6.5873622e-07
1.1868127e-05
-2.6738845e-06
7.5207385e-07
1.1779365e-05
-2.7422287e-06
8.4200548e-07
1.1706538e-05
-2.778754e-06
9.2796502e-07
1.1711787e-05
-2.7972741e-06
9.9559286e-07
1.1906021e-05
-2.7671474e-06
9.6902175e-07
1.2204865e-05
-2.3263063e-06
6.4989913e-07
-1.0413222e-06
-6.1793609e-08
9.212261e-06
-2.2745483e-07
1.4868122e-08
9.3180206e-06
-3.4176952e-07
2.6026497e-08
9.4602334e-06
-3.6370959e-07
3.0048975e-08
9.6448815e-06
-3.6559134e-07
2.7804198e-08
9.8649149e-06
-3.5419077e-07
2.0285636e-08
1.0105414e-05
-3.3885061e-07
6.9586985e-09
1.0356146e-05
-3.2917522e-07
-1.2598695e-08
1.06128e-05
-3.3205271e-07
-4.0661762e-08
1.0873993e-05
-3.5494116e-07
-7.975248e-08
1.1141899e-05
-4.0761452e-07
-1.3213809e-07
1.1425366e-05
-5.110828e-07
-1.9944648e-07
1.1746158e-05
-6.9970174e-07
-2.7885808e-07
1.2146317e-05
-1.0286328e-06
-3.562638e-07
1.2614629e-05
-1.542805e-06
-3.9802051e-07
1.3081291e-05
-2.0655487e-06
-3.7851025e-07
1.3378058e-05
-2.3502612e-06
-3.697241e-07
1.3460011e-05
-2.4601024e-06
-4.4739929e-07
1.338389e-05
-2.5337218e-06
-6.1926888e-07
1.3169402e-05
-2.5518216e-06
-8.5519776e-07
1.2839658e-05
-2.5490449e-06
-1.1088619e-06
1.2430657e-05
-2.5889308e-06
-1.3285774e-06
1.1964323e-05
-2.6802663e-06
-1.4803241e-06
1.1449112e-05
-2.7834978e-06
-1.5542901e-06
1.0886956e-05
-2.8557168e-06
-1.5439192e-06
1.0285947e-05
-2.893608e-06
-1.4327435e-06
9.7142104e-06
-2.9720151e-06
-1.2073662e-06
9.4045097e-06
-3.1822687e-06
-9.4282469e-07
9.8203777e-06
-3.5395138e-06
-8.7114421e-07
1.1316763e-05
-3.509766e-06
-1.3501308e-06
-2.6677227e-06
-2.2720749e-06
9.2716459e-06
-2.1100043e-07
1.5050106e-08
9.2437697e-06
-2.8091437e-07
2.6484587e-08
9.2139639e-06
-2.9488997e-07
3.1125325e-08
9.1884167e-06
-2.9680962e-07
2.9517122e-08
9.1757082e-06
-2.9352231e-07
2.2300599e-08
9.1774174e-06
-2.8698295e-07
8.6742855e-09
9.190526e-06
-2.8206771e-07
-1.2448219e-08
9.2130049e-06
-2.8426936e-07
-4.3841374e-08
9.2466597e-06
-2.993832e-07
-8.9216692e-08
9.2825939e-06
-3.390732e-07
-1.5413511e-07
9.3221328e-06
-4.2524358e-07
-2.4234069e-07
9.3663407e-06
-6.0202887e-07
-3.5723057e-07
9.4365667e-06
-9.5726175e-07
-4.911348e-07
9.5768158e-06
-1.5831741e-06
-5.990814e-07
9.6278384e-06
-2.1331602e-06
-5.832964e-07
9.3368113e-06
-2.120276e-06
-5.3161459e-07
8.8456142e-06
-1.8698831e-06
-5.9954487e-07
8.4510949e-06
-1.749197e-06
-7.3573573e-07
8.0292658e-06
-1.3895446e-06
-9.3586659e-07
7.5006213e-06
-1.0374205e-06
-1.1690479e-06
6.8749517e-06
-8.2797456e-07
-1.3443536e-06
6.1950756e-06
-7.887093e-07
-1.3854033e-06
5.5063651e-06
-8.7659186e-07
-1.2969737e-06
4.8817704e-06
-1.0539646e-06
-1.1028394e-06
4.3584705e-06
-1.3125067e-06
-7.8764348e-07
4.0204735e-06
-1.6807512e-06
-4.4685318e-07
4.1043746e-06
-2.1555605e-06
-3.1515078e-07
4.6842071e-06
-2.7633664e-06
-3.9037496e-07
5.566887e-06
-2.6194536e-06
-1.2206407e-06
-1.2418618e-06
-2.7267e-06
9.0764779e-06
1.468233e-08
8.8272496e-06
2.5653094e-08
8.5696353e-06
2.9884443e-08
8.3139568e-06
2.789761e-08
8.0659799e-06
2.0233954e-08
7.8301756e-06
5.8992541e-09
7.6061447e-06
-1.5814573e-08
7.3918148e-06
-4.8824564e-08
7.1844628e-06
-9.8017811e-08
6.9645713e-06
-1.7190908e-07
6.7096481e-06
-2.8169315e-07
6.3665999e-06
-4.5137413e-07
5.8226621e-06
-7.3131511e-07
4.9084102e-06
-1.2010314e-06
3.735267e-06
-1.7363575e-06
2.7978536e-06
-1.8270718e-06
2.5480209e-06
-1.3683058e-06
2.4533874e-06
-8.4906453e-08
2.4838027e-06
1.4677049e-06
2.6588077e-06
2.5449004e-06
2.9474115e-06
3.1179835e-06
3.2287367e-06
3.3588375e-06
3.3979733e-06
3.4139848e-06
3.3816192e-06
3.3224732e-06
3.1892268e-06
3.0036571e-06
2.9407979e-06
2.3110327e-06
2.6806832e-06
1.3668868e-06
2.3886776e-06
2.1486328e-07
1.9576081e-06
-8.7156923e-07
-6.2319019e-07
9.582463e-06
-3.0310369e-07
3.5189621e-09
9.8662772e-06
-2.6723033e-07
5.8943004e-09
1.0140547e-05
-2.555951e-07
5.9950384e-09
1.0373036e-05
-2.1417911e-07
4.0789435e-09
1.0553282e-05
-1.6380761e-07
6.9506285e-10
1.0687461e-05
-1.2011158e-07
-4.7061007e-09
1.0783882e-05
-8.6052517e-08
-1.1660576e-08
1.0851376e-05
-6.0228119e-08
-2.03462e-08
1.0896596e-05
-4.2157465e-08
-3.1217462e-08
1.0928469e-05
-3.3445037e-08
-4.4281431e-08
1.0961729e-05
-3.9606979e-08
-5.866495e-08
1.1025365e-05
-7.474659e-08
-7.1074893e-08
1.1172936e-05
-1.6422998e-07
-7.2341249e-08
1.1493461e-05
-3.4632837e-07
-4.924275e-08
1.1859662e-05
-4.1020988e-07
1.3121381e-08
1.2155269e-05
-3.1254596e-07
8.8070213e-08
1.235142e-05
-1.7523709e-07
1.7008513e-07
1.2481165e-05
-1.0402188e-07
2.5988618e-07
1.2577404e-05
-1.0818028e-07
3.6736551e-07
1.2653104e-05
-1.6529677e-07
5.0351962e-07
1.2713593e-05
-2.578004e-07
6.7484778e-07
1.2760127e-05
-3.7416003e-07
8.8216251e-07
1.279322e-05
-5.123889e-07
1.1219299e-06
1.2821716e-05
-6.7096206e-07
1.3756742e-06
1.2854627e-05
-8.2252581e-07
1.6100369e-06
1.2864809e-05
-8.8597617e-07
1.7797002e-06
1.2728965e-05
-7.2356936e-07
1.8290525e-06
1.2228505e-05
-2.5224761e-07
1.6951301e-06
1.0808923e-05
7.9025522e-07
1.2585015e-06
2.9996367e-06
5.5435958e-07
9.2046185e-06
-2.2730382e-07
3.4206232e-09
9.2986119e-06
-3.4125674e-07
6.0621462e-09
9.4293859e-06
-3.6215938e-07
5.8433206e-09
9.6023932e-06
-3.6194269e-07
2.5661077e-09
9.8096917e-06
-3.4670399e-07
-4.1089307e-09
1.0035818e-05
-3.2476253e-07
-1.4506339e-08
1.0270486e-05
-3.0443832e-07
-2.8865584e-08
1.0509004e-05
-2.9089572e-07
-4.848756e-08
1.0751293e-05
-2.8942567e-07
-7.4721322e-08
1.1004763e-05
-3.1042086e-07
-1.0851493e-07
1.129172e-05
-3.7684058e-07
-1.4889165e-07
1.1663886e-05
-5.3558664e-07
-1.8954943e-07
1.2215775e-05
-8.5889501e-07
-2.1230615e-07
1.294693e-05
-1.2920762e-06
-1.8254507e-07
1.3613501e-05
-1.3480837e-06
-1.0739518e-07
1.4065532e-05
-1.0638449e-06
-7.1550091e-08
1.433514e-05
-8.0860151e-07
-8.5446205e-08
1.4478372e-05
-7.3598848e-07
-1.3310516e-07
1.4507915e-05
-7.92647e-07
-2.0389974e-07
1.4446013e-05
-9.1561652e-07
-3.0153865e-07
1.4293446e-05
-1.0576501e-06
-3.8229804e-07
1.4039211e-05
-1.1982859e-06
-4.089905e-07
1.3677603e-05
-1.3451075e-06
-3.672837e-07
1.3240642e-05
-1.5110198e-06
-2.7383534e-07
1.2829984e-05
-1.6794678e-06
-1.7052949e-07
1.2594223e-05
-1.7479776e-06
-1.1178148e-07
1.2558012e-05
-1.4114705e-06
-2.1612587e-07
1.2517691e-05
-5.1205824e-07
-5.6234255e-07
1.2010766e-05
1.097821e-06
-1.1582479e-06
3.1722182e-06
-1.9298318e-06
9.2643415e-06
-2.1100585e-07
3.3727871e-09
9.2245557e-06
-2.8096072e-07
5.9758647e-09
9.1824028e-06
-2.9460888e-07
5.7293678e-09
9.1433733e-06
-2.9567732e-07
2.2829548e-09
9.1150593e-06
-2.9088119e-07
-5.206424e-09
9.0979826e-06
-2.8176397e-07
-1.7245567e-08
9.0887009e-06
-2.7289262e-07
-3.4710052e-08
9.0829558e-06
-2.6923875e-07
-5.9750347e-08
9.0763647e-06
-2.7686308e-07
-9.5182945e-08
9.0649897e-06
-3.0853551e-07
-1.4463217e-07
9.0507293e-06
-3.9312042e-07
-2.1176314e-07
9.0550844e-06
-6.0081292e-07
-2.9626485e-07
9.1766209e-06
-1.0881819e-06
-3.8338814e-07
9.5731203e-06
-1.8801974e-06
-4.10041e-07
9.7264571e-06
-1.8132329e-06
-2.7575932e-07
9.4104827e-06
-1.0244886e-06
-2.5689878e-07
8.9010992e-06
-5.8391512e-07
-3.1468089e-07
8.3050381e-06
-4.1663041e-07
-4.5821044e-07
7.7331636e-06
-4.9914187e-07
-6.566949e-07
7.116776e-06
-6.044786e-07
-8.635208e-07
6.4315351e-06
-7.2065053e-07
-9.9628276e-07
5.681407e-06
-8.6553233e-07
-9.6793636e-07
4.8908611e-06
-1.0148777e-06
-8.3564097e-07
4.1304175e-06
-1.1909723e-06
-6.6074199e-07
3.6324905e-06
-1.4693631e-06
-4.9681948e-07
3.7425245e-06
-1.8088293e-06
-4.9033476e-07
4.6115406e-06
-1.6727525e-06
-9.1386586e-07
5.7356697e-06
-3.8092404e-07
-1.6318021e-06
6.1070367e-06
2.0891004e-06
-2.5705491e-06
7.3725369e-06
-3.500241e-06
9.0693984e-06
3.2319377e-09
8.8084591e-06
5.6333025e-09
8.5385584e-06
5.1779403e-09
8.2692282e-06
1.5521776e-09
8.0051508e-06
-6.5681801e-09
7.7487077e-06
-1.9419927e-08
7.4984664e-06
-3.8464257e-08
7.2470953e-06
-6.669083e-08
6.9809686e-06
-1.0875292e-07
6.673158e-06
-1.726336e-07
6.2711805e-06
-2.7283947e-07
5.6576313e-06
-4.3870124e-07
4.5743412e-06
-7.372578e-07
2.7390326e-06
-1.2583593e-06
8.0224731e-07
-1.6292155e-06
-8.1103336e-07
-1.2552039e-06
-1.907865e-06
-8.5656178e-07
-2.1302347e-06
-2.8029893e-07
-1.7330189e-06
5.6390762e-07
-1.1618654e-06
1.3610344e-06
-6.5239819e-07
1.8811889e-06
-3.4355499e-07
2.1797655e-06
-3.0966706e-07
2.3624198e-06
-5.8587761e-07
2.4069099e-06
-1.1450062e-06
2.0956456e-06
-1.7027675e-06
1.0680631e-06
-1.6803062e-06
-3.1223489e-07
1.4390592e-07
-1.9623833e-06
5.2143317e-06
-3.8118835e-06
-7.434362e-06
9.5791499e-06
-3.0360295e-07
-3.0365711e-09
9.8585161e-06
-2.6798258e-07
-5.4653636e-09
1.0128626e-05
-2.5640204e-07
-7.68031e-09
1.0357459e-05
-2.1481741e-07
-9.8989117e-09
1.0534424e-05
-1.639433e-07
-1.2281817e-08
1.0664546e-05
-1.1970889e-07
-1.5065207e-08
1.0756489e-05
-8.5156039e-08
-1.8382723e-08
1.08181e-05
-5.9361809e-08
-2.2510187e-08
1.0857163e-05
-4.2354638e-08
-2.7796527e-08
1.0884887e-05
-3.7212133e-08
-3.4557696e-08
1.0922768e-05
-5.3169134e-08
-4.2883443e-08
1.1016432e-05
-1.1166731e-07
-5.2015539e-08
1.1242632e-05
-2.3778599e-07
-5.9009816e-08
1.1658317e-05
-4.0489543e-07
-5.9441603e-08
1.2066476e-05
-3.3610813e-07
-6.0769096e-08
1.2366032e-05
-1.4713947e-07
-6.854634e-08
1.2594937e-05
2.3799942e-08
-8.6409284e-08
1.2792384e-05
1.7946944e-07
-1.2047013e-07
1.2989502e-05
3.4189568e-07
-1.7481956e-07
1.3211905e-05
5.3093927e-07
-2.5284284e-07
1.3447538e-05
7.8734134e-07
-3.511866e-07
1.3659085e-05
1.1233766e-06
-4.5609994e-07
1.3805801e-05
1.520744e-06
-5.4941412e-07
1.3854379e-05
1.9418219e-06
-6.1941835e-07
1.3766263e-05
2.3554161e-06
-6.6295751e-07
1.3449952e-05
2.7664221e-06
-6.7713187e-07
1.272632e-05
3.1959408e-06
-6.5077623e-07
1.1304866e-05
3.6710651e-06
-5.6232071e-07
8.7192802e-06
4.2286455e-06
-3.9203627e-07
5.2301624e-06
-1.7463419e-07
9.1999399e-06
-2.2750276e-07
-3.6486112e-09
9.2870921e-06
-3.4167619e-07
-7.3938167e-09
9.4105539e-06
-3.6266339e-07
-1.1353376e-08
9.5763228e-06
-3.623553e-07
-1.5659843e-08
9.7755251e-06
-3.4673251e-07
-2.0515259e-08
9.9916485e-06
-3.2420455e-07
-2.6124982e-08
1.0213694e-05
-3.0333463e-07
-3.2718728e-08
1.0436441e-05
-2.8980497e-07
-4.0769148e-08
1.0660678e-05
-2.9036306e-07
-5.0901379e-08
1.0897946e-05
-3.192071e-07
-6.3672087e-08
1.1183643e-05
-4.0848657e-07
-7.8974538e-08
1.160136e-05
-6.2336966e-07
-9.4870077e-08
1.2288559e-05
-1.0343505e-06
-1.0185168e-07
1.312489e-05
-1.3319928e-06
-9.2331054e-08
1.3739754e-05
-9.6771799e-07
-9.2282696e-08
1.4198619e-05
-5.8004246e-07
-9.9908621e-08
1.4568728e-05
-3.2548458e-07
-1.1555431e-07
1.4890788e-05
-1.5430777e-07
-1.3892673e-07
1.5157831e-05
3.034396e-08
-1.8357117e-07
1.5446338e-05
1.5624969e-07
-2.4654374e-07
1.5724313e-05
4.0510806e-07
-3.1487003e-07
1.594849e-05
8.0525748e-07
-3.5437869e-07
1.6076666e-05
1.3352538e-06
-3.4853254e-07
1.6083834e-05
1.9438904e-06
-3.1856728e-07
1.5934519e-05
2.6057316e-06
-3.0300493e-07
1.548186e-05
3.3644222e-06
-2.8459398e-07
1.4477179e-05
4.1949448e-06
-2.3467583e-07
1.2599444e-05
5.0641795e-06
-9.9708744e-08
9.4406447e-06
6.0360165e-06
1.7332356e-07
7.3000428e-06
5.2403312e-07
9.2596275e-06
-2.1109295e-07
-3.7023726e-09
9.2126391e-06
-2.8118937e-07
-7.5210721e-09
9.1623039e-06
-2.9490735e-07
-1.1689919e-08
9.1145848e-06
-2.9595008e-07
-1.6401427e-08
9.0755789e-06
-2.9098e-07
-2.195135e-08
9.0444602e-06
-2.8171447e-07
-2.8614988e-08
9.0160773e-06
-2.7283647e-07
-3.6823335e-08
8.9838612e-06
-2.6991243e-07
-4.7423978e-08
8.9408154e-06
-2.8074599e-07
-6.1749241e-08
8.8809653e-06
-3.2243249e-07
-8.154332e-08
8.8072694e-06
-4.3705383e-07
-1.0945993e-07
8.7680201e-06
-7.3414208e-07
-1.4615093e-07
8.9808092e-06
-1.4568598e-06
-1.7404012e-07
9.6228194e-06
-2.2409862e-06
-1.499114e-07
9.4230652e-06
-8.952031e-07
-1.5091128e-07
9.2098168e-06
-4.5590381e-07
-1.6726712e-07
8.9094201e-06
-1.333399e-07
-2.0434691e-07
8.5573792e-06
-2.7936979e-09
-2.5624897e-07
8.2918988e-06
-3.1572056e-08
-3.3089978e-07
8.1413598e-06
-1.5835187e-07
-4.0503559e-07
8.3084034e-06
-3.5440873e-07
-4.1279402e-07
8.9006421e-06
-4.4003189e-07
-3.2346482e-07
9.7930594e-06
-2.8557849e-07
-1.1417984e-07
1.0774582e-05
1.4020238e-07
1.465626e-07
1.1669051e-05
6.796685e-07
5.1481703e-07
1.2150474e-05
1.6039368e-06
7.656219e-07
1.182156e-05
2.657483e-06
9.2782086e-07
1.0434757e-05
3.6895933e-06
1.1041217e-06
7.5672687e-06
4.9788764e-06
1.3283207e-06
6.6226144e-06
1.5566822e-06
9.0647193e-06
-3.626405e-09
8.7965004e-06
-7.3355679e-09
8.5181704e-06
-1.1397726e-08
8.2398087e-06
-1.6034521e-08
7.9638849e-06
-2.1622697e-08
7.691248e-06
-2.849594e-08
7.4172541e-06
-3.7305101e-08
7.1299795e-06
-4.9327183e-08
6.8072894e-06
-6.6807679e-08
6.4056448e-06
-9.3421263e-08
5.8338231e-06
-1.380796e-07
4.8785674e-06
-2.1773236e-07
3.0459814e-06
-3.6404371e-07
-2.550672e-08
-4.6438328e-07
-2.258745e-06
-2.9932768e-07
-3.8620714e-06
-1.095989e-07
-4.9070486e-06
5.5354018e-08
-5.3667192e-06
1.7761044e-07
-5.185144e-06
3.5037421e-07
-4.5556892e-06
5.7139766e-07
-3.8114637e-06
7.8176493e-07
-3.062533e-06
9.9229523e-07
-2.1898273e-06
1.2085822e-06
-9.8576115e-07
1.3529935e-06
4.6211451e-07
1.3310678e-06
1.8279491e-06
1.3066378e-06
2.4449532e-06
1.7223327e-06
1.997064e-06
2.1701281e-06
8.3639656e-07
2.329777e-06
2.2185293e-06
9.5789049e-06
-3.0364214e-07
-9.3080728e-09
9.8578403e-06
-2.6803725e-07
-1.634036e-08
1.0127291e-05
-2.5646963e-07
-2.0630927e-08
1.0355128e-05
-2.1491061e-07
-2.2790367e-08
1.0530525e-05
-1.6416727e-07
-2.3471806e-08
1.0658686e-05
-1.2014375e-07
-2.3041794e-08
1.0747952e-05
-8.6005224e-08
-2.1604438e-08
1.0805794e-05
-6.1110164e-08
-1.9216793e-08
1.0840041e-05
-4.5929259e-08
-1.613409e-08
1.0862816e-05
-4.440615e-08
-1.3059142e-08
1.0898722e-05
-6.7831217e-08
-1.1363255e-08
1.1000553e-05
-1.4044766e-07
-1.4379665e-08
1.1253703e-05
-2.819093e-07
-3.1932534e-08
1.1673687e-05
-3.9679622e-07
-8.334751e-08
1.205635e-05
-2.7912015e-07
-1.6307709e-07
1.2316932e-05
-7.7589334e-08
-2.4846756e-07
1.2480698e-05
8.8417824e-08
-3.3561787e-07
1.2580144e-05
2.1508603e-07
-4.3202426e-07
1.265311e-05
2.9724898e-07
-5.4195629e-07
1.2743727e-05
3.241065e-07
-6.6429285e-07
1.2880012e-05
3.147868e-07
-7.987092e-07
1.3054234e-05
3.2174262e-07
-9.4816994e-07
1.3224411e-05
3.9944427e-07
-1.1147184e-06
1.3343292e-05
5.5896214e-07
-1.2924304e-06
1.3373413e-05
7.748844e-07
-1.462501e-06
1.3238287e-05
1.0554982e-06
-1.591326e-06
1.2784439e-05
1.428145e-06
-1.6181928e-06
1.174475e-05
1.9656845e-06
-1.4808389e-06
9.6432459e-06
2.842288e-06
-1.1249547e-06
4.5720417e-06
-4.4723449e-07
9.1996151e-06
-2.2756194e-07
-1.0373034e-08
9.2861198e-06
-3.4178362e-07
-2.0149583e-08
9.4085368e-06
-3.6284014e-07
-2.7396293e-08
9.5725598e-06
-3.6263451e-07
-3.1954209e-08
9.769209e-06
-3.4722445e-07
-3.4101341e-08
9.9818624e-06
-3.2510775e-07
-3.3807695e-08
1.0198828e-05
-3.0506987e-07
-3.0613537e-08
1.0414158e-05
-2.9335756e-07
-2.3852787e-08
1.062822e-05
-2.9795872e-07
-1.2957822e-08
1.0853355e-05
-3.3549625e-07
2.18797e-09
1.1128751e-05
-4.4473076e-07
2.2249617e-08
1.1558259e-05
-7.0157586e-07
3.6066066e-08
1.2309146e-05
-1.1636237e-06
2.7909026e-08
1.3099322e-05
-1.2495771e-06
-2.9486696e-08
1.3673123e-05
-8.2565349e-07
-1.1844615e-07
1.4082409e-05
-4.5190787e-07
-1.3316288e-07
1.4385032e-05
-2.1588097e-07
-1.0727682e-07
1.4591495e-05
-6.2796225e-08
-5.4855763e-08
1.4698015e-05
-3.352537e-09
3.0244147e-08
1.4756007e-05
-1.0924353e-07
1.5758666e-07
1.4812453e-05
-3.2168312e-07
3.0353489e-07
1.488366e-05
-4.7570735e-07
4.1982398e-07
1.4979001e-05
-4.5468464e-07
4.6680935e-07
1.5105066e-05
-2.549769e-07
4.3264751e-07
1.5255592e-05
4.6335195e-08
3.4212332e-07
1.5175668e-05
6.7930783e-07
2.3721749e-07
1.4687282e-05
1.4423315e-06
2.9869455e-07
1.3513225e-05
2.4048669e-06
6.8268374e-07
1.1506966e-05
3.7504913e-06
1.301627e-06
5.5687737e-06
1.9219476e-06
9.2592642e-06
-2.1113321e-07
-1.0433174e-08
9.2115332e-06
-2.8126367e-07
-2.0308447e-08
9.1599384e-06
-2.9503767e-07
-2.7896053e-08
9.1100054e-06
-2.9617107e-07
-3.2930176e-08
9.0677124e-06
-2.913957e-07
-3.548531e-08
9.0317158e-06
-2.8247484e-07
-3.5249373e-08
8.9955127e-06
-2.7432422e-07
-3.136385e-08
8.9504328e-06
-2.7309625e-07
-2.2603573e-08
8.8868286e-06
-2.8805286e-07
-8.0512901e-09
8.79163e-06
-3.3922635e-07
1.7377077e-08
8.6614711e-06
-4.8032643e-07
5.6259943e-08
8.5661632e-06
-8.5666662e-07
1.0416236e-07
8.8959391e-06
-1.79123e-06
1.2423913e-07
9.2993173e-06
-1.8827254e-06
8.4835838e-08
9.035694e-06
-7.0356402e-07
-7.5698598e-09
8.7447651e-06
-2.995785e-07
-2.9833417e-08
8.2720062e-06
-4.2042754e-09
5.3859248e-08
7.5666587e-06
1.2938154e-07
2.5436594e-07
6.6997715e-06
2.640219e-08
5.0392562e-07
5.6005359e-06
-1.8087364e-07
7.6205671e-07
4.3691858e-06
-4.8134912e-07
9.7265871e-07
3.2979204e-06
-8.2528925e-07
1.0906457e-06
2.7671893e-06
-1.1496139e-06
1.1064885e-06
3.0862849e-06
-1.3600716e-06
9.3300728e-07
4.3015427e-06
-1.3775649e-06
7.2512433e-07
6.2124728e-06
-1.0017466e-06
5.3969489e-07
7.7399027e-06
-1.288655e-08
8.6221475e-07
8.2702304e-06
1.1209578e-06
1.8643626e-06
7.9777498e-06
2.5119796e-06
2.8629348e-06
4.1122487e-06
3.6051449e-06
9.0643408e-06
-1.014655e-08
8.7953559e-06
-1.9612646e-08
8.5156845e-06
-2.6762383e-08
8.2348092e-06
-3.132857e-08
7.9551359e-06
-3.3343413e-08
7.6765688e-06
-3.2401975e-08
7.3923796e-06
-2.7438402e-08
7.086874e-06
-1.6915895e-08
6.7319118e-06
1.0396765e-10
6.2598536e-06
3.9413895e-08
5.5337803e-06
1.0767804e-07
4.2226017e-06
2.369276e-07
1.5702268e-06
4.9999721e-07
-1.7025884e-06
9.6227048e-07
-3.8816193e-06
1.1806138e-06
-5.3612796e-06
1.0700215e-06
-6.2993856e-06
9.8794875e-07
-6.7060637e-06
7.1170257e-07
-6.4848223e-06
1.55131e-07
-5.7587291e-06
-3.3487458e-07
-4.8685683e-06
-5.8754818e-07
-3.9943661e-06
-7.0405754e-07
-3.2062634e-06
-7.2553917e-07
-2.5228038e-06
-6.8696947e-07
-1.9706952e-06
-5.9665492e-07
-1.4049155e-06
-2.5930455e-07
-5.4120883e-07
8.4683527e-07
1.082165e-07
2.6427161e-06
9.5818466e-07
4.0124007e-06
4.876307e-06
9.5816161e-06
-3.0332869e-07
-1.8604082e-08
9.8639666e-06
-2.6757706e-07
-3.1090997e-08
1.013616e-05
-2.5608654e-07
-3.6709384e-08
1.0365908e-05
-2.1483689e-07
-3.7669583e-08
1.0542795e-05
-1.6464619e-07
-3.5677645e-08
1.0672466e-05
-1.2128633e-07
-3.1390321e-08
1.0763655e-05
-8.7731364e-08
-2.502729e-08
1.0824547e-05
-6.2951969e-08
-1.7130061e-08
1.0861197e-05
-4.6927562e-08
-5.853623e-09
1.0883128e-05
-4.2069926e-08
7.0219522e-09
1.0907115e-05
-5.5529952e-08
1.9960231e-08
1.0965284e-05
-1.0408899e-07
3.0953312e-08
1.1116519e-05
-2.1612156e-07
3.171224e-08
1.1446958e-05
-4.2649684e-07
1.1207746e-08
1.1823585e-05
-4.7061453e-07
-6.9373328e-08
1.2105223e-05
-3.3970244e-07
-1.8878779e-07
1.2263692e-05
-1.9174271e-07
-2.989466e-07
1.2346749e-05
-1.3567435e-07
-3.7464233e-07
1.2403847e-05
-1.8251e-07
-4.108134e-07
1.2471655e-05
-3.1119813e-07
-4.1456708e-07
1.2563538e-05
-4.8477642e-07
-3.9920618e-07
1.2661598e-05
-6.5934313e-07
-3.8015096e-07
1.2730087e-05
-8.059873e-07
-3.7029923e-07
1.274626e-05
-9.2761992e-07
-3.7372956e-07
1.2719799e-05