/*--------------------------------*- C++ -*----------------------------------*\
| =========                 |                                                 |
| \\      /  F ield         | OpenFOAM: The Open Source CFD Toolbox           |
|  \\    /   O peration     | Version:  v2012                                 |
|   \\  /    A nd           | Website:  www.openfoam.com                      |
|    \\/     M anipulation  |                                                 |
\*---------------------------------------------------------------------------*/
FoamFile
{
    version     2.0;
    format      ascii;
    class       volVectorField;
    location    "470/topAir";
    object      U;
}
// * * * * * * * * * * * * * * * * * * * * * * * * * * * * * * * * * * * * * //

dimensions      [0 1 -1 0 0 0 0];


internalField   nonuniform List<vector> 
1200
(
(0.10445159 -0.0024208003 0.00087060315)
(0.11790805 -0.0025114884 0.0013021384)
(0.12947628 -0.0023043649 0.0013753628)
(0.13850998 -0.0017618366 0.0012317051)
(0.14640445 -0.00094710608 0.00088559614)
(0.15378901 -2.9431539e-05 0.00029839608)
(0.16091759 0.00089188536 -0.00055636683)
(0.1680452 0.0017471214 -0.0018305585)
(0.17535292 0.0026256012 -0.0037841435)
(0.18313467 0.003709671 -0.0067213176)
(0.19155285 0.0053209259 -0.011033058)
(0.20029785 0.0078250101 -0.017121848)
(0.20795393 0.011622703 -0.025249204)
(0.21303894 0.016180587 -0.035286839)
(0.21557193 0.021331097 -0.046519629)
(0.21612696 0.026338401 -0.057790241)
(0.21496564 0.030596389 -0.06789847)
(0.21226776 0.033845865 -0.076053079)
(0.20838797 0.036025572 -0.08199427)
(0.20393067 0.037138693 -0.08585926)
(0.19962836 0.037286996 -0.087985118)
(0.19611024 0.036682483 -0.088747321)
(0.19375068 0.035549256 -0.088465702)
(0.19266482 0.034083137 -0.087361159)
(0.19272476 0.032474825 -0.085538787)
(0.19348835 0.030990158 -0.082946864)
(0.19396655 0.030051759 -0.079320358)
(0.19220681 0.030484731 -0.074091973)
(0.18478782 0.034241211 -0.066294822)
(0.14464331 0.04732611 -0.05390241)
(0.098699375 -0.003832168 0.00084378857)
(0.098479889 -0.004649938 0.0012693581)
(0.098897487 -0.0047076631 0.0014430434)
(0.099770269 -0.004249493 0.0015175867)
(0.10118442 -0.0034653534 0.0015208512)
(0.10317059 -0.0026001104 0.0014390248)
(0.10570599 -0.0018141693 0.0012489856)
(0.10892507 -0.0011815562 0.00089516864)
(0.1133206 -0.00039129311 0.00026082291)
(0.11936225 0.00092706618 -0.00082607727)
(0.12795924 0.0035903747 -0.0026639984)
(0.13937019 0.0085924604 -0.0056205686)
(0.15338118 0.016757569 -0.010202169)
(0.16832412 0.027118533 -0.016559121)
(0.18226657 0.039067758 -0.024306148)
(0.19358756 0.051232081 -0.032494923)
(0.20123996 0.062522475 -0.040111214)
(0.2048865 0.072213295 -0.046568646)
(0.20495873 0.07972706 -0.051695898)
(0.20254618 0.084637553 -0.055532433)
(0.19902419 0.086968017 -0.058176251)
(0.19551236 0.087200772 -0.059690001)
(0.19264504 0.085917807 -0.060154042)
(0.19068017 0.083606701 -0.059673335)
(0.18963022 0.080662383 -0.058306717)
(0.1892317 0.077569699 -0.055945854)
(0.18877003 0.075129456 -0.052194383)
(0.18688451 0.074902314 -0.046224349)
(0.18221144 0.080186039 -0.036140594)
(0.15452711 0.095624511 -0.016809179)
(0.098829376 -0.0028901117 0.0008705569)
(0.098009568 -0.0041843151 0.0013171203)
(0.096416403 -0.0045870857 0.0015117109)
(0.094413241 -0.0046713143 0.001625284)
(0.092464896 -0.0046263832 0.0017106772)
(0.090752643 -0.0045381321 0.0017805226)
(0.089264473 -0.0045071601 0.0018531871)
(0.087930467 -0.0045863971 0.0019695523)
(0.086792578 -0.0045999738 0.0021963975)
(0.086142325 -0.0044485118 0.0025660888)
(0.086468167 -0.0038661366 0.0030359204)
(0.089769962 -0.0013857592 0.003217188)
(0.099106698 0.005814206 0.0024826236)
(0.11391923 0.018818796 0.00062355264)
(0.131904 0.0357545 -0.002371611)
(0.14966963 0.053896647 -0.0056626025)
(0.16441837 0.070377224 -0.0084402953)
(0.1748349 0.084053228 -0.010413353)
(0.18090384 0.094519152 -0.011794106)
(0.18360119 0.10165147 -0.013017584)
(0.18433065 0.10553668 -0.014364645)
(0.18416626 0.10651267 -0.015752816)
(0.18358685 0.10513616 -0.016794252)
(0.18273297 0.10197285 -0.01717982)
(0.18164403 0.097506649 -0.016767468)
(0.18025657 0.092210946 -0.015430767)
(0.17827617 0.086855756 -0.012933634)
(0.175247 0.08309295 -0.0088060282)
(0.17172835 0.084643288 -0.0022577712)
(0.15635916 0.097737961 0.0098960309)
(0.0968715 -0.0015506275 0.00083636494)
(0.094683011 -0.0022881774 0.0012449218)
(0.091010747 -0.0025116047 0.0014009892)
(0.086516332 -0.0025414044 0.0014740659)
(0.082017952 -0.0024787159 0.0015206458)
(0.077760696 -0.0023540199 0.0015572962)
(0.073708237 -0.0022063795 0.0016083805)
(0.069763625 -0.0020737506 0.0017190811)
(0.065799489 -0.0019894807 0.0019630712)
(0.061607458 -0.0021105845 0.0024523038)
(0.056784913 -0.0029005179 0.0034177694)
(0.050940626 -0.0043744732 0.0052871078)
(0.043532618 -0.0048022185 0.008683658)
(0.039299826 0.0013259854 0.013437979)
(0.044903656 0.016021392 0.018921918)
(0.058977412 0.033267782 0.024624386)
(0.074961972 0.048142206 0.03021608)
(0.089560918 0.060069314 0.03555211)
(0.10189328 0.069216113 0.040269422)
(0.11221009 0.075677468 0.043754336)
(0.12104087 0.079449443 0.045917425)
(0.12869888 0.080563435 0.046931956)
(0.1351619 0.079373392 0.046982145)
(0.14020105 0.076389189 0.046354786)
(0.14361841 0.072137063 0.04542307)
(0.1453557 0.06708103 0.044567462)
(0.14563178 0.061861232 0.044099909)
(0.1453899 0.057772668 0.04383109)
(0.14891837 0.05773238 0.042801685)
(0.17272426 0.067657585 0.041380279)
(0.10571069 -0.0024216212 0.00098641015)
(0.12001879 -0.002521467 0.0013671272)
(0.13283719 -0.0024020806 0.0013486094)
(0.14321126 -0.0020419998 0.0011009967)
(0.15225911 -0.001509927 0.00064438487)
(0.16055193 -0.00098369727 -6.1908287e-05)
(0.1681028 -0.00061039499 -0.0010750118)
(0.17483165 -0.00045562516 -0.002545105)
(0.18072179 -0.00057966061 -0.0047203637)
(0.18575446 -0.0010576213 -0.0078782242)
(0.18986637 -0.0020069973 -0.012352689)
(0.19295634 -0.0035524201 -0.018419028)
(0.19446213 -0.0058042907 -0.026099164)
(0.19409954 -0.0093900834 -0.034821532)
(0.19341941 -0.013663946 -0.043495044)
(0.19378607 -0.017864231 -0.050958588)
(0.19517985 -0.020990398 -0.056746391)
(0.1966881 -0.022532231 -0.0610689)
(0.19742615 -0.022777024 -0.064240103)
(0.19706614 -0.022467556 -0.066439712)
(0.19587446 -0.022200051 -0.067787696)
(0.194406 -0.022129339 -0.068384495)
(0.19317954 -0.022220494 -0.068290854)
(0.1925559 -0.022419293 -0.067512137)
(0.19276166 -0.0226577 -0.065989688)
(0.19390233 -0.022749149 -0.063569076)
(0.19589913 -0.022247612 -0.059917998)
(0.19844833 -0.02009035 -0.054474541)
(0.20112805 -0.012887871 -0.046540862)
(0.19554397 0.0097201386 -0.03639454)
(0.099987161 -0.0038431086 0.0010390142)
(0.1007051 -0.0046952984 0.0015660525)
(0.10250456 -0.0048882812 0.0017433885)
(0.10493464 -0.0046826115 0.0017663571)
(0.10781879 -0.0042708526 0.0016778059)
(0.11109918 -0.0039003275 0.0014567876)
(0.11468362 -0.0037668925 0.0010628772)
(0.11849434 -0.0039756855 0.00042493005)
(0.12251469 -0.0046416761 -0.00057220986)
(0.12671158 -0.005937128 -0.0020780019)
(0.13109554 -0.0080786283 -0.0042549824)
(0.13573298 -0.011298579 -0.0072932195)
(0.1407494 -0.015843085 -0.011296365)
(0.14612013 -0.022351217 -0.015823687)
(0.15190594 -0.029696617 -0.019891263)
(0.15801201 -0.035984338 -0.022542987)
(0.16390031 -0.039086934 -0.023777714)
(0.16856921 -0.038368106 -0.024551825)
(0.17126464 -0.034898279 -0.025640366)
(0.17195802 -0.030595088 -0.027255736)
(0.17135563 -0.02695243 -0.029171924)
(0.17026521 -0.024381831 -0.031035572)
(0.1690937 -0.022749999 -0.032425072)
(0.16798777 -0.021880339 -0.032850188)
(0.16720323 -0.021777515 -0.031787444)
(0.16729726 -0.022459821 -0.028738792)
(0.16919296 -0.023765854 -0.02315774)
(0.174998 -0.025142962 -0.014255516)
(0.19085662 -0.025183317 -0.00084382094)
(0.24987479 -0.017196508 0.014367168)
(0.10012751 -0.0029179336 0.0010590351)
(0.10026006 -0.0042367562 0.0016124036)
(0.10011153 -0.0046819092 0.0018357141)
(0.099812568 -0.004841993 0.0019325821)
(0.099576406 -0.0049107596 0.00196358)
(0.09951992 -0.0049738887 0.0019306506)
(0.099657374 -0.0051161939 0.0018338017)
(0.099966343 -0.0054299648 0.0016858752)
(0.1004269 -0.0060449784 0.0015150674)
(0.10108278 -0.0071881259 0.0013078909)
(0.10203467 -0.0091568598 0.00093610126)
(0.10343326 -0.012363613 0.00019217814)
(0.10548909 -0.017399844 -0.00087627333)
(0.10826197 -0.024917776 -0.0016527952)
(0.11181973 -0.033693585 -0.00091603223)
(0.1160031 -0.040946116 0.0032554744)
(0.12154618 -0.04287371 0.011129202)
(0.12759232 -0.039480936 0.019678648)
(0.13271307 -0.033119242 0.026896453)
(0.13600972 -0.026880268 0.031684282)
(0.13750778 -0.022089934 0.034635236)
(0.1378579 -0.017989691 0.037603855)
(0.13877329 -0.015212684 0.040411646)
(0.14014152 -0.014192881 0.042751564)
(0.14110466 -0.015347502 0.044149103)
(0.14131676 -0.018183091 0.045166083)
(0.1407653 -0.021821126 0.046458295)
(0.14052305 -0.026492321 0.048290651)
(0.14574076 -0.032751651 0.052080597)
(0.17563644 -0.040807328 0.051006317)
(0.098113379 -0.0015773299 0.0010344524)
(0.096819178 -0.0023440012 0.0015695021)
(0.094520229 -0.0025998899 0.0017792181)
(0.091650293 -0.0026745703 0.0018592326)
(0.088782648 -0.002672517 0.0018696793)
(0.086109782 -0.002626695 0.0018164547)
(0.083631977 -0.0025786468 0.0017068248)
(0.081315931 -0.0025820847 0.0015599868)
(0.079117504 -0.0027128819 0.0014169314)
(0.07700816 -0.0030962666 0.0013400047)
(0.074913953 -0.0039722468 0.0014208521)
(0.072632281 -0.0057554426 0.0018192218)
(0.069809943 -0.0090048225 0.0026225758)
(0.066167853 -0.013914473 0.003946542)
(0.061948325 -0.018633984 0.0076341924)
(0.058732153 -0.018612732 0.018901999)
(0.059901541 -0.010918586 0.04180228)
(0.062840284 0.0013704384 0.064722548)
(0.066207897 0.01426606 0.083038395)
(0.070207042 0.025013001 0.096256677)
(0.075843977 0.032359242 0.10467444)
(0.082947145 0.035405345 0.10834851)
(0.089468155 0.035322658 0.10928918)
(0.094913942 0.032782013 0.10815592)
(0.098956879 0.028735192 0.10529521)
(0.10182437 0.023465566 0.10037773)
(0.10347279 0.017249847 0.093613042)
(0.103538 0.010367603 0.085923646)
(0.10870094 0.0031572188 0.078530375)
(0.13906487 -0.0021611375 0.05428626)
(0.10558575 -0.0024425126 0.00032188755)
(0.11969359 -0.0025413726 0.0005191826)
(0.13241736 -0.0023973153 0.00058053926)
(0.14280456 -0.001991456 0.00054709531)
(0.15191024 -0.0014037098 0.00044338515)
(0.1602141 -0.00082037554 0.00026982905)
(0.1677501 -0.00034613144 -6.8182173e-06)
(0.17450135 -1.9149647e-05 -0.0004022909)
(0.18047577 0.00013785842 -0.00092995007)
(0.18566283 8.7040343e-05 -0.0016116856)
(0.19000586 -0.00024028075 -0.0024658406)
(0.19339471 -0.00096015888 -0.0034707698)
(0.19518063 -0.0022674848 -0.0044943747)
(0.19496866 -0.0050012486 -0.0052666069)
(0.19432238 -0.0084945215 -0.0053458341)
(0.19419011 -0.012152511 -0.0048228996)
(0.19394012 -0.015767142 -0.0044913359)
(0.19286747 -0.019402118 -0.0051193747)
(0.19094168 -0.022941451 -0.0068335621)
(0.18834467 -0.026356195 -0.0092339009)
(0.18531652 -0.029742591 -0.011823563)
(0.18221887 -0.03308771 -0.014247881)
(0.17941051 -0.036191645 -0.016295542)
(0.17711236 -0.038775875 -0.017814031)
(0.17540672 -0.040684601 -0.018592452)
(0.17437354 -0.042010484 -0.018326571)
(0.17442728 -0.042949665 -0.016905869)
(0.17679018 -0.043069986 -0.015518779)
(0.18312796 -0.038467067 -0.017982123)
(0.19166776 -0.02091785 -0.025493669)
(0.099864983 -0.0038567808 0.00031515252)
(0.10035012 -0.0046981424 0.00052523307)
(0.1020182 -0.0048514107 0.00059724382)
(0.10442908 -0.0045801162 0.00056609425)
(0.10732505 -0.0040873059 0.00044456413)
(0.11058965 -0.0036237965 0.00021589907)
(0.11410623 -0.0033261569 -0.0001531788)
(0.11777842 -0.0032580036 -0.0007000167)
(0.12155428 -0.0034859816 -0.0014734958)
(0.12541583 -0.0041108175 -0.0025559411)
(0.12938067 -0.0053344349 -0.0040250686)
(0.13354505 -0.007490259 -0.0059190578)
(0.13813653 -0.011106407 -0.0081309696)
(0.14319082 -0.017112642 -0.010260372)
(0.14844086 -0.023700378 -0.011899342)
(0.15305796 -0.028696484 -0.01375473)
(0.15572144 -0.032029893 -0.017106574)
(0.15616873 -0.034643045 -0.022039566)
(0.15508582 -0.036491899 -0.027758642)
(0.1528635 -0.037798196 -0.033418287)
(0.14967098 -0.039147248 -0.038295467)
(0.14579507 -0.040870798 -0.041932068)
(0.14150553 -0.042847042 -0.044107945)
(0.13693261 -0.044762753 -0.044642364)
(0.13215269 -0.046511064 -0.043113898)
(0.12727656 -0.048565897 -0.038856253)
(0.12376594 -0.051641321 -0.031697642)
(0.12631995 -0.055380424 -0.025193526)
(0.14226499 -0.052099517 -0.032745589)
(0.19096951 -0.032978514 -0.055619181)
(0.10000959 -0.0029137701 0.00031942827)
(0.099920068 -0.0042271788 0.00053567925)
(0.099646932 -0.0046534515 0.00062132406)
(0.099338092 -0.004782964 0.0006074436)
(0.099137533 -0.0048090415 0.00050357753)
(0.099116425 -0.0048095174 0.00029197738)
(0.0992661 -0.0048500673 -6.0469516e-05)
(0.099547395 -0.0050025191 -0.00059827274)
(0.099949385 -0.0053662531 -0.00138192)
(0.10044633 -0.0060997728 -0.0024801193)
(0.10100349 -0.0075117532 -0.0040197503)
(0.10164326 -0.010157319 -0.0061382101)
(0.10251657 -0.014971388 -0.0088660689)
(0.1037641 -0.022738058 -0.011859338)
(0.10480126 -0.030502681 -0.014413644)
(0.10473527 -0.034018396 -0.017018132)
(0.1020062 -0.034186093 -0.02073079)
(0.098164636 -0.034077743 -0.023593716)
(0.094604683 -0.033579033 -0.026292828)
(0.090694423 -0.033463765 -0.030006204)
(0.085439211 -0.034486691 -0.033581472)
(0.078911005 -0.036632929 -0.035363457)
(0.07178481 -0.039331969 -0.034855817)
(0.064932646 -0.04194168 -0.031706343)
(0.059332185 -0.044404785 -0.024875788)
(0.055336584 -0.047728043 -0.013616965)
(0.055178499 -0.052705611 0.00053771862)
(0.062183866 -0.059926996 0.008407468)
(0.071969491 -0.059363872 -0.01786266)
(0.095003233 -0.044408141 -0.064621381)
(0.09799781 -0.0015727074 0.00031115543)
(0.096485098 -0.0023346594 0.00051727307)
(0.094063422 -0.0025828404 0.00059442296)
(0.091182641 -0.0026478074 0.00057300515)
(0.088348744 -0.002633367 0.00046207352)
(0.085709311 -0.002569824 0.00024399274)
(0.083240781 -0.0024934927 -0.00011572933)
(0.08089593 -0.0024502298 -0.00066427352)
(0.078642401 -0.0024987134 -0.0014665466)
(0.076384709 -0.002745049 -0.0026102121)
(0.073918734 -0.0034028074 -0.0042897361)
(0.070890492 -0.004956318 -0.0068495062)
(0.066607041 -0.0085278367 -0.010990749)
(0.05978917 -0.01563819 -0.017972026)
(0.048465582 -0.02184765 -0.027806694)
(0.035734133 -0.019896729 -0.034100571)
(0.025977234 -0.015269354 -0.027921389)
(0.030671532 -0.012221175 0.0039118956)
(0.03087286 -0.0026616487 0.040556588)
(0.032508074 0.0077419821 0.065928001)
(0.036476546 0.015411485 0.080753401)
(0.041439444 0.019146324 0.088039819)
(0.045524806 0.01952021 0.090695571)
(0.047541103 0.01696704 0.089879486)
(0.04689138 0.011714733 0.085884097)
(0.044249619 0.0036992388 0.078834662)
(0.040880708 -0.0069027712 0.069265152)
(0.040309511 -0.020397351 0.054345528)
(0.024437327 -0.020361494 -0.0028215221)
(0.024039233 0.0096642803 -0.058815729)
(0.10555688 -0.0024437699 0.00014717168)
(0.11958608 -0.0025373298 0.00025897857)
(0.1322219 -0.0023782588 0.00030829901)
(0.14253887 -0.0019415776 0.00029498395)
(0.15159912 -0.0012976593 0.00022417687)
(0.15990097 -0.00061918005 9.6186514e-05)
(0.167497 -2.6873507e-06 -8.8373622e-05)
(0.17439816 0.00053572793 -0.00033398685)
(0.18066818 0.0010026823 -0.000644675)
(0.18639117 0.001399755 -0.0010136032)
(0.19167556 0.0017043841 -0.0013992565)
(0.1966821 0.0018390949 -0.0016734195)
(0.20111485 0.0016523967 -0.0015104808)
(0.20501995 0.00061421032 -0.00037881398)
(0.209838 0.00036251454 0.0022589195)
(0.21540791 0.0012538259 0.006097837)
(0.22034007 0.0023791358 0.010458399)
(0.22397296 0.0030280799 0.015095672)
(0.2265046 0.0030134034 0.02007009)
(0.22823151 0.0023068858 0.025559197)
(0.22919373 0.00094603447 0.031781335)
(0.22931895 -0.0010063227 0.038759498)
(0.2285768 -0.0034836863 0.046125558)
(0.22710445 -0.0063288061 0.05315985)
(0.22529399 -0.0090861731 0.059031885)
(0.22355503 -0.010810745 0.06301987)
(0.22169283 -0.010234113 0.064399756)
(0.21806592 -0.0063197428 0.06202694)
(0.20757726 0.003977369 0.052151569)
(0.14451675 0.033561276 0.029139807)
(0.09983453 -0.003858362 0.00014254033)
(0.10021825 -0.0046929942 0.00025499671)
(0.10175235 -0.0048247516 0.00029766853)
(0.10403137 -0.0045088635 0.00026466402)
(0.10679683 -0.0039359333 0.00015788208)
(0.10992001 -0.0033375966 -2.9933253e-05)
(0.11328017 -0.0028354412 -0.00031661474)
(0.11678384 -0.002460169 -0.00072737879)
(0.12038988 -0.0022370556 -0.0012943007)
(0.12412146 -0.0022419102 -0.0020473264)
(0.12810615 -0.0026692415 -0.0029849801)
(0.1326744 -0.0039341064 -0.0040028039)
(0.13845602 -0.0066873806 -0.0047492625)
(0.14585932 -0.011036356 -0.004506418)
(0.15445704 -0.012363492 -0.0029654855)
(0.16235026 -0.010070453 -0.0014952515)
(0.16788418 -0.0072732631 -0.0012364032)
(0.17118244 -0.005935425 -0.0023790073)
(0.17299395 -0.0062980555 -0.0046429667)
(0.17381327 -0.0076529008 -0.007536194)
(0.17386625 -0.0094252219 -0.010151401)
(0.17311356 -0.011391643 -0.011679278)
(0.17137061 -0.013680387 -0.011789606)
(0.16859231 -0.016507975 -0.010672878)
(0.16532081 -0.019600015 -0.0088637141)
(0.16286908 -0.02149134 -0.007719517)
(0.16381052 -0.018640064 -0.0099789556)
(0.16903319 -0.0073634223 -0.017821813)
(0.17897145 0.017153928 -0.032124343)
(0.17559943 0.059107159 -0.050890786)
(0.099980243 -0.0029113476 0.00014289744)
(0.099791964 -0.0042218241 0.00025536844)
(0.099381477 -0.0046391516 0.00029970048)
(0.098926818 -0.0047505451 0.00026650839)
(0.09857015 -0.0047457859 0.00015310772)
(0.098366942 -0.0046942188 -5.3668388e-05)
(0.098297207 -0.0046502895 -0.00037942553)
(0.09830993 -0.0046694353 -0.0008598862)
(0.098354537 -0.0048371948 -0.0015469154)
(0.098391507 -0.0053272484 -0.0025206807)
(0.09842827 -0.0065217282 -0.0038493651)
(0.098654169 -0.0092330111 -0.0055456181)
(0.099718705 -0.014899214 -0.0073629283)
(0.10186471 -0.023305142 -0.0083728414)
(0.1047844 -0.025580537 -0.0069927691)
(0.10736737 -0.021181984 -0.0046909309)
(0.10487849 -0.016264045 -0.0042751338)
(0.098982547 -0.013260634 -0.0066026198)
(0.092125225 -0.013405927 -0.010824726)
(0.085882969 -0.015841143 -0.015240237)
(0.079731065 -0.019348774 -0.018147631)
(0.072851321 -0.02302776 -0.018110781)
(0.065428812 -0.026289618 -0.015432821)
(0.057688369 -0.029127879 -0.011599023)
(0.050535536 -0.03207564 -0.0080838578)
(0.046845529 -0.034544345 -0.0098172)
(0.053263404 -0.029838504 -0.023738781)
(0.072952248 -0.013762253 -0.042781815)
(0.093614497 0.020962007 -0.065460513)
(0.068907613 0.093796057 -0.09055043)
(0.097969046 -0.0015744634 0.0001388063)
(0.096360165 -0.0023386061 0.00024569426)
(0.093803822 -0.002586542 0.00028428776)
(0.090777147 -0.0026475681 0.00024471829)
(0.087783684 -0.0026244627 0.00012330499)
(0.084950818 -0.0025446896 -9.5616298e-05)
(0.08223503 -0.0024425971 -0.00044329437)
(0.079558553 -0.0023620522 -0.0009673962)
(0.076811209 -0.0023660693 -0.0017479387)
(0.073796909 -0.0025794132 -0.0029295248)
(0.070140258 -0.0033053699 -0.0047419733)
(0.065071702 -0.0053560556 -0.0076308739)
(0.057148205 -0.010843643 -0.012590854)
(0.04343868 -0.02079537 -0.021274262)
(0.019476792 -0.018135483 -0.031783177)
(-0.0023454607 -0.0036747437 -0.030417695)
(-0.020791987 0.0018993373 -0.020423703)
(-0.029412079 0.0009083893 -0.0061395737)
(-0.02268364 -0.0013632982 0.017193809)
(-0.017592969 0.00052438659 0.036930734)
(-0.011140975 0.0025502473 0.049245517)
(-0.0059378196 0.0031043463 0.055818634)
(-0.0034535845 0.0020813131 0.059001214)
(-0.0047135693 -0.0012415124 0.058883922)
(-0.010497406 -0.0083075427 0.050748258)
(-0.020756243 -0.017201165 0.025123034)
(-0.030362349 -0.01676611 -0.019914326)
(-0.017255158 0.0077876001 -0.062034466)
(0.044064733 0.043008015 -0.089583867)
(0.14825992 0.11150001 -0.11692669)
(0.10554006 -0.0024481256 -8.8634881e-07)
(0.11952501 -0.0025449267 -1.0338301e-05)
(0.13210394 -0.0023879714 -4.0721363e-05)
(0.14236485 -0.0019513961 -9.4967075e-05)
(0.15137493 -0.0013035834 -0.00017310469)
(0.1596252 -0.00061939193 -0.00027710721)
(0.16716063 2.9303684e-06 -0.00041429986)
(0.17398391 0.00054180607 -0.00059387399)
(0.1801545 0.00099777438 -0.00083081838)
(0.18576711 0.0013578383 -0.0011375206)
(0.19096768 0.0015681751 -0.0015104539)
(0.19603303 0.0015008861 -0.0018952944)
(0.20085405 0.0010157399 -0.0021073817)
(0.20572595 2.2227704e-05 -0.0018260715)
(0.21193591 0.00051378797 -0.0010389047)
(0.21864046 0.0017670083 -0.00013006251)
(0.22475285 0.0031033597 0.00057845102)
(0.23014877 0.004711949 0.0010800947)
(0.23555482 0.0068695411 0.0015186417)
(0.24143422 0.0095512757 0.0020542291)
(0.24779941 0.012901696 0.0029699336)
(0.25406039 0.016937301 0.0046842656)
(0.25926777 0.021446776 0.0075593619)
(0.26250305 0.026083521 0.011620781)
(0.26301641 0.030582404 0.016402533)
(0.259815 0.035108384 0.021031102)
(0.25092028 0.040225805 0.024378987)
(0.23283308 0.046925236 0.025171355)
(0.20192272 0.057111856 0.021242406)
(0.099083654 0.079080312 0.010500181)
(0.099814622 -0.0038636252 -8.1879477e-06)
(0.10013931 -0.004702073 -2.8544351e-05)
(0.1015925 -0.0048353845 -7.5708835e-05)
(0.10378807 -0.0045175646 -0.00015385996)
(0.10646937 -0.0039367722 -0.00026356071)
(0.10949612 -0.0033279131 -0.0004094008)
(0.11273479 -0.0028150865 -0.00060198276)
(0.11608332 -0.0024373849 -0.00085750244)
(0.11950103 -0.0022349149 -0.0011963318)
(0.12303425 -0.0023229621 -0.0016356188)
(0.12689333 -0.0029861135 -0.0021689982)
(0.13161883 -0.0048016561 -0.0027170593)
(0.13816128 -0.0083737818 -0.0030078628)
(0.14684766 -0.011632995 -0.0024750237)
(0.15674873 -0.0089718272 -0.0013838123)
(0.16469948 -0.0048204472 -0.00093612498)
(0.17093146 -0.0015910091 -0.0013345251)
(0.17720744 0.0007817061 -0.0022138223)
(0.18421397 0.0030129544 -0.0034021295)
(0.19203115 0.0062650809 -0.0048952947)
(0.20128263 0.011519296 -0.0063181641)
(0.21168702 0.019307173 -0.0069346035)
(0.22245865 0.029298078 -0.0061227845)
(0.23261646 0.040618897 -0.0038498031)
(0.24106673 0.052714339 -0.00082408562)
(0.24599094 0.065836667 0.0020867415)
(0.24402215 0.080255914 0.0038168342)
(0.23010409 0.096213808 0.003500891)
(0.2014209 0.11423505 -0.00057961145)
(0.1028338 0.13973779 -0.010841786)
(0.099960045 -0.0029128418 -9.4840583e-06)
(0.099711703 -0.0042255658 -3.1347218e-05)
(0.099215001 -0.0046440559 -8.1275151e-05)
(0.098665301 -0.0047547646 -0.00016528234)
(0.098204328 -0.0047466201 -0.0002863403)
(0.097871817 -0.0046908056 -0.00045299309)
(0.097628555 -0.0046438711 -0.00068195713)
(0.097401781 -0.0046685288 -0.0010003941)
(0.097116353 -0.0048710104 -0.0014490227)
(0.096713458 -0.0054835304 -0.0020826835)
(0.096223865 -0.0070417732 -0.0029721543)
(0.09607135 -0.010725362 -0.0041662217)
(0.097329882 -0.018456312 -0.005538888)
(0.099025074 -0.026274235 -0.0061197063)
(0.10548258 -0.020667806 -0.0038601125)
(0.10604438 -0.014049461 -0.0032178459)
(0.10360503 -0.0084394465 -0.004662068)
(0.099836977 -0.0036876886 -0.0074300718)
(0.096390072 -0.00078563951 -0.011079047)
(0.09448916 0.0002610283 -0.014971216)
(0.095434779 0.00086121653 -0.0177427)
(0.10161864 0.0029298722 -0.018619149)
(0.11513485 0.0083895252 -0.018103651)
(0.13238364 0.017839292 -0.015382023)
(0.14974321 0.031098662 -0.010300558)
(0.16598095 0.04750167 -0.005289456)
(0.17576936 0.065554358 -0.0025919635)
(0.17257791 0.086194974 -0.0037789749)
(0.15452205 0.11200331 -0.01007328)
(0.06799375 0.14822436 -0.020925974)
(0.097948903 -0.0015748574 -9.8853995e-06)
(0.096280011 -0.0023395681 -3.2284844e-05)
(0.093636389 -0.002587657 -8.3099965e-05)
(0.090511465 -0.0026483105 -0.00016905214)
(0.08740622 -0.0026238863 -0.00029413419)
(0.084427667 -0.0025428448 -0.00046999673)
(0.081504189 -0.0024406377 -0.00071890366)
(0.078517404 -0.0023661497 -0.001080951)
(0.075291546 -0.0023970331 -0.0016250316)
(0.071508024 -0.0027026245 -0.0024700492)
(0.066531739 -0.0037283665 -0.0038684247)
(0.058986302 -0.0067692397 -0.0063628375)
(0.046538612 -0.015194985 -0.011240428)
(0.021969021 -0.025407078 -0.019562062)
(-0.024014184 7.6715884e-05 -0.022418856)
(-0.040342328 0.0044488352 -0.015116512)
(-0.058832084 0.0050753256 -0.009376469)
(-0.068712697 0.0030421764 -0.0026162948)
(-0.069265776 -0.0012905281 0.0063308003)
(-0.063390567 -0.0057709809 0.016752394)
(-0.05492856 -0.0093140506 0.025181927)
(-0.045863864 -0.012040144 0.031453305)
(-0.036423554 -0.012887773 0.035928904)
(-0.023657836 -0.010129812 0.036932941)
(-0.0057576427 -0.0022964195 0.031471666)
(0.015593279 0.014681019 0.019078627)
(0.034540425 0.037779272 0.013218465)
(0.034857411 0.059904361 0.0057102907)
(0.030716388 0.090023711 -0.014717212)
(-0.016427128 0.13167335 -0.062383464)
(0.1055404 -0.0024484461 -0.00010583521)
(0.11952388 -0.002545333 -0.00019519863)
(0.13209693 -0.0023883836 -0.00026488257)
(0.14234693 -0.0019517433 -0.00031819318)
(0.15133865 -0.0013047307 -0.00036058443)
(0.15956118 -0.0006222893 -0.00039752595)
(0.16705684 -3.6471338e-06 -0.00043201548)
(0.17382107 0.00052670105 -0.00046604194)
(0.17990508 0.00096487358 -0.00050037658)
(0.18540118 0.0012907189 -0.00054341671)
(0.19047035 0.0014401837 -0.00061483123)
(0.19545238 0.0012762544 -0.00075953048)
(0.20040538 0.00073567835 -0.0010945234)
(0.20568646 0.00017049791 -0.0017743412)
(0.21201515 0.00099804831 -0.0028447961)
(0.218339 0.0023586669 -0.004099127)
(0.22336353 0.0036769672 -0.0054447266)
(0.22710214 0.0051012079 -0.007184019)
(0.23022598 0.0066099755 -0.0097307865)
(0.23337106 0.007819067 -0.013350529)
(0.23706413 0.008531182 -0.018149072)
(0.24142963 0.0090551141 -0.02402465)
(0.24595405 0.0098554036 -0.030666)
(0.24969895 0.011037538 -0.037629617)
(0.25177531 0.012341023 -0.044331705)
(0.25123887 0.014136123 -0.049874007)
(0.24646215 0.01722763 -0.052729163)
(0.23441254 0.023285554 -0.050749883)
(0.21103682 0.035497062 -0.041398994)
(0.12033137 0.065252884 -0.023112756)
(0.099813221 -0.0038643764 -0.00011102679)
(0.1001331 -0.0047033057 -0.0002134337)
(0.10157744 -0.0048371822 -0.00029751603)
(0.10375823 -0.004520204 -0.00036311203)
(0.10641644 -0.003941954 -0.00041383029)
(0.10941019 -0.0033378135 -0.0004516592)
(0.11260184 -0.002834494 -0.00047517616)
(0.11588133 -0.0024776262 -0.00048177685)
(0.11919987 -0.0023198533 -0.00046969007)
(0.12260387 -0.0024995175 -0.00044308411)
(0.12632432 -0.0033542015 -0.00042135416)
(0.13100948 -0.0055385893 -0.00046731559)
(0.13779497 -0.0095345218 -0.00074025991)
(0.14684957 -0.011124496 -0.0014669294)
(0.15644368 -0.0075802128 -0.002418758)
(0.16384318 -0.0032916194 -0.0027567868)
(0.16954173 -0.0003071394 -0.0025607328)
(0.17457438 0.0013580581 -0.0023259538)
(0.17913406 0.0018692111 -0.0023898945)
(0.18268452 0.0015914 -0.0026642891)
(0.18534785 0.0010763347 -0.0030624074)
(0.18791206 0.0011670991 -0.0035358503)
(0.19136458 0.0029659975 -0.0042367791)
(0.19648858 0.0069213283 -0.0056353513)
(0.20366883 0.013076938 -0.0081178913)
(0.20983033 0.020961157 -0.010721802)
(0.21314173 0.030998557 -0.011608793)
(0.2104255 0.044804506 -0.0078581786)
(0.20143526 0.066744806 0.0033062636)
(0.15628116 0.10432056 0.022310045)
(0.099958536 -0.0029135309 -0.00011155157)
(0.099704741 -0.0042268838 -0.00021394926)
(0.099197513 -0.0046463053 -0.00029993101)
(0.098629687 -0.0047585608 -0.00036880268)
(0.098139811 -0.0047534918 -0.00042318366)
(0.097764139 -0.0047030692 -0.00046318533)
(0.097454606 -0.0046670412 -0.00048501029)
(0.097120855 -0.0047161115 -0.000482607)
(0.096662684 -0.0049750061 -0.00044908764)
(0.095979083 -0.0057156696 -0.00038091529)
(0.095059674 -0.0075999037 -0.00027712999)
(0.094448165 -0.012109899 -0.00016591343)
(0.095481793 -0.021617343 -0.00010388544)
(0.096799294 -0.025163095 -0.00029445993)
(0.10242408 -0.018697226 -0.0021805504)
(0.10176472 -0.01205269 -0.0023068053)
(0.098323987 -0.0062885531 -0.0013322995)
(0.09129045 -0.001795381 0.00015253709)
(0.083164532 -0.0001677139 0.00182545)
(0.072459312 -0.0021826271 0.003975435)
(0.059257791 -0.0070151709 0.0069915407)
(0.045614512 -0.012426378 0.010943213)
(0.034883228 -0.016135008 0.016387592)
(0.035000581 -0.017022529 0.022093206)
(0.045316843 -0.013759309 0.02672552)
(0.069268745 -0.0051483541 0.028778624)
(0.098976911 0.0082517395 0.030632558)
(0.11653583 0.027857176 0.037041521)
(0.12707367 0.056050615 0.049295927)
(0.11650547 0.095379054 0.065145725)
(0.097947449 -0.0015751913 -0.00010880827)
(0.096272976 -0.0023402381 -0.00020730785)
(0.093618145 -0.0025887823 -0.00028906569)
(0.090473189 -0.002650106 -0.00035344829)
(0.087335123 -0.0026270312 -0.00040305469)
(0.084305637 -0.0025483837 -0.00043726304)
(0.08129852 -0.0024512211 -0.00045066876)
(0.078165371 -0.002388923 -0.00043343167)
(0.074679114 -0.002449977 -0.00037085533)
(0.070379205 -0.0028297384 -0.00024197297)
(0.064287198 -0.0040813746 1.8842201e-05)
(0.054282973 -0.007901646 0.00057126125)
(0.038729846 -0.018670604 0.0020222749)
(-0.0011732296 -0.01920255 0.0078031753)
(-0.042686379 0.0032001901 0.012132722)
(-0.06211906 0.0065404558 0.012155078)
(-0.078225388 0.0066491554 0.012764211)
(-0.086084581 0.0038849005 0.011762296)
(-0.088323043 -0.00078694176 0.010649326)
(-0.081163646 -0.0059623076 0.009422598)
(-0.070557442 -0.010241584 0.0095655168)
(-0.059424035 -0.013562268 0.011610914)
(-0.048980929 -0.016514244 0.014761409)
(-0.039481455 -0.019332757 0.01802819)
(-0.031459255 -0.020537179 0.021785209)
(-0.025458475 -0.016492921 0.030406992)
(-0.017093084 -0.0026415452 0.045666504)
(-0.002742932 0.024322137 0.062894895)
(0.008246241 0.052783326 0.080109072)
(0.035760064 0.084823872 0.091785205)
(0.10555681 -0.0024456049 -0.0002415385)
(0.11957945 -0.0025402598 -0.00044035428)
(0.13219591 -0.0023823706 -0.00057671294)
(0.14248072 -0.0019468517 -0.00065516848)
(0.15149612 -0.0013040374 -0.00068450735)
(0.15973572 -0.00062800457 -0.00066835254)
(0.16724844 -1.5725934e-05 -0.00060718415)
(0.17403988 0.00051258552 -0.00051629862)
(0.18016002 0.00095753045 -0.00039746955)
(0.18568036 0.0013134937 -0.00026031782)
(0.19071021 0.001546085 -0.00015500544)