/*--------------------------------*- C++ -*----------------------------------*\
| =========                 |                                                 |
| \\      /  F ield         | OpenFOAM: The Open Source CFD Toolbox           |
|  \\    /   O peration     | Version:  v2012                                 |
|   \\  /    A nd           | Website:  www.openfoam.com                      |
|    \\/     M anipulation  |                                                 |
\*---------------------------------------------------------------------------*/
FoamFile
{
    version     2.0;
    format      ascii;
    class       volScalarField;
    location    "230/leftSolid";
    object      T;
}
// * * * * * * * * * * * * * * * * * * * * * * * * * * * * * * * * * * * * * //

dimensions      [0 0 0 1 0 0 0];


internalField   nonuniform List<scalar> 
130
(
784.65338
784.623
784.55321
784.44084
784.28689
784.093
783.85722
783.57869
783.27862
782.99554
782.74473
782.54704
782.42714
784.7448
784.71426
784.64632
784.53381
784.37728
784.1796
783.93675
783.64999
783.31953
783.00202
782.72218
782.50558
782.38183
784.86321
784.82881
784.75626
784.63415
784.46032
784.24688
783.97428
783.65158
783.30234
782.95776
782.6422
782.40457
782.27553
784.97024
784.92364
784.83876
784.69218
784.48812
784.24043
783.94162
783.59055
783.20167
782.83892
782.5265
782.28749
782.13509
785.00925
784.95309
784.84337
784.67859
784.45798
784.18692
783.86358
783.48355
783.05406
782.65948
782.32137
782.06125
781.90744
784.93204
784.86405
784.74989
784.58933
784.37037
784.09576
783.76051
783.35511
782.93045
782.55484
782.24082
782.0045
781.86233
784.79697
784.73546
784.63488
784.49825
784.29796
784.03809
783.72
783.34369
782.97866
782.65565
782.38827
782.20313
782.10185
784.64119
784.6053
784.51636
784.3789
784.19792
783.97133
783.70311
783.40073
783.1051
782.83214
782.60417
782.46706
782.39338
784.50012
784.46992
784.39534
784.2799
784.12182
783.92838
783.71761
783.48128
783.22545
782.97236
782.75335
782.60762
782.5327
784.40608
784.3785
784.3122
784.2119
784.08347
783.93183
783.75436
783.54293
783.30519
783.06979
782.85987
782.69592
782.60023
)
;

boundaryField
{
    minX
    {
        type            zeroGradient;
    }
    minZ
    {
        type            zeroGradient;
    }
    maxZ
    {
        type            zeroGradient;
    }
    leftSolid_to_bottomWater
    {
        type            compressible::turbulentTemperatureCoupledBaffleMixed;
        refValue        nonuniform List<scalar> 
130
(
984.03545
984.37726
984.23211
983.8195
983.39427
983.103
982.4726
979.94716
976.82104
976.17815
974.81826
972.66032
968.608
986.88008
987.06419
987.56892
987.54951
987.53137
987.91814
987.96382
988.26784
981.41283
978.16832
975.73855
972.75748
970.11412
989.14127
989.12372
989.94286
990.15771
988.86658
991.01737
989.38548
986.14985
983.1207
979.62875
973.06266
968.66625
967.88463
993.12987
991.3252
993.51383
992.11925
989.34254
988.81724
988.11952
985.97989
978.66705
975.61279
973.65355
972.54133
966.36572
996.31851
995.3245
993.74181
992.11112
990.09498
988.55622
987.44589
985.4149
973.68536
967.7257
962.63137
957.88545
953.62355
994.96342
991.13855
989.30417
988.53913
986.94624
985.9399
984.59264
975.83754
964.83251
960.05962
956.13823
952.73725
947.69731
992.49346
988.39398
986.85541
989.51993
988.64324
987.2375
984.87263
974.82511
969.70789
967.11541
963.86053
962.76851
961.4148
988.65753
989.83225
988.25432
986.02147
985.32485
984.02682
981.89442
977.21736
975.56601
973.48713
969.59302
974.01583
974.2311
986.55867
986.94938
985.86073
985.53443
983.71908
981.15835
982.07287
982.08324
979.80419
975.85138
971.39038
971.70202
972.32814
984.26181
984.40335
983.32526
982.70529
982.90904
984.16571
985.05591
984.15562
981.34665
978.98963
976.59378
973.12677
969.52477
)
;
        refGradient     uniform 0;
        valueFraction   nonuniform List<scalar> 
130
(
0.0075140686
0.0075140686
0.0075140686
0.0075140686
0.0075140686
0.0075140686
0.0075140686
0.0075140686
0.0075140686
0.0075140686
0.0075140686
0.0075140686
0.0075140686
0.0075140686
0.0075140686
0.0075140686
0.0075140686
0.0075140686
0.0075140686
0.0075140686
0.0075140686
0.0075140686
0.0075140686
0.0075140686
0.0075140686
0.0075140686
0.0075140686
0.0075140686
0.0075140686
0.0075140686
0.0075140686
0.0075140686
0.0075140686
0.0075140686
0.0075140686
0.0075140686
0.0075140686
0.0075140686
0.0075140686
0.0075140686
0.0075140686
0.0075140686
0.0075140686
0.0075140686
0.0075140686
0.0075140686
0.0075140686
0.0075140686
0.0075140686
0.0075140686
0.0075140686
0.0075140686
0.0075140686
0.0075140686
0.0075140686
0.0075140686
0.0075140686
0.0075140686
0.0075140686
0.0075140686
0.0075140686
0.0075140686
0.0075140686
0.0075140686
0.0075140686
0.0075140686
0.0075140686
0.0075140686
0.0075140686
0.0075140686
0.0075140686
0.0075140686
0.0075140686
0.0075140686
0.0075140686
0.0075140686
0.0075140686
0.0075140686
0.0075140686
0.0075140686
0.0075140686
0.0075140686
0.0075140686
0.0075140686
0.0075140686
0.0075140686
0.0075140686
0.0075140686
0.0075140686
0.0075140686
0.0075140686
0.0075140686
0.0075140686
0.0075140686
0.0075140686
0.0075140686
0.0075140686
0.0075140686
0.0075140686
0.0075140686
0.0075140686
0.0075140686
0.0075140686
0.0075140686
0.0075140686
0.0075140686
0.0075140686
0.0075140686
0.0075140686
0.0075140686
0.0075140686
0.0075140686
0.0075140686
0.0075140686
0.0075140686
0.0075140686
0.0075140686
0.0075140686
0.0075140686
0.0075140686
0.0075140686
0.0075140686
0.0075140686
0.0075140686
0.0075140686
0.0075140686
0.0075140686
0.0075140686
0.0075140686
0.0075140686
)
;
        value           nonuniform List<scalar> 
130
(
786.13683
786.10922
786.03883
785.92417
785.76815
785.57351
785.33479
785.03938
784.71806
784.43227
784.17311
783.9607
783.81126
786.24894
786.22
786.15633
786.04449
785.88897
785.69567
785.45498
785.17267
784.79319
784.45369
784.15766
783.92027
783.77758
786.38344
786.34916
786.28329
786.1637
785.98147
785.78578
785.50295
785.15834
784.78898
784.42075
784.05818
783.78931
783.65534
786.51961
786.45981
786.39199
786.23603
786.01264
785.76287
785.46105
785.09653
784.65565
784.27272
783.94794
783.70237
783.50463
786.58227
786.51907
786.39828
786.22248
785.98837
785.70778
785.37854
784.98614
784.4718
784.03548
783.66163
783.36776
783.18303
786.49545
786.39924
786.27218
786.1071
785.8778
785.59767
785.25484
784.78675
784.28268
783.87413
783.53307
783.27297
783.09394
786.34285
786.25102
786.13968
786.02412
785.81872
785.55021
785.21675
784.76782
784.36716
784.02714
783.73733
783.54542
783.43476
786.15939
786.13264
786.03253
785.87933
785.69447
785.45984
785.17764
784.84241
784.53664
784.25015
783.99465
783.89182
783.82033
786.00362
785.9766
785.89442
785.7774
785.60687
785.39562
785.19332
784.95889
784.68788
784.40702
784.15615
784.01385
783.9442
785.89301
785.86673
785.79284
785.68862
785.56268
785.42162
785.25223
785.03565
784.7786
784.52727
784.30095
784.11218
783.99015
)
;
        Tnbr            T;
        thicknessLayers List<scalar> 0();
        kappaLayers     List<scalar> 0();
        kappaMethod     solidThermo;
        kappa           none;
        alphaAni        none;
        alpha           none;
        field           T;
    }
    leftSolid_to_heater
    {
        type            compressible::turbulentTemperatureCoupledBaffleMixed;
        refValue        nonuniform List<scalar> 10(687.81775 679.80945 662.85713 635.10593 594.32636 594.37057 635.31878 663.15446 680.11577 688.1237);
        refGradient     uniform 0;
        valueFraction   nonuniform List<scalar> 10(2.08329e-05 2.08329e-05 2.08329e-05 2.08329e-05 2.08329e-05 2.08329e-05 2.08329e-05 2.08329e-05 2.08329e-05 2.08329e-05);
        value           nonuniform List<scalar> 10(782.4102 782.3647 782.25806 782.11713 781.88873 781.84383 782.08422 782.37625 782.51582 782.58351);
        Tnbr            T;
        thicknessLayers List<scalar> 1(0.001);
        kappaLayers     List<scalar> 1(0.0005);
        kappaMethod     solidThermo;
        kappa           none;
        alphaAni        none;
        alpha           none;
        field           T;
    }
    leftSolid_to_topAir
    {
        type            compressible::turbulentTemperatureCoupledBaffleMixed;
        refValue        nonuniform List<scalar> 
130
(
319.77883
338.14344
354.7708
370.0972
384.49756
398.21492
411.38024
423.99587
435.7321
446.56042
456.41459
465.16438
472.52586
319.77822
337.94625
354.19055
368.9489
382.56988
395.24684
407.05741
417.98674
427.92351
436.65564
443.91034
449.35807
452.62576
319.7814
337.98969
354.28748
369.11238
382.8202
395.61491
407.59689
418.80886
429.24375
438.83089
447.4197
454.79286
460.55455
319.78583
338.00993
354.3407
369.21979
383.01549
395.95552
408.17898
419.78012
430.82615
441.3645
451.42773
461.01086
469.92455
319.78699
338.01605
354.35569
369.24768
383.06153
396.02716
408.28691
419.93903
431.05803
441.70105
451.89434
461.64665
470.69016
319.78384
338.00938
354.3453
369.23352
383.04318
396.00368
408.25661
419.89913
431.00605
441.63529
451.81742
461.56596
470.58766
319.7788
337.99573
354.31899
369.19094
382.97916
395.91032
408.12269
419.70962
430.73955
441.25778
451.29103
460.83235
469.66522
319.77243
337.97245
354.26199
369.07835
382.77734
395.56234
407.53401
418.73447
429.15753
438.73263
447.31059
454.67006
460.40717
319.76835
337.92746
354.16349
368.91405
382.52741
395.1968
407.00076
417.92531
427.85911
436.58919
443.8427
449.29041
452.55802
319.76886
338.12455
354.74407
370.06379
384.45894
398.17312
411.33785
423.9557
435.69551
446.52785
456.3856
465.13759
472.49896
)
;
        refGradient     uniform 0;
        valueFraction   nonuniform List<scalar> 
130
(
0.00032132529
0.00032132529
0.00032132529
0.00032132529
0.00032132529
0.00032132529
0.00032132529
0.00032132529
0.00032132529
0.00032132529
0.00032132529
0.00032132529
0.00032132529
0.00032132529
0.00032132529
0.00032132529
0.00032132529
0.00032132529
0.00032132529
0.00032132529
0.00032132529
0.00032132529
0.00032132529
0.00032132529
0.00032132529
0.00032132529
0.00032132529
0.00032132529
0.00032132529
0.00032132529
0.00032132529
0.00032132529
0.00032132529
0.00032132529
0.00032132529
0.00032132529
0.00032132529
0.00032132529
0.00032132529
0.00032132529
0.00032132529
0.00032132529
0.00032132529
0.00032132529
0.00032132529
0.00032132529
0.00032132529
0.00032132529
0.00032132529
0.00032132529
0.00032132529
0.00032132529
0.00032132529
0.00032132529
0.00032132529
0.00032132529
0.00032132529
0.00032132529
0.00032132529
0.00032132529
0.00032132529
0.00032132529
0.00032132529
0.00032132529
0.00032132529
0.00032132529
0.00032132529
0.00032132529
0.00032132529
0.00032132529
0.00032132529
0.00032132529
0.00032132529
0.00032132529
0.00032132529
0.00032132529
0.00032132529
0.00032132529
0.00032132529
0.00032132529
0.00032132529
0.00032132529
0.00032132529
0.00032132529
0.00032132529
0.00032132529
0.00032132529
0.00032132529
0.00032132529
0.00032132529
0.00032132529
0.00032132529
0.00032132529
0.00032132529
0.00032132529
0.00032132529
0.00032132529
0.00032132529
0.00032132529
0.00032132529
0.00032132529
0.00032132529
0.00032132529
0.00032132529
0.00032132529
0.00032132529
0.00032132529
0.00032132529
0.00032132529
0.00032132529
0.00032132529
0.00032132529
0.00032132529
0.00032132529
0.00032132529
0.00032132529
0.00032132529
0.00032132529
0.00032132529
0.00032132529
0.00032132529
0.00032132529
0.00032132529
0.00032132529
0.00032132529
0.00032132529
0.00032132529
0.00032132529
0.00032132529
0.00032132529
)
;
        value           nonuniform List<scalar> 
130
(
784.48917
784.46468
784.40022
784.29277
784.14348
783.95404
783.72259
783.4482
783.15199
782.87247
782.62489
782.43009
782.3126
784.58057
784.55586
784.49313
784.38537
784.23324
784.03968
783.8007
783.51755
783.1904
782.8758
782.59835
782.38355
782.26088
784.69893
784.67038
784.60308
784.48576
784.31638
784.1071
783.83843
783.51942
783.17366
782.83227
782.51952
782.28434
782.15718
784.8059
784.76518
784.68556
784.5438
784.34424
784.10079
783.80599
783.45875
783.07358
782.71437
782.4053
782.16945
782.01988
784.84488
784.7946
784.69017
784.53022
784.31411
784.04731
783.72802
783.35189
782.92617
782.53521
782.20049
781.94354
781.79264
784.76769
784.70558
784.59674
784.44103
784.22657
783.95619
783.625
783.22353
782.80267
782.4307
782.12011
781.887
781.74772
784.63267
784.57706
784.4818
784.35002
784.15419
783.89854
783.58448
783.21206
782.85077
782.53129
782.26724
782.08527
781.98689
784.47692
784.44693
784.36327
784.23062
784.05409
783.83169
783.56744
783.26878
782.97664
782.70689
782.48176
782.34707
782.27528
784.3359
784.31156
784.24224
784.13159
783.97793
783.78861
783.58171
783.34901
783.09648
782.84631
782.62971
782.48577
782.41193
784.24188
784.22023
784.1593
784.06395
783.94018
783.79299
783.61986
783.41259
783.1787
782.94687
782.74021
782.57913
782.48584
)
;
        Tnbr            T;
        thicknessLayers List<scalar> 0();
        kappaLayers     List<scalar> 0();
        kappaMethod     solidThermo;
        kappa           none;
        alphaAni        none;
        alpha           none;
        field           T;
    }
}


// ************************************************************************* //
