/*--------------------------------*- C++ -*----------------------------------*\
| =========                 |                                                 |
| \\      /  F ield         | OpenFOAM: The Open Source CFD Toolbox           |
|  \\    /   O peration     | Version:  v2012                                 |
|   \\  /    A nd           | Website:  www.openfoam.com                      |
|    \\/     M anipulation  |                                                 |
\*---------------------------------------------------------------------------*/
FoamFile
{
    version     2.0;
    format      ascii;
    class       surfaceScalarField;
    location    "290/topAir";
    object      phi;
}
// * * * * * * * * * * * * * * * * * * * * * * * * * * * * * * * * * * * * * //

dimensions      [1 0 -1 0 0 0 0];
oriented        oriented;


internalField   nonuniform List<scalar> 
3140
(
9.4761855e-06
-2.8059331e-07
7.3425818e-08
9.6470094e-06
-2.556073e-07
8.4861285e-08
9.8140851e-06
-2.4259396e-07
7.562634e-08
9.9511524e-06
-1.9619637e-07
5.9261529e-08
1.0051316e-05
-1.3754809e-07
3.7537404e-08
1.012232e-05
-8.1722179e-08
1.0890288e-08
1.0189573e-05
-3.3869503e-08
-3.3191314e-08
1.0280706e-05
4.3696982e-09
-9.5287471e-08
1.0401479e-05
6.3409659e-08
-1.8394302e-07
1.0573279e-05
1.3992126e-07
-3.1145776e-07
1.0796488e-05
2.6933377e-07
-4.9225212e-07
1.1044214e-05
4.933638e-07
-7.4077593e-07
1.1260737e-05
8.4838713e-07
-1.064582e-06
1.1438873e-05
1.2889228e-06
-1.4667638e-06
1.155843e-05
1.7919804e-06
-1.9112958e-06
1.1629737e-05
2.2816967e-06
-2.3528404e-06
1.166248e-05
2.7105691e-06
-2.7432194e-06
1.1654529e-05
3.0594223e-06
-3.0513991e-06
1.1606415e-05
3.3216184e-06
-3.2733978e-06
1.1536359e-05
3.4915184e-06
-3.4212831e-06
1.1474431e-05
3.5717619e-06
-3.5095604e-06
1.1446077e-05
3.5773438e-06
-3.5486006e-06
1.1463241e-05
3.528004e-06
-3.544618e-06
1.1522088e-05
3.4424466e-06
-3.5005128e-06
1.1601912e-05
3.3373789e-06
-3.4161133e-06
1.1657959e-05
3.2314498e-06
-3.2860556e-06
1.1599469e-05
3.1555848e-06
-3.0953228e-06
1.1243322e-05
3.1727313e-06
-2.8145529e-06
1.0219395e-05
3.4215536e-06
-2.3953509e-06
4.2464926e-06
-1.7715018e-06
9.1213466e-06
-2.1324534e-07
8.0271816e-08
9.0828183e-06
-3.2190258e-07
1.0482335e-07
9.0711574e-06
-3.4264648e-07
1.1171689e-07
9.1004787e-06
-3.399538e-07
1.1444418e-07
9.1697971e-06
-3.1958736e-07
1.1273442e-07
9.2734185e-06
-2.901446e-07
1.0482173e-07
9.4131396e-06
-2.625354e-07
8.897502e-08
9.6018003e-06
-2.4667436e-07
6.2433957e-08
9.8652552e-06
-2.212611e-07
2.1285759e-08
1.0227347e-05
-1.7190368e-07
-5.0225459e-08
1.0718428e-05
-5.5416057e-08
-1.6645205e-07
1.1334181e-05
2.1743016e-07
-3.4011266e-07
1.1994098e-05
7.7865739e-07
-5.9059737e-07
1.2580502e-05
1.6154783e-06
-9.1336831e-07
1.3034269e-05
2.6074054e-06
-1.2694983e-06
1.3336325e-05
3.5682391e-06
-1.5887248e-06
1.3476009e-05
4.3850384e-06
-1.8139954e-06
1.3466268e-05
5.0126615e-06
-1.9429788e-06
1.3343004e-05
5.4642012e-06
-2.0184576e-06
1.3168754e-05
5.7524897e-06
-2.0855797e-06
1.3003657e-05
5.8922901e-06
-2.15404e-06
1.2880799e-05
5.9103731e-06
-2.2084833e-06
1.2809424e-05
5.8355348e-06
-2.2340429e-06
1.2780796e-05
5.6922567e-06
-2.2184771e-06
1.277112e-05
5.4978778e-06
-2.1473775e-06
1.2735839e-05
5.2694133e-06
-1.9984754e-06
1.2584199e-05
5.0475443e-06
-1.7354911e-06
1.2143407e-05
4.9248693e-06
-1.3062232e-06
1.1140255e-05
5.0915176e-06
-6.6167662e-07
5.7739449e-06
2.4347821e-07
9.1774547e-06
-2.039739e-07
8.2230726e-08
9.0171316e-06
-2.7029936e-07
1.0871611e-07
8.8395012e-06
-2.8345622e-07
1.1843657e-07
8.6572759e-06
-2.8347283e-07
1.2574104e-07
8.4821587e-06
-2.7630992e-07
1.318371e-07
8.3196463e-06
-2.6400006e-07
1.3636596e-07
8.1685463e-06
-2.5150081e-07
1.4006491e-07
8.0217106e-06
-2.444448e-07
1.4460755e-07
7.8923742e-06
-2.4543993e-07
1.5351847e-07
7.8129458e-06
-2.5991236e-07
1.6743866e-07
7.8759347e-06
-2.981623e-07
1.7974423e-07
8.2343618e-06
-3.1116612e-07
1.6994396e-07
8.9491888e-06
-5.3754948e-08
1.1702571e-07
9.9870687e-06
5.6456716e-07
1.2391852e-08
1.096815e-05
1.6981082e-06
-7.2372352e-08
1.1760682e-05
2.8585186e-06
-8.3276731e-08
1.2332401e-05
3.7437374e-06
6.9316208e-08
1.2639552e-05
4.3288645e-06
3.7668508e-07
1.2733624e-05
4.7039555e-06
6.6650684e-07
1.2708516e-05
4.9246939e-06
8.5344262e-07
1.2656116e-05
5.0169009e-06
9.2842916e-07
1.2615712e-05
4.9925464e-06
9.5890084e-07
1.2592569e-05
4.8729045e-06
9.8646097e-07
1.256834e-05
4.683658e-06
1.0335682e-06
1.2514138e-05
4.4489408e-06
1.1039947e-06
1.240538e-05
4.1927149e-06
1.1864804e-06
1.2193916e-05
3.9461128e-06
1.3141213e-06
1.1813278e-05
3.7866436e-06
1.5203383e-06
1.1123907e-05
3.8986231e-06
1.8842203e-06
4.6710124e-06
2.5238774e-06
8.9846437e-06
8.0330737e-08
8.6087477e-06
1.0559279e-07
8.2111154e-06
1.1417203e-07
7.8078296e-06
1.1980909e-07
7.4075015e-06
1.2401419e-07
7.0166689e-06
1.268288e-07
6.6356885e-06
1.2947594e-07
6.2570115e-06
1.3422907e-07
5.866682e-06
1.4488687e-07
5.4388837e-06
1.6788424e-07
4.9258652e-06
2.1485538e-07
4.3076343e-06
3.0706206e-07
3.7767443e-06
4.7714951e-07
3.5938574e-06
7.4747946e-07
4.117618e-06
1.1747368e-06
5.1613585e-06
1.8154071e-06
6.3108384e-06
2.5949485e-06
7.2984609e-06
3.3420368e-06
8.0711586e-06
3.9322122e-06
8.6853558e-06
4.3115802e-06
9.1985943e-06
4.5047895e-06
9.6437925e-06
4.5484484e-06
1.0018444e-05
4.4993021e-06
1.0302525e-05
4.4005947e-06
1.047551e-05
4.2769851e-06
1.0527177e-05
4.1421332e-06
1.0476707e-05
3.997764e-06
1.0394924e-05
3.8697619e-06
1.0522526e-05
3.7726671e-06
3.6480601e-06
9.5891111e-06
-2.8004587e-07
3.3378221e-08
9.8774987e-06
-2.5620252e-07
5.2750807e-08
1.0151267e-05
-2.5485743e-07
5.681689e-08
1.0382767e-05
-2.2516134e-07
5.3046352e-08
1.0564383e-05
-1.8794041e-07
4.4004311e-08
1.0705288e-05
-1.5884477e-07
2.8987497e-08
1.0813121e-05
-1.4417307e-07
3.3207112e-09
1.0890415e-05
-1.483901e-07
-2.4004132e-08
1.0945816e-05
-1.7570889e-07
-6.3429276e-08
1.0986429e-05
-2.32916e-07
-1.1893015e-07
1.1017229e-05
-3.2642263e-07
-1.963888e-07
1.1043375e-05
-4.6396961e-07
-3.0271081e-07
1.1071461e-05
-6.4846837e-07
-4.4400651e-07
1.1161441e-05
-9.2625373e-07
-6.3046936e-07
1.1333111e-05
-1.2284906e-06
-8.5471979e-07
1.1593179e-05
-1.5149904e-06
-1.0984684e-06
1.1897672e-05
-1.7142205e-06
-1.3342037e-06
1.2164923e-05
-1.7688489e-06
-1.5504588e-06
1.2340606e-05
-1.701012e-06
-1.7485244e-06
1.2423907e-05
-1.5786867e-06
-1.926137e-06
1.2454924e-05
-1.4629654e-06
-2.0776776e-06
1.2477157e-05
-1.3749701e-06
-2.1957624e-06
1.2519512e-05
-1.312808e-06
-2.2738134e-06
1.2592807e-05
-1.2661783e-06
-2.306869e-06
1.2697139e-05
-1.225787e-06
-2.293322e-06
1.2825977e-05
-1.1799711e-06
-2.2329481e-06
1.2954664e-05
-1.09994e-06
-2.1215553e-06
1.3007523e-05
-9.1286243e-07
-1.9517098e-06
1.2842652e-05
-4.8692113e-07
-1.7403325e-06
8.6519431e-07
-1.4634301e-06
9.2468893e-06
-2.1464613e-07
3.6949071e-08
9.3564069e-06
-3.257341e-07
6.4836914e-08
9.4872906e-06
-3.514806e-07
7.7459257e-08
9.6533337e-06
-3.5853765e-07
8.1784779e-08
9.8513937e-06
-3.5407904e-07
8.0825739e-08
1.0070237e-05
-3.4669656e-07
7.3849264e-08
1.0302596e-05
-3.4655629e-07
5.9027255e-08
1.0545498e-05
-3.6264538e-07
3.3824902e-08
1.0800341e-05
-4.039852e-07
-5.2303561e-09
1.1066635e-05
-4.829312e-07
-6.644625e-08
1.1346359e-05
-6.1651307e-07
-1.5602055e-07
1.1651397e-05
-8.2367453e-07
-2.8538974e-07
1.1999767e-05
-1.1212027e-06
-4.6621556e-07
1.2393693e-05
-1.5294328e-06
-7.0418895e-07
1.2874516e-05
-1.9888705e-06
-9.9013312e-07
1.3403487e-05
-2.3609799e-06
-1.2719449e-06
1.3883894e-05
-2.512641e-06
-1.4960683e-06
1.4207424e-05
-2.3573683e-06
-1.6777685e-06
1.433834e-05
-2.0036953e-06
-1.8461393e-06
1.4315689e-05
-1.6255222e-06
-2.015252e-06
1.4222257e-05
-1.3467485e-06
-2.1757015e-06
1.4106931e-05
-1.1519565e-06
-2.3147285e-06
1.3993098e-05
-1.0174977e-06
-2.4136862e-06
1.3894421e-05
-9.3357748e-07
-2.4501019e-06
1.3834219e-05
-9.0414561e-07
-2.4060645e-06
1.3872782e-05
-9.4394603e-07
-2.2699036e-06
1.4122101e-05
-1.0342449e-06
-2.0470711e-06
1.4819134e-05
-1.1685949e-06
-1.7437494e-06
1.6503949e-05
-1.3791135e-06
-1.4497219e-06
-1.3733672e-06
-1.4020229e-06
9.3051943e-06
-2.0631737e-07
3.766457e-08
9.2953653e-06
-2.7391381e-07
6.6721024e-08
9.269693e-06
-2.8881049e-07
8.1435155e-08
9.2409914e-06
-2.927839e-07
8.8685592e-08
9.2189971e-06
-2.9200967e-07
9.1759283e-08
9.2066e-06
-2.8845834e-07
9.0522895e-08
9.2032238e-06
-2.8725007e-07
8.4134142e-08
9.207981e-06
-2.9445671e-07
7.1662766e-08
9.2215965e-06
-3.1643673e-07
5.2358109e-08
9.2447459e-06
-3.6400222e-07
2.5366844e-08
9.2832678e-06
-4.5650237e-07
-1.8779364e-08
9.3586263e-06
-6.2484568e-07
-1.0423711e-07
9.4928045e-06
-9.0540136e-07
-2.3295851e-07
9.7132979e-06
-1.3192119e-06
-4.1835214e-07
1.0069873e-05
-1.7733927e-06
-6.4442261e-07
1.0514508e-05
-2.0705234e-06
-8.1810472e-07
1.0936511e-05
-2.0513305e-06
-8.1294052e-07
1.1277972e-05
-1.6767376e-06
-6.4354921e-07
1.1463314e-05
-1.1101349e-06
-4.1000074e-07
1.150889e-05
-5.2752394e-07
-2.8747043e-07
1.147875e-05
-7.9524036e-08
-3.0574476e-07
1.1472912e-05
1.4118512e-07
-3.2512137e-07
1.1501884e-05
2.2403341e-07
-2.8025178e-07
1.1551311e-05
2.0089683e-07
-1.4602165e-07
1.1605035e-05
1.0712068e-07
4.3526963e-08
1.163081e-05
-4.7836917e-08
2.6952955e-07
1.1652045e-05
-2.5241096e-07
5.168536e-07
1.1800998e-05
-5.5150471e-07
7.6048023e-07
1.2295644e-05
-7.8798744e-07
8.0466297e-07
-9.312348e-07
5.1525461e-07
9.1063379e-06
3.6623804e-08
8.8735566e-06
6.4456329e-08
8.6206735e-06
7.8240664e-08
8.3629911e-06
8.4703655e-08
8.107935e-06
8.7056745e-08
7.8610129e-06
8.5288702e-08
7.6243895e-06
7.8845635e-08
7.3968331e-06
6.7325524e-08
7.1746229e-06
5.0657548e-08
6.9487782e-06
2.9724885e-08
6.6994288e-06
7.7017648e-09
6.4095735e-06
-2.7926712e-08
6.0551421e-06
-7.3811873e-08
5.6173068e-06
-1.3385704e-07
5.1955064e-06
-1.7665811e-07
5.0013945e-06
-6.0350458e-08
5.2046194e-06
3.4188963e-07
5.5910709e-06
1.2809413e-06
5.8715705e-06
2.5440575e-06
6.1877256e-06
3.4705084e-06
6.6089053e-06
4.0065785e-06
7.0571991e-06
4.2437352e-06
7.4792323e-06
4.3037146e-06
7.8216168e-06
4.2615893e-06
8.0652317e-06
4.1429898e-06
8.2248124e-06
3.9370758e-06
8.3779947e-06
3.594283e-06
8.5439012e-06
3.1543126e-06
9.0516521e-06
2.4788225e-06
1.5855336e-06
9.5662602e-06
-2.8163762e-07
1.7773238e-08
9.8457531e-06
-2.5642191e-07
2.9754937e-08
1.0119169e-05
-2.514791e-07
3.4982915e-08
1.0353923e-05
-2.1720004e-07
3.5616865e-08
1.053978e-05
-1.7511399e-07
3.3404101e-08
1.0681078e-05
-1.4119343e-07
2.9039756e-08
1.0781514e-05
-1.1970348e-07
2.2755371e-08
1.0851912e-05
-1.0945554e-07
1.5224618e-08
1.0895849e-05
-1.1196613e-07
4.7693316e-09
1.0915192e-05
-1.3103786e-07
-7.0626423e-09
1.0911006e-05
-1.7220635e-07
-1.9830109e-08
1.0883504e-05
-2.4162436e-07
-3.3452492e-08
1.08334e-05
-3.4879795e-07
-4.5071491e-08
1.0827941e-05
-5.7140003e-07
-5.3849635e-08
1.0903629e-05
-8.7754608e-07
-5.3575813e-08
1.1090372e-05
-1.2606658e-06
-2.5866141e-08
1.133083e-05
-1.6164807e-06
4.0554525e-08
1.1541039e-05
-1.8804191e-06
1.1883408e-07
1.1686887e-05
-2.0655134e-06
1.7069157e-07
1.1775754e-05
-2.1998413e-06
1.8477317e-07
1.1831664e-05
-2.3072988e-06
1.7387057e-07
1.1882141e-05
-2.4002405e-06
1.5430722e-07
1.194257e-05
-2.4758644e-06
1.4217388e-07
1.2010405e-05
-2.5235505e-06
1.4982925e-07
1.2079411e-05
-2.5385467e-06
1.7787124e-07
1.2157261e-05
-2.5271732e-06
2.1892597e-07
1.2275854e-05
-2.4962286e-06
2.5955787e-07
1.2468393e-05
-2.3945999e-06
2.5482969e-07
1.2600351e-05
-1.9275033e-06
6.0327802e-08
-6.0956017e-07
-5.1615121e-07
9.219224e-06
-2.143483e-07
1.9402097e-08
9.3169644e-06
-3.2462657e-07
3.530067e-08
9.4468416e-06
-3.4821219e-07
4.4318109e-08
9.6155315e-06
-3.5167712e-07
4.7578791e-08
9.8169285e-06
-3.420893e-07
4.6415447e-08
1.0036649e-05
-3.2781654e-07
4.076836e-08
1.026399e-05
-3.1770475e-07
2.9710216e-08
1.0494057e-05
-3.1743845e-07
1.1769529e-08
1.0724056e-05
-3.3246451e-07
-1.4696412e-08
1.0950872e-05
-3.7144219e-07
-5.2819326e-08
1.1175235e-05
-4.4614202e-07
-1.064132e-07
1.1401767e-05
-5.7474616e-07
-1.7878661e-07
1.1648826e-05
-7.9148742e-07
-2.7063753e-07
1.1909777e-05
-1.1610954e-06
-3.7564669e-07
1.2243906e-05
-1.7338763e-06
-4.6836926e-07
1.2598853e-05
-2.3714955e-06
-5.1654594e-07
1.2809109e-05
-2.7555272e-06
-5.6729894e-07
1.2820495e-05
-2.8747955e-06
-6.9427219e-07
1.2671655e-05
-2.8528001e-06
-9.090658e-07
1.2414832e-05
-2.7769518e-06
-1.1800332e-06
1.2102461e-05
-2.7122353e-06
-1.4567767e-06
1.177633e-05
-2.6910334e-06
-1.6957154e-06
1.1453612e-05
-2.6968959e-06
-1.8671534e-06
1.1134586e-05
-2.7007596e-06
-1.950268e-06
1.0826073e-05
-2.6973497e-06
-1.9344342e-06
1.05568e-05
-2.7268566e-06
-1.7963808e-06
1.0479389e-05
-2.8867981e-06
-1.5746941e-06
1.1001191e-05
-3.1795904e-06
-1.4763853e-06
1.2725738e-05
-3.3373909e-06
-1.7603139e-06
-2.8651193e-06
-2.4528454e-06
9.2785309e-06
-2.0592981e-07
1.9672012e-08
9.2577937e-06
-2.7312368e-07
3.5951634e-08
9.2320654e-06
-2.8687923e-07
4.5826847e-08
9.2080715e-06
-2.8921599e-07
5.0214982e-08
9.1937378e-06
-2.8624405e-07
5.0244811e-08
9.1903445e-06
-2.7958878e-07
4.5686184e-08
9.1950142e-06
-2.7365151e-07
3.5409817e-08
9.204393e-06
-2.7291258e-07
1.7757831e-08
9.2154642e-06
-2.8148142e-07
-9.6948029e-09
9.2262167e-06
-3.060708e-07
-5.0754017e-08
9.2330844e-06
-3.6003988e-07
-1.1174422e-07
9.2212471e-06
-4.6629403e-07
-2.0084818e-07
9.1844628e-06
-6.641095e-07
-3.235562e-07
9.1212464e-06
-1.0364089e-06
-4.7984557e-07
9.0960065e-06
-1.7123439e-06
-6.4066065e-07
9.0651322e-06
-2.4465388e-06
-7.1130181e-07
8.7873693e-06
-2.5750888e-06
-7.1310789e-07
8.3759831e-06
-2.3219868e-06
-7.8204406e-07
7.9643686e-06
-1.9169623e-06
-9.3113971e-07
7.5083923e-06
-1.4435712e-06
-1.1616737e-06
7.0089392e-06
-1.1177029e-06
-1.3971616e-06
6.5252579e-06
-9.7270875e-07
-1.5550121e-06
6.1079491e-06
-9.7983617e-07
-1.5738342e-06
5.80422e-06
-1.0916451e-06
-1.444386e-06
5.6495512e-06
-1.2910392e-06
-1.2011792e-06
5.5766749e-06
-1.5837914e-06
-7.956939e-07
5.7272667e-06
-2.0149148e-06
-5.0344602e-07
6.4989618e-06
-2.5612718e-06
-6.2907243e-07
8.037494e-06
-2.8844215e-06
-1.1865164e-06
-2.4548463e-06
-2.535231e-06
9.0804287e-06
1.9213609e-08
8.8368282e-06
3.4929197e-08
8.5838858e-06
4.429985e-08
8.3311098e-06
4.8259687e-08
8.0839856e-06
4.7932981e-08
7.8465548e-06
4.3126904e-08
7.6190029e-06
3.274231e-08
7.3983518e-06
1.5060633e-08
7.1798763e-06
-1.2351537e-08
6.9570526e-06
-5.3524609e-08
6.7202898e-06
-1.1557669e-07
6.4376292e-06
-2.1155993e-07
6.0613388e-06
-3.6162765e-07
5.5003538e-06
-6.0924979e-07
4.6431941e-06
-1.0312991e-06
3.7037017e-06
-1.5640979e-06
3.1735788e-06
-1.6945546e-06
3.1333534e-06
-9.9506074e-07
3.3641001e-06
4.0264755e-07
3.5974451e-06
1.7995802e-06
3.9498209e-06
2.5414986e-06
4.3513658e-06
2.8734915e-06
4.7438021e-06
2.9347447e-06
5.0425492e-06
2.8740884e-06
5.1703471e-06
2.7267828e-06
5.0372011e-06
2.4886868e-06
4.8840809e-06
1.7343974e-06
5.063874e-06
4.1505988e-07
5.6646469e-06
-1.0131851e-06
-2.666798e-06
9.5608246e-06
-2.8175252e-07
7.7184996e-09
9.8330926e-06
-2.5585957e-07
1.3420146e-08
1.010094e-05
-2.4921119e-07
1.6446394e-08
1.0331471e-05
-2.1212725e-07
1.7333896e-08
1.0513774e-05
-1.6546141e-07
1.6699465e-08
1.0652271e-05
-1.2419614e-07
1.4888187e-08
1.0754358e-05
-9.1178075e-08
1.2004119e-08
1.0826796e-05
-6.5154432e-08
8.1033139e-09
1.087348e-05
-4.5160845e-08
3.4116679e-09
1.0899484e-05
-3.0846175e-08
-2.0744457e-09
1.0911434e-05
-2.3263122e-08
-8.4133613e-09
1.0918341e-05
-2.6447618e-08
-1.389439e-08
1.0939585e-05
-5.1722572e-08
-1.4751631e-08
1.105891e-05
-1.6988634e-07
-3.8260143e-09
1.1329193e-05
-3.5097432e-07
2.6129185e-08
1.1674776e-05
-4.6648901e-07
9.3862341e-08
1.1953938e-05
-4.2557872e-07
1.8591463e-07
1.2127398e-05
-3.3780703e-07
2.8236771e-07
1.2234915e-05
-3.1853394e-07
3.8091885e-07
1.2321197e-05
-3.8698945e-07
4.8441736e-07
1.2416454e-05
-5.1868523e-07
5.9566637e-07
1.2528033e-05
-6.8028852e-07
7.2058399e-07
1.2644356e-05
-8.4456588e-07
8.6728671e-07
1.2740677e-05
-9.889613e-07
1.0389156e-06
1.2802589e-05
-1.1124298e-06
1.2249886e-06
1.283263e-05
-1.2062487e-06
1.392757e-06
1.276161e-05
-1.1491544e-06
1.4791016e-06
1.229373e-05
-6.7694007e-07
1.4029482e-06
1.0799131e-05
4.6825908e-07
1.0834853e-06
3.0314563e-06
4.0218373e-07
9.2121725e-06
-2.1409117e-07
8.534567e-09
9.2992476e-06
-3.2391599e-07
1.6281463e-08
9.4194063e-06
-3.4641025e-07
2.1361072e-08
9.578978e-06
-3.4778139e-07
2.3667641e-08
9.770866e-06
-3.344422e-07
2.3518679e-08
9.9803567e-06
-3.1382075e-07
2.0917414e-08
1.0196844e-05
-2.9340864e-07
1.5473449e-08
1.0414059e-05
-2.7718357e-07
6.6087391e-09
1.0629049e-05
-2.6801329e-07
-6.8039715e-09
1.0841627e-05
-2.7046289e-07
-2.5750245e-08
1.1057067e-05
-2.9378236e-07
-5.1316105e-08
1.1292879e-05
-3.5788295e-07
-8.3186477e-08
1.1591673e-05
-5.0554885e-07
-1.1573154e-07
1.2000753e-05
-8.2417899e-07
-1.3077248e-07
1.2608455e-05
-1.3344369e-06
-9.3147012e-08
1.3182834e-05
-1.5472916e-06
-1.0456909e-08
1.3480443e-05
-1.3195729e-06
2.9171006e-08
1.3537153e-05
-1.0913885e-06
2.944664e-09
1.3446807e-05
-1.0432965e-06
-9.3475423e-08
1.3247923e-05
-1.140959e-06
-2.2657681e-07
1.2977975e-05
-1.3082103e-06
-3.9653483e-07
1.2650999e-05
-1.481949e-06
-5.6595146e-07
1.2260438e-05
-1.6430406e-06
-6.7628222e-07
1.1779618e-05
-1.7717632e-06
-6.8393699e-07
1.1221522e-05
-1.9057936e-06
-5.7987636e-07
1.0764959e-05
-2.1132405e-06
-4.3069172e-07
1.0682783e-05
-2.2522064e-06
-3.904938e-07
1.0909461e-05
-1.6967389e-06
-6.8910671e-07
1.113631e-05
-2.5572023e-07
-1.2528534e-06
2.2698794e-06
-1.880802e-06
9.2718249e-06
-2.0587687e-07
8.5896692e-09
9.2404903e-06
-2.73054e-07
1.6420424e-08
9.2045771e-06
-2.8643229e-07
2.1758545e-08
9.1704831e-06
-2.8787569e-07
2.4399869e-08
9.1451136e-06
-2.8331881e-07
2.4487911e-08
9.1291586e-06
-2.7399665e-07
2.1814571e-08
9.1191289e-06
-2.63702e-07
1.5731168e-08
9.1103512e-06
-2.5605966e-07
5.4108613e-09
9.0985287e-06
-2.5433016e-07
-1.1554829e-08
9.0779139e-06
-2.6355616e-07
-3.7044128e-08
9.0420827e-06
-2.9518123e-07
-7.4511569e-08
8.9859249e-06
-3.7447057e-07
-1.2810316e-07
8.9174234e-06
-5.6171223e-07
-1.9890559e-07
8.8893431e-06
-1.004004e-06
-2.7197326e-07
9.0889997e-06
-1.8983644e-06
-2.7588858e-07
9.0697972e-06
-2.1209374e-06
-1.1635992e-07
8.4182305e-06
-1.2832009e-06
-9.5775421e-08
7.5457073e-06
-7.9226966e-07
-2.0725506e-07
6.6456788e-06
-6.450385e-07
-4.2791752e-07
5.8516714e-06
-7.9948394e-07
-7.0674476e-07
5.1004216e-06
-9.4372716e-07
-1.0063069e-06
4.3716175e-06
-1.0824489e-06
-1.219237e-06
3.714239e-06
-1.3180431e-06
-1.2325417e-06
3.1112557e-06
-1.5672416e-06
-1.0364641e-06
2.5445621e-06
-1.8817032e-06
-6.5132427e-07
2.3061562e-06
-2.337034e-06
-3.307987e-07
2.8174581e-06
-2.884937e-06
-3.8408904e-07
3.8876119e-06
-2.3017976e-06
-1.0978115e-06
4.9326511e-06
-3.2876885e-07
-2.1717542e-06
1.5285987e-06
-2.9362784e-06
9.0739285e-06
8.3566076e-09
8.8199461e-06
1.5853633e-08
8.5569701e-06
2.0839565e-08
8.2942421e-06
2.310796e-08
8.0360821e-06
2.2770241e-08
7.7856296e-06
1.9578901e-08
7.5418448e-06
1.2821416e-08
7.2990173e-06
1.8248132e-09
7.0503753e-06
-1.8042935e-08
6.7816387e-06
-4.8346945e-08
6.4675812e-06
-9.6702176e-08
6.0587417e-06
-1.771912e-07
5.4534413e-06
-3.1803476e-07
4.4258269e-06
-5.8551253e-07
2.5651804e-06
-1.065964e-06
3.2382468e-07
-1.4361183e-06
-1.381261e-06
-1.2564967e-06
-2.0904535e-06
-1.0747315e-06
-1.6897501e-06
-6.4181365e-07
-9.0480054e-07
2.2205199e-07
-9.8989147e-08
7.9762559e-07
5.9914791e-07
1.0969942e-06
1.0547295e-06
1.1649491e-06
1.2268584e-06
1.1374304e-06
1.0309047e-06
1.042372e-06
3.0672936e-07
8.7478156e-07
-7.2854262e-07
-1.2252211e-07
-1.2261488e-06
-1.3919074e-06
1.8162608e-08
-2.5934969e-06
-3.3067538e-06
9.5579766e-06
-2.8204988e-07
8.0895785e-10
9.8265784e-06
-2.5630573e-07
1.1963761e-09
1.0091397e-05
-2.4962783e-07
1.3528391e-09
1.0319745e-05
-2.1227589e-07
1.3788026e-09
1.0500378e-05
-1.6511391e-07
1.3121903e-09
1.06374e-05
-1.2316089e-07
1.1681548e-09
1.0737916e-05
-8.9325921e-08
9.5555681e-10
1.0807897e-05
-6.2432113e-08
6.8201543e-10
1.0852284e-05
-4.1297025e-08
4.3150662e-10
1.0876258e-05
-2.6122733e-08
1.7016301e-10
1.0886948e-05
-1.9174774e-08
1.4531519e-10
1.0898036e-05
-2.6017948e-08
1.0719403e-09
1.0941045e-05
-6.2748065e-08
4.9635019e-09
1.113605e-05
-2.1847954e-07
1.948585e-08
1.1504925e-05
-3.9578323e-07
5.305345e-08
1.1864926e-05
-3.5902154e-07
9.3445319e-08
1.2105763e-05
-1.8284391e-07
1.2895738e-07
1.2246595e-05
-2.270273e-08
1.6538489e-07
1.2339615e-05
7.6583987e-08
2.1192813e-07
1.2431146e-05
1.1952346e-07
2.7355237e-07
1.2566017e-05
1.0829552e-07
3.5223606e-07
1.2765481e-05
7.5501084e-08
4.4475825e-07
1.3012091e-05
7.7388531e-08
5.4160482e-07
1.3253004e-05
1.6598553e-07
6.2922252e-07
1.3415621e-05
3.6336464e-07
6.9480331e-07
1.3395902e-05
6.8035035e-07
7.2631368e-07
1.2994283e-05
1.1663556e-06
7.0698909e-07
1.1891455e-05
1.8816923e-06
6.1607482e-07
9.5240319e-06
3.0062812e-06
4.3819446e-07
5.0752281e-06
2.3145634e-07
9.2083015e-06
-2.1411224e-07
1.2617187e-09
9.2899347e-06
-3.2398014e-07
2.3220734e-09
9.404761e-06
-3.4635957e-07
3.2688728e-09
9.5593966e-06
-3.4738801e-07
4.1498855e-09
9.7462612e-06
-3.3343078e-07
4.9801165e-09
9.9500883e-06
-3.1181566e-07
5.7579424e-09
1.0159751e-05
-2.8998276e-07
6.4834206e-09
1.036859e-05
-2.7188268e-07
7.2392835e-09
1.0572908e-05
-2.6033593e-07
7.9366873e-09
1.077292e-05
-2.6065751e-07
8.7948267e-09
1.0976833e-05
-2.8492683e-07
1.0545008e-08
1.1212187e-05
-3.6028005e-07
1.5725225e-08
1.1547225e-05
-5.452496e-07
3.1670794e-08
1.2065393e-05
-9.3990178e-07
7.2279731e-08
1.2817567e-05
-1.3852812e-06
1.4443387e-07
1.333865e-05
-1.0781353e-06
1.881093e-07
1.3673166e-05
-6.8687653e-07
1.9929452e-07
1.3886564e-05
-4.3876433e-07
2.0615496e-07
1.3998692e-05
-3.5073315e-07
2.2286997e-07
1.4017391e-05
-3.6974095e-07
2.4486615e-07
1.3992989e-05
-5.3410311e-07
2.7048643e-07
1.395958e-05
-7.4367625e-07
2.8691105e-07
1.3947035e-05
-8.7215047e-07
2.8890503e-07
1.4005248e-05
-8.4064393e-07
2.7441551e-07
1.415384e-05
-5.9550776e-07
2.5069824e-07
1.4328828e-05
-1.2795614e-07
2.3573206e-07
1.4041242e-05
9.3096788e-07
1.819141e-07
1.2924169e-05
2.3181655e-06
5.2370928e-08
1.0701774e-05
4.2358747e-06
-1.9570184e-07
6.8005144e-06
-5.0786613e-07
9.2680028e-06
-2.0585647e-07
1.2879115e-09
9.2311163e-06
-2.7305826e-07
2.3812776e-09
9.1894518e-06
-2.863419e-07
3.4017672e-09
9.149593e-06
-2.875388e-07
4.4059591e-09
9.117831e-06
-2.8258896e-07
5.4049347e-09
9.0941438e-06
-2.7269508e-07
6.3783943e-09
9.0742358e-06
-2.6163509e-07
7.2893012e-09
9.0526106e-06
-2.5306595e-07
8.2174804e-09
9.0219862e-06
-2.5004608e-07
8.7788495e-09
8.9741182e-06
-2.5882242e-07
8.9895167e-09
8.8994912e-06
-2.9391135e-07
9.1039117e-09
8.7921027e-06
-3.9146717e-07
1.0476532e-08
8.6708676e-06
-6.4505493e-07
2.2126993e-08
8.6789391e-06
-1.2949844e-06
7.509448e-08
9.1955488e-06
-2.3693011e-06
1.9478769e-07
8.8154994e-06
-1.0530096e-06
2.4043226e-07
8.3588453e-06
-5.3026403e-07
2.0528779e-07
7.7358594e-06
-1.7448405e-07
1.5162871e-07
6.924112e-06
-6.6184323e-08
9.9470603e-08
5.9467461e-06
-1.618332e-07
6.3541136e-08
4.8040354e-06
-4.1869572e-07
2.3607039e-08
3.634952e-06
-7.5985782e-07
-2.8476286e-08
2.7166288e-06
-1.113448e-06
-6.4991924e-08
2.3221325e-06
-1.3756041e-06
-1.0010567e-07
2.8099339e-06
-1.5326678e-06
-2.0121495e-07
4.2215882e-06
-1.4177262e-06
-4.5960451e-07
5.8506149e-06
-3.5120115e-07
-7.44945e-07
6.8473128e-06
1.2078897e-06
-9.8047102e-07
6.5982376e-06
3.6170742e-06
-1.2824607e-06
7.6793842e-06
-1.4614589e-06
9.0701852e-06
1.2633021e-09
8.8106523e-06
2.3242626e-09
8.5418404e-06
3.3055557e-09
8.2731438e-06
4.2618041e-09
8.0081274e-06
5.1937554e-09
7.7489403e-06
6.0669675e-09
7.493288e-06
6.8348542e-09
7.2346466e-06
7.3965456e-09
6.9594607e-06
7.0933217e-09
6.6468262e-06
5.4619362e-09
6.2545446e-06
1.6653738e-09
5.6981976e-06
-1.2312808e-08
4.7765446e-06
-4.1431095e-08
2.9879883e-06
-9.1466408e-08
-4.2129666e-07
-8.525196e-09
-2.9420327e-06
4.2120459e-08
-4.6350016e-06
-8.7359472e-08
-5.655414e-06
-2.2339429e-07
-6.0061008e-06
-3.5210425e-07
-5.5270015e-06
-4.1386869e-07
-4.7130814e-06
-4.2868486e-07
-3.9170403e-06
-4.5260253e-07
-3.30687e-06
-5.5355471e-07
-2.8201701e-06
-7.2221919e-07
-2.4058193e-06
-9.0566883e-07
-1.9911793e-06
-9.6409445e-07
-1.211568e-06
-1.2637058e-06
4.4811349e-07
-1.8838442e-06
3.6208958e-06
-2.1931203e-06
-1.7020966e-06
9.5579674e-06
-2.8202458e-07
-6.1168793e-09
9.8265949e-06
-2.5636785e-07
-1.0993123e-08
1.009144e-05
-2.4979416e-07
-1.3604578e-08
1.0319771e-05
-2.1256495e-07
-1.4277388e-08
1.0500293e-05
-1.6557018e-07
-1.3514873e-08
1.0637038e-05
-1.2386028e-07
-1.1578125e-08
1.0737031e-05
-9.0395011e-08
-8.4855047e-09
1.0806199e-05
-6.3946794e-08
-4.351249e-09
1.0850264e-05
-4.3701854e-08
2.9538548e-10
1.0873913e-05
-3.0756848e-08
7.5519694e-09
1.0887066e-05
-2.8444216e-08
1.5798883e-08
1.0910052e-05
-4.5871209e-08
2.4507369e-08
1.0989142e-05
-1.038951e-07
3.0663948e-08
1.1256468e-05
-2.7824902e-07
3.1748385e-08
1.1648518e-05
-3.4877318e-07
1.06925e-08
1.1999432e-05
-2.213993e-07
-3.6043489e-08
1.225882e-05
-3.0233852e-08
-1.0087285e-07
1.2457047e-05
1.4511099e-07
-1.7853326e-07
1.26329e-05
3.051736e-07
-2.6956439e-07
1.2825995e-05
4.5737671e-07
-3.7727233e-07
1.3061209e-05
6.2566452e-07
-5.0888989e-07
1.3329854e-05
8.400643e-07
-6.6413075e-07
1.3587808e-05
1.1285669e-06
-8.4514138e-07
1.3774337e-05
1.4874333e-06
-1.0452469e-06
1.3813578e-05
1.8978793e-06
-1.2434491e-06
1.3591975e-05
2.3476773e-06
-1.4018345e-06
1.2902862e-05
2.8625913e-06
-1.4695959e-06
1.141855e-05
3.4729436e-06
-1.3767107e-06
8.5923611e-06
4.2325343e-06
-9.7178957e-07
5.6412095e-06
-3.1840119e-07
9.2084307e-06
-2.1409359e-07
-6.1337383e-09
9.2902044e-06
-3.2398147e-07
-1.1838682e-08
9.4051622e-06
-3.4641638e-07
-1.5064684e-08
9.5598719e-06
-3.4753488e-07
-1.5584839e-08
9.7466742e-06
-3.337413e-07
-1.3642778e-08
9.9502047e-06
-3.1241914e-07
-9.2014479e-09
1.0159507e-05
-2.9112418e-07
-2.0730086e-09
1.0367178e-05
-2.7387409e-07
9.5205093e-09
1.0569905e-05
-2.6437675e-07
2.5922647e-08
1.0768757e-05
-2.6951342e-07
4.8763924e-08
1.0976059e-05
-3.048492e-07
7.9769133e-08
1.1232598e-05
-4.0528485e-07
1.1885481e-07
1.1641838e-05
-6.4038968e-07
1.5944998e-07
1.2306592e-05
-1.0555402e-06
1.8559371e-07
1.3035573e-05
-1.1102387e-06
1.7698639e-07
1.3580405e-05
-7.2916601e-07
1.5067237e-07
1.3990565e-05
-4.0016094e-07
1.5844036e-07
1.4333385e-05
-1.9406359e-07
2.003193e-07
1.4604867e-05
-9.554619e-09
2.624814e-07
1.4860144e-05
7.8090615e-08
3.6430307e-07
1.5151194e-05
1.170164e-07
4.8295835e-07
1.5485265e-05
2.0796677e-07
5.8007225e-07
1.5775859e-05
5.0701822e-07
6.1632715e-07
1.595766e-05
9.9871718e-07
5.8032861e-07
1.5947452e-05
1.6713341e-06
4.9013206e-07
1.5619525e-05
2.5061992e-06
4.1240566e-07
1.4661601e-05
3.5320307e-06
4.8314355e-07
1.2715427e-05
4.7424087e-06
7.4937571e-07
9.4276331e-06
6.1509208e-06
1.203076e-06
8.109685e-06
1.8730077e-06
9.2681248e-06
-2.058489e-07
-6.1247426e-09
9.2314173e-06
-2.7305717e-07
-1.1839332e-08
9.1899329e-06
-2.8636245e-07
-1.5171375e-08
9.1501779e-06
-2.8760483e-07
-1.577267e-08
9.118297e-06
-2.827501e-07
-1.3708599e-08
9.0940709e-06
-2.7304928e-07
-8.7683573e-09
9.0734836e-06
-2.6233521e-07
-9.1488845e-10
9.0487751e-06
-2.5449793e-07
1.3547603e-08
9.0124824e-06
-2.5353272e-07
3.4226312e-08
8.9548472e-06
-2.6750841e-07
6.4620418e-08
8.8657921e-06
-3.1565994e-07
1.0897606e-07
8.7461716e-06
-4.4700347e-07
1.718425e-07
8.6747643e-06
-7.9859533e-07
2.5180829e-07
9.0340636e-06
-1.6552472e-06
3.152129e-07
9.4432921e-06
-1.6549657e-06
3.2712478e-07
9.2864587e-06
-6.0163283e-07
2.6836364e-07
9.0346441e-06
-2.3839647e-07
2.953018e-07
8.6194806e-06
8.8895203e-09
3.6364398e-07
8.1269972e-06
7.6179968e-08
5.0535833e-07
7.5831432e-06
-5.0951725e-08
7.3538323e-07
6.9880764e-06
-2.4716127e-07
9.8181571e-07
6.6082582e-06
-5.4656468e-07
1.1039842e-06
6.7568224e-06
-7.2933734e-07
1.0187151e-06
7.6101256e-06
-7.0434893e-07
7.4318902e-07
8.9375287e-06
-3.0377162e-07
4.3969823e-07
1.0222057e-05
4.4491483e-07
3.1655888e-07
1.0532804e-05
1.9038412e-06
5.7983286e-07
9.4919021e-06
3.5846965e-06
1.2366459e-06
6.8555889e-06
5.5163568e-06
2.0227307e-06
8.4197239e-06
2.8039236e-06
9.0702939e-06
-5.9312029e-09
8.8109198e-06
-1.136277e-08
8.5422563e-06
-1.4397405e-08
8.2735911e-06
-1.4681837e-08
8.0082932e-06
-1.2262324e-08
7.7482667e-06
-6.9598389e-09
7.4912514e-06
1.5110797e-09
7.2267769e-06
1.7369113e-08
6.9399722e-06
4.0361334e-08
6.6022459e-06
7.5675509e-08
6.1570037e-06
1.3124269e-07
5.4764917e-06
2.2118555e-07
4.2610854e-06
3.7527149e-07
1.8462727e-06
6.6598604e-07
-1.0754128e-06
1.229688e-06
-3.0546793e-06
1.4138537e-06
-4.417637e-06
1.0339006e-06
-5.2470744e-06
6.1136946e-07
-5.3930349e-06
-1.3563293e-07
-4.969293e-06
-8.9689983e-07
-4.2309381e-06
-1.4225092e-06
-3.5156625e-06
-1.7218962e-06
-2.9106378e-06
-1.8943794e-06
-2.3269239e-06
-2.015251e-06
-1.4434381e-06
-2.0961413e-06
-2.7840317e-07
-1.6924223e-06
8.3982022e-07
-4.8255477e-07
1.5572434e-06
9.6025763e-07
2.5072356e-06
2.3204523e-06
2.9489279e-06
9.560887e-06
-2.8159399e-07
-1.6393115e-08
9.8334049e-06
-2.5583858e-07
-2.7603234e-08
1.0101639e-05
-2.4934871e-07
-3.2399504e-08
1.0332683e-05
-2.1245158e-07
-3.2762102e-08
1.0515644e-05
-1.6601792e-07
-3.0336365e-08
1.0654984e-05
-1.2503399e-07
-2.5751221e-08
1.0758195e-05
-9.2375559e-08
-1.917681e-08
1.0832067e-05
-6.7049633e-08
-1.1025896e-08
1.0879631e-05
-4.821822e-08
1.1070223e-09
1.0909336e-05
-3.5084892e-08
1.3126777e-08
1.0927284e-05
-2.9990774e-08
2.8102292e-08
1.0946382e-05
-3.8418885e-08
4.4213707e-08
1.0993735e-05
-7.4165622e-08
5.8096295e-08
1.1166234e-05
-2.0632058e-07
6.6576098e-08
1.1472558e-05
-3.5195543e-07
5.7517174e-08
1.1804e-05
-3.8292563e-07
1.6374883e-08
1.20512e-05
-2.8587485e-07
-6.1590858e-08
1.2217168e-05
-1.873405e-07
-1.5680254e-07
1.2337924e-05
-1.6881919e-07
-2.2116289e-07
1.2443459e-05
-2.1592951e-07
-2.6631e-07
1.2551792e-05
-3.0762186e-07
-3.0854188e-07
1.2672562e-05
-4.2161549e-07
-3.6161663e-07
1.2797085e-05
-5.3391446e-07
-4.3367393e-07
1.2911446e-05
-6.3259543e-07
-5.2492939e-07
1.3004877e-05
-7.0517634e-07
-6.2965068e-07
1.3037235e-05
-6.9079805e-07
-7.4018183e-07
1.287136e-05