/*--------------------------------*- C++ -*----------------------------------*\
| =========                 |                                                 |
| \\      /  F ield         | OpenFOAM: The Open Source CFD Toolbox           |
|  \\    /   O peration     | Version:  v2012                                 |
|   \\  /    A nd           | Website:  www.openfoam.com                      |
|    \\/     M anipulation  |                                                 |
\*---------------------------------------------------------------------------*/
FoamFile
{
    version     2.0;
    format      ascii;
    class       volScalarField;
    location    "290/topAir";
    object      T;
}
// * * * * * * * * * * * * * * * * * * * * * * * * * * * * * * * * * * * * * //

dimensions      [0 0 0 1 0 0 0];


internalField   nonuniform List<scalar> 
1200
(
321.70467
341.81854
360.0238
376.81716
392.61996
407.69791
422.17942
436.02124
448.87172
460.70872
471.44433
480.9136
488.76565
490.51964
490.31753
488.04075
484.01164
478.96462
473.71476
468.87136
464.76503
461.52382
459.16642
457.6739
457.02917
457.24435
458.40258
460.74815
464.84002
471.38285
300.46807
301.35231
302.56461
304.05235
305.77808
307.71373
309.83317
312.16838
315.38382
319.69862
325.76604
334.20719
345.32149
357.87172
370.53692
381.89165
391.16446
398.24919
403.31367
406.56885
408.32836
409.04731
409.21717
409.28764
409.65304
410.69739
412.89718
417.01625
424.46426
436.72301
300.01041
300.03984
300.09451
300.17978
300.30027
300.45999
300.66218
300.91081
301.22495
301.62723
302.17591
303.71301
308.0443
316.19446
327.56722
340.73683
354.28301
366.70747
377.3824
386.02907
392.6204
397.36533
400.63766
402.87662
404.51524
405.95889
407.62109
410.03706
414.16164
421.4708
300.00025
300.00122
300.00356
300.00815
300.01611
300.02877
300.04774
300.07495
300.1132
300.16681
300.24551
300.40624
300.91271
303.79843
312.01866
324.0062
336.82317
349.03657
360.1825
369.99778
378.28722
384.99008
390.221
394.2236
397.29645
399.74503
401.87367
404.04192
406.83926
411.26437
321.70014
341.59728
359.37977
375.5461
390.48761
404.417
417.40967
429.4281
440.33091
449.86134
457.67605
463.37051
466.48046
462.11533
455.51408
447.49289
439.34125
432.37232
427.17648
423.63536
421.31624
419.84942
419.03244
418.81578
419.23171
420.35868
422.37418
425.74304
431.54545
440.36626
300.46746
301.33514
302.50141
303.90401
305.49536
307.23587
309.08614
311.00054
312.92714
314.79578
316.5223
317.99924
319.10956
319.66146
319.70751
319.57782
319.79599
320.77909
322.48194
324.63586
327.02719
329.61097
332.41312
335.49671
338.93564
342.79156
347.09841
351.8254
357.02197
366.23538
300.01037
300.03902
300.09085
300.16958
300.27781
300.41721
300.58833
300.7903
301.02076
301.27482
301.54455
301.83596
302.16544
302.50713
303.16943
304.79804
308.08026
313.41664
319.8823
326.41281
332.31548
338.03498
343.66497
349.23685
354.73749
360.20702
366.05894
372.49992
379.5993
387.63289
300.00025
300.00118
300.00337
300.00752
300.01445
300.02511
300.0405
300.0617
300.08983
300.12617
300.17271
300.23733
300.36627
300.90395
303.06552
308.72125
318.33753
330.05624
341.99682
353.22779
363.08111
370.89255
377.09219
382.23538
386.65868
390.51191
393.70195
396.52372
399.34756
402.50163
321.69778
341.63227
359.46693
375.69828
390.7249
404.76905
417.93419
430.26647
441.73774
452.2369
461.55903
469.39382
475.15875
472.53954
466.63957
457.5068
446.7079
436.16862
426.92004
419.31647
413.35291
408.90325
405.86724
404.20012
403.85553
404.73929
406.75788
409.99942
415.45734
427.24488
300.46749
301.33805
302.50957
303.91889
305.51878
307.2715
309.14269
311.09745
313.09537
315.08237
316.98415
318.69503
320.05292
320.72772
320.52206
319.74861
319.30629
319.62006
320.70724
322.48124
324.83371
327.73879
331.2748
335.53394
340.54001
346.24599
352.65283
359.63909
367.22045
377.05936
300.01037
300.03915
300.09125
300.17035
300.27892
300.41855
300.58982
300.79224
301.02386
301.28046
301.55381
301.82926
302.0819
302.27367
302.47051
303.66466
306.95593
311.15242
315.59935
320.26811
325.13855
330.50101
336.77339
344.03461
351.9758
360.02939
367.94619
375.51985
382.63458
390.77637
300.00025
300.00118
300.00339
300.00755
300.01449
300.0251
300.04033
300.06117
300.08862
300.12359
300.16696
300.21958
300.28474
300.3991
301.00272
305.45096
315.61365
323.93589
331.69727
341.90285
352.16871
360.96006
368.11595
374.01269
379.03056
383.41908
387.28345
390.74568
395.42775
402.62431
321.69646
341.64239
359.50787
375.79429
390.91454
405.11884
418.55655
431.32499
443.48456
455.06845
466.06396
476.36972
485.52018
486.13072
484.3629
481.57577
479.90027
479.68501
479.95821
479.79131
478.69035
476.59769
473.73062
470.47454
467.17935
464.26971
462.97897
465.90485
474.83541
484.80372
300.46751
301.3391
302.51409
303.93053
305.54326
307.31838
309.22819
311.24823
313.35385
315.51485
317.68501
319.77899
321.6209
322.78017
323.0515
323.33681
324.27708
325.60787
327.11897
328.78834
330.74636
333.2016
336.3889
340.48949
345.58964
351.79464
359.14248
366.74618
378.37778
407.27345
300.01037
300.0392
300.09151
300.17109
300.28064
300.42208
300.59657
300.80457
301.04565
301.31783
301.61587
301.92691
302.22082
302.45262
302.94157
306.17872
310.9054
314.56438
317.58508
320.97714
325.5729
331.86308
340.03916
349.53728
359.44116
369.30496
379.47056
387.0817
393.11004
406.89438
300.00025
300.00119
300.0034
300.00759
300.01461
300.02536
300.04087
300.06223
300.09057
300.12711
300.1731
300.23009
300.30527
300.50888
302.46097
317.13053
338.26977
343.7809
343.1189
343.53221
350.45935
358.71712
364.93047
370.48903
375.72086
381.1481
389.6196
399.47181
408.54814
418.51252
321.69097
341.63582
359.5049
375.79891
390.93146
405.15517
418.62228
431.43363
443.65641
455.32288
466.40647
476.76517
485.77843
484.26691
480.78992
478.55034
479.28169
482.97891
487.45473
492.09069
496.60595
500.74007
504.2674
507.02803
508.96514
510.19938
511.21613
513.0279
517.06862
524.99308
300.4674
301.33923
302.51532
303.93412
305.55084
307.33223
309.25162
311.28582
313.41199
315.60084
317.80191
319.9113
321.70305
322.66912
322.96484
324.02487
325.59017
327.4293
330.16132
333.36497
336.43992
339.35316
342.76407
347.58718
354.40961
363.58679
376.04327
393.03322
417.28516
451.676
300.01037
300.03921
300.0916
300.17139
300.28137
300.42355
300.59928
300.80924
301.05333
301.32985
301.63318
301.94744
302.2339
302.48292
303.95713
308.98241
312.50767
314.6698
316.53326
319.19152
323.7247
331.02038
341.25309
353.04812
364.14185
372.41272
377.35087
385.07366
400.92723
428.81865
300.00025
300.00119
300.0034
300.00762
300.01467
300.0255
300.04116
300.06279
300.0916
300.12896
300.1764
300.23644
300.32907
300.79821
307.23759
343.83368
351.77536
354.8178
357.05116
359.23436
362.17423
366.65192
371.67144
376.94011
382.3662
388.01078
393.93409
399.4376
410.07903
427.3861
321.6827
341.61926
359.47952
375.76354
390.88414
405.09295
418.54065
431.32649
443.51232
455.11273
466.06596
476.1415
484.5661
482.33375
479.66856
479.24251
481.73956
485.5905
489.99737
494.64905
499.26756
503.58755
507.3709
510.44693
512.76538
514.49209
516.14132
518.65167
523.38578
532.32446
300.46722
301.3387
302.51425
303.9323
305.54796
307.32785
309.24496
311.27544
313.3946
315.56842
317.73464
319.76147
321.3794
322.18044
323.07313
324.52198
326.33323
329.85418
335.08912
341.59437
349.32088
358.41132
369.09911
381.42456
395.13344
409.84682
425.50647
442.59742
461.99395
486.53855
300.01037
300.0392
300.09156
300.17131
300.28123
300.42331
300.59887
300.80856
301.05206
301.32713
301.62637
301.92888
302.19223
302.60102
305.93825
309.4203
311.6872
313.12033
314.77125
317.17396
321.13195
327.54625
336.47586
347.0377
358.18893
370.66693
385.35327
403.30606
426.20316
457.20562
300.00025
300.00119
300.0034
300.00761
300.01466
300.02549
300.04114
300.06276
300.0916
300.12902
300.17675
300.23961
300.38254
301.75111
320.15004
346.45116
351.70543
353.9533
355.79513
358.35996
362.10344
366.70426
371.45705
375.97638
380.37562
384.57803
389.62545
402.41127
422.19016
446.39146
321.67474
341.59921
359.44237
375.70412
390.79604
404.96756
418.36774
431.09146
443.19502
454.70602
465.58887
475.69531
484.47354
484.55294
482.8193
481.17524
481.14084
482.43971
483.96902
484.93828
484.8805
483.6472
481.4152
478.52866
475.45342
473.06358
472.96127
476.8452
483.11643
493.22381
300.46704
301.33771
302.51132
303.92586
305.53606
307.30784
309.21323
311.22712
313.32358
315.46941
317.61101
319.64585
321.36874
322.36732
322.81283
323.54869
324.77625
326.26747
327.91454
329.78985
332.06495
334.97038
338.70083
343.32224
348.8101
355.21231
362.49061
370.93315
389.84791
422.11011
300.01036
300.03916
300.0914
300.17088
300.28026
300.42144
300.59556
300.80301
301.04317
301.31365
301.608
301.91005
302.18482
302.44702
303.73473
307.30481
310.77903
313.40455
316.02522
319.20285
323.45862
329.28683
336.93123
346.16921
356.74477
368.6872
379.95351
388.96468
399.18449
419.76103
300.00025
300.00119
300.00339
300.00759
300.01459
300.02532
300.0408
300.06212
300.0904
300.12686
300.17279
300.23061
300.3244
300.84556
306.49794
322.41571
339.87639
341.22203
340.35494
345.51124
353.09531
360.69827
367.5034
373.23343
379.26583
387.60661
396.58604
405.00714
413.98249
424.63342
321.66679
341.57087
359.3747
375.57279
390.5625
404.5658
417.68723
429.97209
441.39442
451.83809
461.0935
468.83258
474.4311
471.57045
465.49572
456.64636
446.63708
436.87369
428.15266
420.79547
414.78781
410.03186
406.52565
404.36169
403.62149
404.29272
406.30215
409.7316
415.66477
427.29322
300.46683
301.33608
302.50567
303.91239
305.50889
307.25731
309.12316
311.07126
313.06054
315.03603
316.92147
318.60357
319.90661
320.49503
320.27843
319.72708
319.56318
320.00782
321.12152
322.8681
325.17892
328.0822
331.71585
336.22605
341.67921
348.05161
355.2627
363.15673
372.41693
384.75683
300.01036
300.03909
300.09111
300.17005
300.27839
300.41767
300.58845
300.79019
301.02087
301.2761
301.54713
301.81815
302.06156
302.25225
302.6604
304.35941
307.70745
311.47486
315.59047
320.00148
324.62773
329.83006
336.11745
343.71761
352.49611
361.90791
371.08324
379.37093
387.92438
400.03766
300.00025
300.00118
300.00338
300.00754
300.01446
300.02504
300.04023
300.06101
300.08836
300.12321
300.16642
300.21908
300.28876
300.48306
301.98656
308.06697
317.88637
323.93933
332.072
342.91566
353.57991
362.45445
369.63555
375.58829
380.73955
385.2749
389.20085
392.69116
398.33215
411.32393
321.66197
341.52272
359.26916
375.39738
390.29789
404.18334
417.13038
429.10491
439.96949
449.47395
457.27748
462.97161
466.06504
461.61813
454.77873
446.41475
438.02387
431.00602
425.92359
422.58412
420.47005
419.15144
418.39412
418.14458
418.45716
419.45019
421.32681
424.51581
430.09049
439.45612
300.46664
301.33275
302.49672
303.89625
305.48366
307.21931
309.06382
310.97166
312.89147
314.75419
316.47403
317.94187
319.03328
319.5422
319.50698
319.29828
319.52529
320.59809
322.42547
324.70623
327.21758
329.92982
332.8886
336.18671
339.92521
344.18084
348.97171
354.25308
360.19027
368.77586
300.01035
300.03895
300.09067
300.16922
300.27717
300.41614
300.58667
300.78785
301.01732
301.27017
301.53838
301.82566
302.1456
302.47035
303.07477
304.64267
308.02661
313.554
320.21556
326.92518
332.97485
338.94839
344.84613
350.6419
356.28403
361.99403
368.19021
374.83959
381.95597
389.85775
300.00024
300.00118
300.00336
300.0075
300.01442
300.02504
300.04037
300.06147
300.08945
300.12557
300.17166
300.23455
300.35266
300.80525
302.67073
307.77026
316.92027
328.61841
340.93412
352.65549
362.92492
370.91669
377.3154
382.64281
387.29212
391.24863
394.48604
397.32748
400.13583
403.23728
321.66297
341.73679
359.90201
376.65279
392.40968
407.43934
421.87384
435.67615
448.494
460.30763
471.03137
480.50147
488.36186
490.12732
489.91275
487.58661
483.49606
478.40735
473.15262
468.34548
464.30714
461.14634
458.86132
457.42013
456.80496
457.03804
458.21655
460.58339
464.69861
471.39412
300.46719
301.34966
302.55937
304.0436
305.76481
307.6949
309.80783
312.13041
315.32944
319.6167
325.61789
333.93177
344.8428
357.16734
369.66635
380.9882
390.39118
397.7116
403.03377
406.5192
408.47085
409.35556
409.6798
409.90653
410.43947
411.66316
414.02778
418.21088
425.48742
437.32625
300.01039
300.03977
300.09431
300.17936
300.29951
300.45873
300.66022
300.90778
301.22033
301.6202
302.16273
303.63349
307.71845
315.49033
326.47269
339.37968
352.77346
365.27483
376.19062
385.14986
392.05716
397.08613
400.60164
403.04916
404.87352
406.49107
408.31372
410.84689
414.98017
422.12436
300.00025
300.00121
300.00355
300.00813
300.01606
300.02868
300.04758
300.07465
300.11268
300.16589
300.24347
300.39716
300.85846
303.34809
310.85991
322.40152
335.03063
347.31895
358.72665
368.88465
377.51775
384.52127
389.99975
394.20525
397.44931
400.04758
402.31109
404.59702
407.47539
411.89357
)
;

boundaryField
{
    maxY
    {
        type            zeroGradient;
    }
    minX
    {
        type            fixedValue;
        value           uniform 300;
    }
    maxX
    {
        type            inletOutlet;
        inletValue      uniform 300;
        value           nonuniform List<scalar> 
40
(
471.33989
436.66538
421.43131
411.23535
440.31202
366.17879
387.57207
402.47995
427.16837
376.99524
390.72524
402.60664
484.73038
406.94378
406.96872
419.49201
524.99546
450.73872
428.02549
427.46214
532.29788
485.89556
456.26872
446.09468
493.23425
421.41499
419.48246
424.25165
427.22985
384.86476
400.37298
412.74322
439.39119
368.72
389.79327
403.20888
471.34628
437.23909
422.06834
411.85017
)
;
    }
    minZ
    {
        type            zeroGradient;
    }
    maxZ
    {
        type            zeroGradient;
    }
    topAir_to_rightSolid
    {
        type            compressible::turbulentTemperatureCoupledBaffleMixed;
        refValue        nonuniform List<scalar> 
130
(
728.9255
736.39329
744.1651
751.84852
759.15322
765.85976
771.84486
777.0518
781.45446
784.9714
787.59957
789.34912
790.22633
723.50577
732.21933
741.08269
749.64389
757.62064
764.80945
771.12448
776.5485
781.07875
784.68442
787.37324
789.16077
790.05773
712.60271
724.18737
735.39386
745.70616
754.93093
762.98025
769.87945
775.67431
780.41274
784.16648
786.95355
788.79848
789.71796
696.2876
713.30407
728.29786
741.08859
751.89521
760.95642
768.4994
774.70121
779.69708
783.60656
786.48574
788.38658
789.33632
676.96763
702.92718
722.38251
737.56755
749.68788
759.49506
767.4718
773.9351
779.1004
783.11566
786.05648
787.99006
788.95343
676.80628
702.73977
722.16515
737.31164
749.42808
759.21522
767.16377
773.59787
778.73843
782.74519
785.68643
787.62096
788.58121
695.79772
712.76762
727.68002
740.40404
751.14214
760.13346
767.60185
773.73868
778.68164
782.55133
785.41751
787.31221
788.25594
711.82857
723.31618
734.40708
744.60027
753.70275
761.65086
768.45824
774.17609
778.83476
782.49826
785.2154
787.02393
787.93871
722.57041
731.12048
739.82167
748.22712
756.05844
763.13559
769.3606
774.69658
779.09899
782.58692
785.18298
786.90583
787.7679
727.88633
735.16444
742.75074
750.27033
757.43874
764.03729
769.92951
775.04104
779.29206
782.68015
785.20946
786.88772
787.72354
)
;
        refGradient     uniform 0;
        valueFraction   uniform 0.99967867;
        value           nonuniform List<scalar> 
130
(
728.84518
736.30889
744.07664
751.75628
759.05758
765.7612
771.7439
776.94896
781.35027
784.86645
787.49453
789.24484
790.12386
723.41222
732.12132
740.98068
749.53839
757.51211
764.69835
771.01127
776.43368
780.96283
784.56799
787.25703
789.04585
789.94535
712.51389
724.09185
735.29229
745.59937
754.81974
762.86549
769.76194
775.55483
780.29202
784.04519
786.83241
788.6785
789.60146
696.218
713.22909
728.21801
741.00428
751.80676
760.86414
768.40366
774.60241
779.59574
783.50353
786.38271
788.28584
789.23844
676.90529
702.85794
722.30851
737.49013
749.60789
759.41306
767.38813
773.84999
779.01403
783.02834
785.96879
787.90305
788.86861
676.74484
702.67141
722.09205
737.23516
749.34908
759.13429
767.08128
773.51406
778.65353
782.65954
785.60065
787.53608
788.49886
695.72916
712.6941
727.60202
740.32193
751.05618
760.04389
767.50895
773.64282
778.58342
782.45182
785.31836
787.21452
788.16114
711.74021
723.22134
734.30631
744.49429
753.59232
761.53674
768.34124
774.05701
778.7144
782.37737
785.09473
786.90457
787.82281
722.47672
731.02241
739.71973
748.1218
755.95017
763.0248
769.24774
774.58209
778.9834
782.47081
785.06706
786.79114
787.65595
727.80617
735.08024
742.66257
750.17844
757.34353
763.93922
769.82909
774.93877
779.1885
782.57588
785.10514
786.78418
787.62188
)
;
        Tnbr            T;
        thicknessLayers List<scalar> 0();
        kappaLayers     List<scalar> 0();
        kappaMethod     fluidThermo;
        kappa           none;
        alphaAni        none;
        alpha           none;
        field           T;
    }
    topAir_to_heater
    {
        type            compressible::turbulentTemperatureCoupledBaffleMixed;
        refValue        nonuniform List<scalar> 
40
(
711.05521
713.00441
716.8072
722.23256
702.363
704.6474
709.13521
715.57597
684.0225
686.97021
692.90711
701.67126
654.05925
657.75871
665.74935
678.66494
610.03362
613.37605
622.27327
640.27639
609.85584
613.20155
622.10398
640.12292
653.51204
657.18405
665.15845
678.14462
683.46016
686.32378
692.21065
700.94995
701.861
704.07361
708.43822
714.7743
710.57661
712.4595
716.12446
721.37329
)
;
        refGradient     uniform 0;
        valueFraction   uniform 0.99967867;
        value           nonuniform List<scalar> 
40
(
710.98434
712.93285
716.73369
722.15601
702.2858
704.56735
709.05114
715.48721
683.95454
686.89941
692.83147
701.58934
654.00529
657.703
665.69017
678.60107
609.99321
613.33344
622.22709
640.22465
609.81486
613.15864
622.05807
640.07203
653.45775
657.12801
665.09933
678.08132
683.39207
686.25282
692.13495
700.86822
701.7838
703.9935
708.35402
714.68537
710.50577
712.38799
716.05102
721.29685
)
;
        Tnbr            T;
        thicknessLayers List<scalar> 0();
        kappaLayers     List<scalar> 0();
        kappaMethod     fluidThermo;
        kappa           none;
        alphaAni        none;
        alpha           none;
        field           T;
    }
    topAir_to_leftSolid
    {
        type            compressible::turbulentTemperatureCoupledBaffleMixed;
        refValue        nonuniform List<scalar> 
130
(
832.61884
832.59372
832.54218
832.45956
832.3375
832.17102
831.95667
831.69186
831.39038
831.06322
830.72444
830.39821
830.2118
832.63095
832.60437
832.54092
832.43728
832.29602
832.10983
831.87682
831.59181
831.27305
830.93258
830.59473
830.28699
830.10289
832.62428
832.59624
832.51321
832.37619
832.19948
831.97549
831.70148
831.38481
831.02594
830.65185
830.33523
830.07699
829.89087
832.59022
832.54415
832.44344
832.28302
832.06315
831.7847
831.46673
831.10421
830.68892
830.29855
829.97528
829.72442
829.56614
832.46663
832.40822
832.28705
832.09882
831.84343
831.52875
831.16636
830.76025
830.29963
829.89027
829.54698
829.28125
829.10837
832.26178
832.19188
832.05052
831.8359
831.54867
831.20049
830.80916
830.39578
829.96801
829.58193
829.24898
828.98412
828.81518
832.04896
831.97291
831.82059
831.59307
831.29685
830.94625
830.58414
830.21436
829.86055
829.52882
829.22925
828.99223
828.85247
831.85137
831.78049
831.63537
831.41304
831.14635
830.84756
830.54763
830.22905
829.94024
829.67477
829.46501
829.31325
829.22783
831.67659
831.61542
831.48984
831.29419
831.0642
830.80462
830.55633
830.31469
830.09188
829.88653
829.72068
829.59849
829.52652
831.57653
831.52023
831.40484
831.23114
831.0298
830.81749
830.60911
830.40819
830.22065
830.05088
829.90316
829.78687
829.71655
)
;
        refGradient     uniform 0;
        valueFraction   uniform 0.99967867;
        value           nonuniform List<scalar> 
130
(
832.45467
832.43602
832.39034
832.31315
832.19621
832.03462
831.825
831.56472
831.26746
830.94421
830.60899
830.28591
830.10208
832.46678
832.4466
832.38889
832.29047
832.15405
831.9724
831.74365
831.46259
831.14743
830.81013
830.4749
830.16909
829.98605
832.4601
832.43849
832.36121
832.22945
832.05762
831.83822
831.56852
831.25592
830.90085
830.53026
830.21673
829.9611
829.77688
832.42606
832.38641
832.29147
832.13634
831.9214
831.6476
831.33405
830.97575
830.5645
830.17798
829.85835
829.61087
829.45559
832.3025
832.25052
832.13513
831.9522
831.70175
831.39175
831.0338
830.63194
830.17539
829.76991
829.43029
829.16797
828.99805
832.09772
832.03424
831.89867
831.68935
831.40707
831.06357
830.67668
830.26755
829.84383
829.46161
829.13228
828.87074
828.70456
831.88496
831.81534
831.6688
831.44658
831.15531
830.80937
830.45169
830.08611
829.7363
829.40838
829.1124
828.8787
828.74181
831.68744
831.62297
831.48362
831.26656
831.00478
830.71058
830.41497
830.10043
829.81539
829.55337
829.34664
829.19742
829.11382
831.51271
831.45794
831.3381
831.1477
830.92257
830.66754
830.42349
830.18577
829.96652
829.7643
829.60101
829.48069
829.40973
831.41268
831.36285
831.25333
831.08507
830.88886
830.68145
830.47777
830.28135
830.09799
829.93207
829.78785
829.67463
829.60686
)
;
        Tnbr            T;
        thicknessLayers List<scalar> 0();
        kappaLayers     List<scalar> 0();
        kappaMethod     fluidThermo;
        kappa           none;
        alphaAni        none;
        alpha           none;
        field           T;
    }
}


// ************************************************************************* //
