/*--------------------------------*- C++ -*----------------------------------*\
| =========                 |                                                 |
| \\      /  F ield         | OpenFOAM: The Open Source CFD Toolbox           |
|  \\    /   O peration     | Version:  v2012                                 |
|   \\  /    A nd           | Website:  www.openfoam.com                      |
|    \\/     M anipulation  |                                                 |
\*---------------------------------------------------------------------------*/
FoamFile
{
    version     2.0;
    format      ascii;
    class       surfaceScalarField;
    location    "1";
    object      phi;
}
// * * * * * * * * * * * * * * * * * * * * * * * * * * * * * * * * * * * * * //

dimensions      [0 3 -1 0 0 0 0];
oriented        oriented;


internalField   nonuniform List<scalar> 
187200
(
1.875e-06
1.05711e-24
2.17481e-23
1.875e-06
-2.59626e-23
-1.97409e-24
1.875e-06
-4.29653e-23
-3.29413e-23
1.875e-06
-1.36299e-23
-1.77465e-23
1.875e-06
1.45903e-22
1.67808e-23
1.875e-06
2.54371e-24
1.33986e-22
1.875e-06
-4.42559e-23
5.63826e-24
1.875e-06
-1.30298e-22
-2.98198e-23
1.875e-06
7.30195e-23
-6.58374e-23
1.875e-06
8.33697e-23
-1.10641e-22
1.875e-06
-2.01896e-23
5.06996e-23
1.875e-06
-5.44269e-23
3.86614e-23
1.875e-06
1.19566e-22
7.40025e-23
1.875e-06
-6.37929e-24
-3.20398e-23
1.875e-06
2.02443e-23
-1.16858e-23
1.875e-06
3.39049e-23
9.08186e-23
1.875e-06
-6.05148e-23
-2.94689e-23
1.875e-06
-2.04539e-23
-9.84258e-24
1.875e-06
-1.42151e-23
-2.55344e-23
1.875e-06
1.87562e-23
1.43594e-23
1.875e-06
8.9803e-24
6.03265e-23
1.875e-06
2.74481e-23
-1.16649e-22
1.875e-06
1.63607e-23
-1.43911e-23
1.875e-06
-1.47472e-23
-3.30693e-23
1.875e-06
5.06323e-23
6.86787e-23
1.875e-06
-4.94678e-23
1.46285e-23
1.875e-06
-4.23293e-23
-4.78484e-24
1.875e-06
2.77237e-23
3.73592e-23
1.875e-06
-5.51427e-23
2.58073e-23
1.875e-06
3.06988e-23
3.13564e-23
1.875e-06
-1.06874e-22
-9.11975e-23
1.875e-06
-4.34817e-23
-6.54613e-23
1.875e-06
2.16761e-23
1.62855e-23
1.875e-06
-4.72873e-24
9.03037e-25
1.875e-06
7.522e-23
1.92956e-23
1.875e-06
-2.24438e-24
-4.10646e-23
1.875e-06
-7.65215e-23
-2.96985e-24
1.875e-06
1.364e-23
3.16755e-23
1.875e-06
-2.4101e-23
1.0472e-22
-1.43424e-23
1.06122e-23
1.875e-06
-8.59501e-23
1.03535e-23
1.875e-06
-8.49605e-23
1.58287e-23
1.875e-06
-3.27459e-23
-7.10592e-24
1.875e-06
-2.7594e-23
5.98747e-23
1.875e-06
7.35539e-23
-1.4486e-22
1.875e-06
5.09048e-23
2.67875e-23
1.875e-06
3.71232e-24
4.3279e-23
1.875e-06
4.99553e-24
8.69095e-23
1.875e-06
-3.96548e-23
-7.17809e-23
1.875e-06
2.59246e-23
-5.68108e-23
1.875e-06
3.07149e-23
5.86789e-23
1.875e-06
9.90643e-23
5.18384e-23
1.875e-06
-9.18343e-23
1.06936e-23
1.875e-06
-3.13713e-23
8.35557e-23
1.875e-06
-9.44439e-24
1.17838e-23
1.875e-06
7.09272e-23
-5.32685e-24
1.875e-06
3.01228e-24
2.27301e-24
1.875e-06
1.07957e-23
-5.4036e-25
1.875e-06
1.18224e-22
-1.2955e-23
1.875e-06
-1.29437e-23
-1.71279e-23
1.875e-06
-8.328e-24
3.70348e-23
1.875e-06
-7.53804e-23
5.88385e-23
1.875e-06
-1.07409e-23
5.37695e-24
1.875e-06
-3.64023e-23
-1.75801e-23
1.875e-06
-3.35573e-23
-3.14875e-23
1.875e-06
1.03088e-23
-8.82283e-24
1.875e-06
3.29428e-24
-1.13961e-22
1.875e-06
3.6172e-23
-4.96808e-23
1.875e-06
8.33736e-23
4.17224e-23
1.875e-06
-1.14034e-22
-5.41982e-24
1.875e-06
-1.17294e-22
1.94348e-23
1.875e-06
-9.88767e-24
-2.62723e-23
1.875e-06
-5.71216e-24
1.34678e-23
1.875e-06
-1.30368e-23
-4.96727e-23
1.875e-06
1.06508e-23
-3.77886e-24
1.875e-06
-9.6028e-23
-3.46528e-23
1.875e-06
6.29681e-23
2.01784e-23
1.875e-06
1.04438e-22
-4.20845e-23
1.875e-06
9.58803e-23
6.83492e-23
1.59129e-23
2.34999e-23
1.875e-06
9.99509e-23
6.9981e-23
1.875e-06
8.55058e-23
7.5295e-23
1.875e-06
3.90422e-23
-5.61248e-23
1.875e-06
-1.53281e-23
-9.66407e-23
1.875e-06
-1.71078e-23
-1.4213e-22
1.875e-06
1.86535e-23
-2.34697e-23
1.875e-06
1.57311e-23
3.52453e-23
1.875e-06
6.34192e-23
2.09143e-22
1.875e-06
1.93401e-23
3.17943e-23
1.875e-06
-1.25439e-22
-7.33463e-23
1.875e-06
-1.02649e-22
9.20099e-24
1.875e-06
2.52928e-23
1.6282e-25
1.875e-06
-4.62639e-23
4.61197e-23
1.875e-06
-8.99072e-24
4.7867e-23
1.875e-06
7.18153e-23
3.8542e-23
1.875e-06
5.80461e-23
4.27994e-23
1.875e-06
-3.10481e-23
2.2203e-23
1.875e-06
-5.57992e-23
-3.37604e-24
1.875e-06
5.84707e-23
-1.01046e-22
1.875e-06
7.20746e-23
-6.22121e-23
1.875e-06
-1.8957e-23
8.55076e-23
1.875e-06
-1.36921e-22
2.19229e-23
1.875e-06
5.17647e-23
7.66054e-24
1.875e-06
6.20103e-23
2.02772e-23
1.875e-06
-4.64576e-24
2.89782e-24
1.875e-06
-2.16153e-23
-6.52187e-23
1.875e-06
8.39657e-24
-1.15362e-22
1.875e-06
2.2176e-24
1.36844e-23
1.875e-06
-2.00037e-23
-1.94741e-23
1.875e-06
8.14066e-24
4.8273e-23
1.875e-06
-1.19604e-23
9.00673e-23
1.875e-06
5.52917e-23
3.15424e-23
1.875e-06
3.85826e-23
-5.56158e-23
1.875e-06
-3.26345e-23
-8.95928e-23
1.875e-06
-1.42114e-22
1.23659e-23
1.875e-06
3.78834e-23
1.71354e-23
1.875e-06
8.86803e-23
-1.06849e-22
1.875e-06
-3.53814e-23
-8.18681e-23
1.875e-06
1.93679e-23
1.00888e-23
7.42718e-24
1.17647e-23
1.875e-06
1.2269e-23
5.10243e-23
1.875e-06
-2.35166e-23
4.94151e-23
1.875e-06
-2.34827e-23
-8.59588e-23
1.875e-06
5.88267e-23
-1.53957e-23
1.875e-06
-4.21348e-23
-5.23185e-23
1.875e-06
3.42553e-24
1.69478e-23
1.875e-06
1.81629e-23
1.10456e-23
1.875e-06
1.05308e-24
6.17964e-23
1.875e-06
-4.81674e-23
6.71299e-23
1.875e-06
3.38621e-23
-3.82585e-23
1.875e-06
1.45091e-22
5.87877e-23
1.875e-06
-1.20091e-23
-2.35065e-23
1.875e-06
1.77763e-23
8.44459e-23
1.875e-06
-6.45844e-23
7.49036e-23
1.875e-06
-5.05406e-23
-1.52852e-23
1.875e-06
2.04259e-23
-1.33252e-23
1.875e-06
6.35536e-23
8.04327e-24
1.875e-06
6.39517e-23
4.75219e-23
1.875e-06
-8.53566e-23
-6.88632e-23
1.875e-06
-8.14922e-23
-7.93061e-23
1.875e-06
-5.25356e-24
7.6998e-23
1.875e-06
1.23772e-22
1.03969e-22
1.875e-06
-3.89048e-23
-4.17959e-23
1.875e-06
-7.64037e-23
-2.79377e-23
1.875e-06
-1.55425e-23
-9.06989e-24
1.875e-06
3.27251e-23
-6.0706e-24
1.875e-06
-6.21667e-24
-5.18777e-23
1.875e-06
7.60524e-23
-7.59492e-23
1.875e-06
1.22253e-23
-1.25831e-23
1.875e-06
-2.89224e-23
5.04733e-23
1.875e-06
3.9197e-23
4.19251e-23
1.875e-06
-7.15715e-23
-6.22729e-23
1.875e-06
-3.06792e-23
-6.17355e-23
1.875e-06
3.55435e-23
3.87935e-23
1.875e-06
8.97055e-23
4.15363e-23
1.875e-06
-1.95737e-23
-4.78067e-23
1.875e-06
-5.26165e-23
-9.83257e-23
1.875e-06
-3.41384e-23
-1.31541e-23
1.875e-06
4.1525e-23
-9.97344e-25
-1.75169e-23
3.55162e-23
1.875e-06
5.89019e-23
-1.54785e-24
1.875e-06
1.68092e-23
6.52214e-23
1.875e-06
-8.0771e-24
-5.46949e-23
1.875e-06
-4.17755e-23
-2.13296e-23
1.875e-06
-6.63088e-23
-4.08987e-23
1.875e-06
6.67942e-24
2.99206e-23
1.875e-06
7.39955e-23
1.82015e-23
1.875e-06
-3.43271e-25
3.77183e-23
1.875e-06
-1.06223e-23
-3.45794e-24
1.875e-06
-4.81663e-23
6.06105e-24
1.875e-06
9.41782e-24
1.9563e-23
1.875e-06
7.76814e-23
6.65857e-23
1.875e-06
4.31819e-23
4.04798e-23
1.875e-06
-5.14581e-23
6.69146e-23
1.875e-06
-7.26697e-23
-8.95592e-24
1.875e-06
1.45738e-23
-7.38652e-24
1.875e-06
5.84542e-23
-1.24456e-23
1.875e-06
2.82702e-24
3.85933e-24
1.875e-06
-7.5953e-23
-3.96455e-23
1.875e-06
-5.56538e-23
2.02582e-23
1.875e-06
-8.14973e-25
1.94067e-23
1.875e-06
6.95516e-23
-1.36047e-23
1.875e-06
7.6756e-23
2.22289e-23
1.875e-06
7.82667e-24
6.20825e-25
1.875e-06
-3.39274e-23
6.93637e-24
1.875e-06
1.73669e-23
-1.54162e-23
1.875e-06
2.43883e-23
-1.94919e-23
1.875e-06
-4.42974e-23
-8.37971e-23
1.875e-06
4.18941e-23
-1.15472e-23
1.875e-06
4.75406e-23
1.3682e-24
1.875e-06
-6.89232e-24
-7.81888e-23
1.875e-06
-3.70274e-23
-2.61515e-23
1.875e-06
-4.04482e-23
3.4155e-23
1.875e-06
-2.95138e-24
-1.88498e-23
1.875e-06
-1.4129e-23
-1.5981e-23
1.875e-06
-2.041e-23
8.83335e-24
1.875e-06
-1.01366e-22
-7.29615e-23
1.875e-06
5.08165e-23
2.62709e-23
1.875e-06
5.1923e-23
-1.9979e-23
3.32485e-23
6.18831e-23
1.875e-06
4.08702e-23
-8.12838e-23
1.875e-06
1.01489e-22
5.24387e-24
1.875e-06
-1.88201e-23
-3.02001e-23
1.875e-06
3.63686e-25
8.41593e-24
1.875e-06
9.19492e-23
4.88882e-23
1.875e-06
7.62046e-24
3.54017e-23
1.875e-06
-1.73744e-23
-5.48102e-23
1.875e-06
-4.89369e-23
2.84087e-23
1.875e-06
5.80327e-24
3.24071e-23
1.875e-06
5.17135e-23
6.82139e-23
1.875e-06
1.48408e-23
6.01459e-23
1.875e-06
-6.35642e-23
6.94741e-23
1.875e-06
2.9304e-24
-9.15513e-25
1.875e-06
6.05887e-23
3.42261e-23
1.875e-06
-8.10957e-23
1.66472e-23
1.875e-06
-8.46155e-23
-4.23062e-23
1.875e-06
5.35779e-24
-9.44731e-25
1.875e-06
-1.72052e-23
-7.11468e-24
1.875e-06
-6.40377e-23
-4.50783e-24
1.875e-06
4.63959e-23
6.58963e-23
1.875e-06
-4.43866e-24
1.1217e-23
1.875e-06
-4.00167e-23
-3.74824e-23
1.875e-06
5.49583e-24
-6.28872e-23
1.875e-06
5.81304e-23
1.25763e-24
1.875e-06
-4.57901e-24
1.72965e-23
1.875e-06
7.45379e-23
-4.15627e-23
1.875e-06
2.89505e-23
-8.67774e-23
1.875e-06
-5.59402e-25
-2.10941e-23
1.875e-06
-5.22335e-23
3.6486e-24
1.875e-06
6.30277e-23
-2.167e-23
1.875e-06
4.86945e-23
2.77887e-23
1.875e-06
-7.28192e-23
-1.26654e-23
1.875e-06
-8.95017e-23
-5.13033e-24
1.875e-06
5.15882e-23
-5.3084e-23
1.875e-06
-9.48171e-23
-4.51678e-23
1.875e-06
2.21598e-23
1.0461e-23
1.875e-06
8.89548e-23
-2.45031e-23
1.875e-06
6.94833e-23
8.08362e-23
1.875e-06
-4.15761e-23
-3.63119e-23
2.39088e-23
9.26879e-24
1.875e-06
8.66267e-23
3.00958e-23
1.875e-06
4.13499e-23
6.94286e-24
1.875e-06
5.15691e-24
-1.33351e-23
1.875e-06
-4.60324e-23
1.34327e-23
1.875e-06
-9.80697e-23
2.93825e-23
1.875e-06
-1.45485e-23
1.76312e-23
1.875e-06
2.31478e-23
1.45646e-23
1.875e-06
4.26554e-23
-4.6494e-23
1.875e-06
1.47547e-23
5.37827e-23
1.875e-06
5.15486e-23
1.12456e-22
1.875e-06
6.83231e-24
1.43524e-22
1.875e-06
2.4628e-23
4.81372e-23
1.875e-06
1.04014e-23
-3.75417e-23
1.875e-06
6.78471e-23
-1.61741e-23
1.875e-06
4.42295e-23
7.67571e-23
1.875e-06
4.58572e-24
2.82214e-24
1.875e-06
-1.13488e-22
-2.90369e-23
1.875e-06
-1.46947e-23
-1.12137e-23
1.875e-06
7.76322e-23
6.97708e-23
1.875e-06
-4.33509e-23
3.24345e-23
1.875e-06
-2.04019e-23
1.24873e-23
1.875e-06
-5.50876e-23
-4.0223e-23
1.875e-06
-6.1349e-23
-7.85302e-23
1.875e-06
6.91378e-23
1.19624e-23
1.875e-06
7.77339e-23
4.138e-23
1.875e-06
-5.39378e-23
-8.01026e-23
1.875e-06
-1.57366e-23
-3.46991e-23
1.875e-06
5.51955e-24
3.66904e-23
1.875e-06
-4.40802e-23
-9.74944e-23
1.875e-06
-3.71641e-23
-1.45877e-22
1.875e-06
2.8194e-23
3.64649e-23
1.875e-06
7.89072e-23
4.30969e-23
1.875e-06
2.15965e-23
9.50811e-24
1.875e-06
3.86197e-23
-8.12069e-23
1.875e-06
5.95396e-23
-3.37673e-24
1.875e-06
-6.10461e-23
7.92262e-24
1.875e-06
5.2765e-23
-4.49179e-23
1.875e-06
-4.03505e-23
-5.43443e-23
1.875e-06
3.41921e-24
1.56262e-23
-5.49605e-23
-1.92332e-23
1.875e-06
4.82055e-23
5.31143e-23
1.875e-06
-7.57179e-24
2.94941e-23
1.875e-06
2.72857e-23
9.20559e-24
1.875e-06
3.86441e-23
4.75418e-23
1.875e-06
5.00394e-23
9.11599e-23
1.875e-06
-2.35505e-23
3.65825e-23
1.875e-06
-4.60568e-23
-4.4827e-23
1.875e-06
2.54071e-23
-6.00737e-23
1.875e-06
-6.82838e-23
9.5899e-23
1.875e-06
2.94074e-23
5.84581e-23
1.875e-06
-4.87503e-24
9.37251e-23
1.875e-06
-4.69514e-24
1.03589e-23
1.875e-06
6.75407e-23
6.31986e-23
1.875e-06
3.4952e-23
-3.80637e-23
1.875e-06
3.20591e-23
6.16305e-23
1.875e-06
-3.38965e-23
-1.50823e-25
1.875e-06
4.6375e-23
-4.62325e-24
1.875e-06
1.14992e-23
-5.4618e-23
1.875e-06
-7.58747e-24
-4.93392e-23
1.875e-06
5.55841e-24
1.39537e-22
1.875e-06
-2.14454e-23
2.61391e-23
1.875e-06
2.35502e-23
-6.65769e-24
1.875e-06
2.51843e-23
4.78026e-24
1.875e-06
-8.03251e-23
-5.57693e-23
1.875e-06
1.81276e-23
-1.96735e-23
1.875e-06
-1.7788e-23
-4.44399e-23
1.875e-06
-5.47205e-23
-4.03197e-23
1.875e-06
-5.12812e-23
-3.61374e-23
1.875e-06
3.38225e-23
-5.53009e-23
1.875e-06
3.6229e-24
4.00337e-23
1.875e-06
3.26086e-23
5.26376e-23
1.875e-06
6.3285e-23
-2.68346e-23
1.875e-06
1.19919e-22
-3.11229e-23
1.875e-06
2.6253e-23
-4.87937e-23
1.875e-06
-5.40774e-24
-8.29754e-24
1.875e-06
-5.86476e-23
5.12666e-23
1.875e-06
-6.01051e-23
-1.30444e-22
1.875e-06
-3.05893e-23
-1.39028e-22
1.875e-06
-6.92682e-23
2.1466e-23
-2.23959e-24
4.90804e-23
1.875e-06
-1.6804e-23
9.35611e-24
1.875e-06
2.23438e-23
7.59339e-23
1.875e-06
6.31829e-23
4.89081e-23
1.875e-06
-2.40664e-23
2.08024e-23
1.875e-06
-6.96032e-23
5.91655e-23
1.875e-06
5.94969e-23
8.03474e-23
1.875e-06
8.53726e-23
4.87841e-23
1.875e-06
-2.83775e-23
-4.22915e-23
1.875e-06
5.78508e-23
5.11908e-23
1.875e-06
-2.70643e-23
4.28151e-23
1.875e-06
-1.12177e-23
4.93155e-23
1.875e-06
-2.24803e-23
1.33752e-22
1.875e-06
-1.84864e-23
-4.47968e-23
1.875e-06
3.87924e-24
-3.46826e-23
1.875e-06
3.1699e-23
1.44851e-22
1.875e-06
1.0509e-23
-5.14998e-23
1.875e-06
-2.4702e-23
-3.60101e-23
1.875e-06
-1.28623e-23
-9.79844e-24
1.875e-06
-1.28627e-24
3.05361e-23
1.875e-06
-9.0505e-23
1.19425e-22
1.875e-06
-4.09764e-23
-4.96939e-23
1.875e-06
6.91835e-24
-5.6397e-23
1.875e-06
6.97193e-23
-3.13714e-23
1.875e-06
-1.01661e-23
7.651e-23
1.875e-06
-1.35312e-23
-1.0641e-22
1.875e-06
1.14597e-23
-5.425e-23
1.875e-06
1.3116e-23
-3.06379e-23
1.875e-06
-6.78482e-23
2.35e-24
1.875e-06
1.22385e-23
-1.86037e-23
1.875e-06
3.23971e-23
-3.56612e-24
1.875e-06
7.33571e-23
4.71722e-23
1.875e-06
1.90333e-23
3.89518e-23
1.875e-06
3.7303e-25
3.32423e-23
1.875e-06
-1.14471e-22
-1.696e-22
1.875e-06
-8.10931e-23
7.23604e-24
1.875e-06
1.27498e-22
-3.2488e-23
1.875e-06
9.92212e-23
-5.93557e-23
1.875e-06
-4.22061e-23
-7.74254e-23
1.875e-06
-6.15777e-23
-2.86837e-23
-1.36464e-23
-3.24962e-23
1.875e-06
-7.68075e-23
1.13811e-22
1.875e-06
5.76841e-23
7.34142e-23
1.875e-06
7.82174e-23
4.42205e-23
1.875e-06
5.03404e-23
2.81539e-23
1.875e-06
7.79699e-23
1.94918e-22
1.875e-06
-8.45746e-23
4.97906e-23
1.875e-06
-8.29191e-23
-7.3165e-23
1.875e-06
3.31348e-23
3.45353e-23
1.875e-06
1.49167e-23
2.48445e-23
1.875e-06
3.38319e-23
9.10051e-24
1.875e-06
3.92917e-23
6.94563e-24
1.875e-06
-2.40244e-24
5.73267e-23
1.875e-06
-2.03488e-23
4.53025e-23
1.875e-06
-8.32035e-23
1.8387e-23
1.875e-06
-3.45011e-23
8.04859e-23
1.875e-06
3.57808e-23
-6.17539e-24
1.875e-06
1.02229e-23
-1.31519e-24
1.875e-06
-7.77609e-23
1.84999e-23
1.875e-06
-7.32138e-23
-3.28037e-24
1.875e-06
3.77672e-23
8.94329e-23
1.875e-06
4.16247e-23
2.05519e-23
1.875e-06
1.86388e-25
-7.43379e-23
1.875e-06
-3.04297e-23
-9.79569e-23
1.875e-06
-1.69922e-23
6.67228e-23
1.875e-06
8.74281e-23
-6.88924e-23
1.875e-06
9.06904e-23
-7.08312e-23
1.875e-06
2.81059e-23
-9.46305e-23
1.875e-06
-1.20103e-23
1.23987e-22
1.875e-06
1.6275e-24
4.1332e-23
1.875e-06
3.55742e-23
3.44673e-23
1.875e-06
-8.13533e-23
-1.03733e-23
1.875e-06
-4.70424e-24
2.72864e-24
1.875e-06
2.97993e-23
-1.90839e-23
1.875e-06
-4.5407e-24
-4.76617e-23
1.875e-06
7.02446e-23
-4.02603e-23
1.875e-06
3.28626e-24
1.0312e-23
1.875e-06
-1.12657e-22
-1.22389e-22
1.875e-06
-4.40341e-23
-4.30124e-23
1.875e-06
-1.77585e-23
8.29032e-24
-4.71086e-23
-2.01464e-24
1.875e-06
-4.17488e-23
1.66783e-22
1.875e-06
-2.66036e-23
1.36563e-22
1.875e-06
-8.87831e-24
5.47201e-23
1.875e-06
5.65863e-23
7.85811e-23
1.875e-06
-2.59247e-24
6.7578e-23
1.875e-06
-1.67991e-23
2.69339e-23
1.875e-06
3.32874e-23
7.03022e-23
1.875e-06
2.12249e-23
6.05399e-23
1.875e-06
-4.68811e-23
2.07485e-23
1.875e-06
-3.53152e-23
-2.54462e-23
1.875e-06
-1.08203e-23
-2.90037e-23
1.875e-06
2.1275e-23
2.34514e-23
1.875e-06
-4.1747e-24
4.90985e-23
1.875e-06
-1.55899e-23
8.03963e-23
1.875e-06
5.19406e-23
9.23553e-23
1.875e-06
1.09854e-23
-2.43357e-23
1.875e-06
-9.48466e-23
2.70992e-24
1.875e-06
3.58477e-23
9.66161e-23
1.875e-06
4.9739e-23
4.71352e-23
1.875e-06
-2.46206e-23
2.07296e-24
1.875e-06
-7.10033e-25
2.07953e-23
1.875e-06
1.87494e-23
-1.10869e-22
1.875e-06
-2.23411e-25
-9.38602e-23
1.875e-06
1.05333e-22
4.07619e-23
1.875e-06
-7.47706e-23
-3.86095e-23
1.875e-06
-6.96192e-23
-1.09488e-22
1.875e-06
-8.90135e-24
-4.11556e-23
1.875e-06
3.28624e-23
6.7856e-23
1.875e-06
8.51863e-24
-6.30054e-24
1.875e-06
2.31248e-23
3.44101e-23
1.875e-06
2.5031e-23
1.03718e-22
1.875e-06
-6.43387e-24
2.19634e-23
1.875e-06
-3.32812e-23
-3.99202e-23
1.875e-06
-3.985e-23
-2.68833e-23
1.875e-06
2.86091e-23
-4.64307e-23
1.875e-06
2.60168e-23
-6.99727e-23
1.875e-06
-5.31603e-23
-6.57321e-23
1.875e-06
-6.94979e-23
-2.57376e-23
1.875e-06
4.41698e-23
6.8192e-24
1.21801e-22
2.29509e-23
1.875e-06
1.61508e-22
1.57997e-22
1.875e-06
4.5119e-23
1.65224e-22
1.875e-06
-1.74487e-23
1.31597e-22
1.875e-06
2.59751e-23
8.45722e-23
1.875e-06
7.77518e-23
7.10562e-23
1.875e-06
8.01104e-23
1.28802e-22
1.875e-06
-6.5449e-23
-4.30804e-23
1.875e-06
-4.65417e-23
-1.81305e-23
1.875e-06
3.14464e-23
-3.29787e-23
1.875e-06
-2.36018e-23
6.9817e-23
1.875e-06
-6.66908e-23
-2.84955e-23
1.875e-06
-4.47859e-23
-2.80739e-23
1.875e-06
1.57633e-23
2.49027e-23
1.875e-06
1.20204e-23
2.36299e-23
1.875e-06
3.28583e-23
1.32399e-22
1.875e-06
-3.7288e-23
4.9276e-23
1.875e-06
2.96062e-23
7.32454e-23
1.875e-06
-2.7659e-23
2.4565e-23
1.875e-06
-3.88001e-23
-2.14011e-23
1.875e-06
1.40143e-22
7.68767e-23
1.875e-06
-1.67596e-23
-1.71922e-24
1.875e-06
6.42066e-23
-8.29294e-23
1.875e-06
-9.65012e-23
-1.1506e-22
1.875e-06
-4.16301e-23
-1.48312e-22
1.875e-06
4.60682e-23
8.71247e-23
1.875e-06
-4.17261e-23
7.49587e-24
1.875e-06
-6.7521e-23
-1.79421e-23
1.875e-06
4.08562e-23
9.26885e-25
1.875e-06
2.21499e-23
-4.25878e-23
1.875e-06
1.61548e-23
5.3753e-23
1.875e-06
2.37457e-23
5.55825e-23
1.875e-06
-3.65251e-23
3.88099e-23
1.875e-06
-1.44196e-23
3.61619e-23
1.875e-06
-1.50511e-23
9.85354e-24
1.875e-06
7.41923e-23
-3.38212e-23
1.875e-06
-6.53749e-23
-6.45218e-23
1.875e-06
1.04525e-22
-6.83554e-23
1.875e-06
8.36165e-23
1.9408e-23
1.875e-06
2.03165e-23
-2.5422e-23
-2.79178e-23
-7.76602e-23
1.875e-06
-9.03925e-23
8.2045e-23
1.875e-06
-1.11035e-23
8.49483e-23
1.875e-06
4.30004e-23
1.54985e-22
1.875e-06
3.29724e-23
7.54238e-23
1.875e-06
9.42857e-23
4.07572e-23
1.875e-06
-3.02522e-24
1.0111e-22
1.875e-06
-1.29569e-23
7.49434e-24
1.875e-06
-3.89063e-23
1.43087e-23
1.875e-06
3.90843e-23
-9.98968e-24
1.875e-06
2.14032e-23
-8.30786e-24
1.875e-06
-2.83581e-23
-4.21606e-23
1.875e-06
-1.91484e-24
1.82246e-24
1.875e-06
-7.56297e-23
7.86464e-24
1.875e-06
-1.12745e-23
7.37049e-23
1.875e-06
-1.51002e-23
7.51029e-23
1.875e-06
-2.47829e-23
3.42228e-23
1.875e-06
-2.83034e-23
-1.48732e-23
1.875e-06
3.02827e-23
2.12258e-23
1.875e-06
-1.38381e-23
5.55283e-23
1.875e-06
-1.11681e-22
-9.01382e-23
1.875e-06
9.91069e-23
3.53135e-23
1.875e-06
-3.20852e-23
-5.71299e-23
1.875e-06
3.48074e-23
1.24248e-25
1.875e-06
6.73808e-23
-5.35683e-23
1.875e-06
1.74045e-23
6.69395e-24
1.875e-06
7.85078e-23
2.96903e-23
1.875e-06
6.20862e-23
2.629e-23
1.875e-06
3.48587e-24
-3.77424e-24
1.875e-06
-7.35766e-24
1.95341e-23
1.875e-06
-8.20578e-23
-6.45246e-23
1.875e-06
-6.16659e-23
7.96285e-24
1.875e-06
-2.5539e-23
8.77462e-23
1.875e-06
1.98343e-23
2.94821e-23
1.875e-06
1.24418e-22
1.17269e-23
1.875e-06
1.50614e-24
-4.56446e-23
1.875e-06
2.09261e-23
5.9813e-24
1.875e-06
-4.79222e-23
-8.98724e-23
1.875e-06
-6.59908e-24
-3.15145e-23
1.875e-06
-1.4387e-23
3.50843e-24
-7.43054e-23
-7.56852e-23
1.875e-06
-1.55067e-23
1.83667e-22
1.875e-06
7.39872e-23
1.56018e-22
1.875e-06
2.04594e-23
1.29045e-22
1.875e-06
3.02704e-23
3.56668e-23
1.875e-06
-4.79645e-23
3.82864e-23
1.875e-06
3.14391e-23
1.17151e-22
1.875e-06
-1.57945e-23
5.76575e-23
1.875e-06
3.50338e-23
1.5196e-23
1.875e-06
-2.84186e-24
-3.66183e-23
1.875e-06
-8.64e-23
-2.26406e-24
1.875e-06
2.7693e-23
5.058e-23
1.875e-06
-4.21388e-23
-3.86697e-23
1.875e-06
1.308e-23
3.43911e-23
1.875e-06
2.17989e-23
6.3319e-23
1.875e-06
-4.38115e-23
4.19998e-23
1.875e-06
-3.98396e-23
1.94222e-23
1.875e-06
3.5353e-23
-1.57672e-23
1.875e-06
6.04954e-23
-1.04334e-23
1.875e-06
8.10131e-23
2.96465e-23
1.875e-06
6.72978e-24
-3.28714e-23
1.875e-06
3.85396e-23
1.74797e-23
1.875e-06
2.05298e-23
-1.45961e-23
1.875e-06
-1.67476e-23
2.05999e-23
1.875e-06
-9.59784e-23
-5.61458e-23
1.875e-06
-6.25312e-23
-5.86586e-24
1.875e-06
-3.90638e-23
-4.25108e-24
1.875e-06
4.79093e-23
5.18812e-23
1.875e-06
-3.93647e-23
-3.48657e-23
1.875e-06
4.84207e-23
-1.7232e-23
1.875e-06
1.10166e-23
-1.1568e-23
1.875e-06
3.55486e-24
4.38949e-25
1.875e-06
4.16356e-23
-1.66502e-24
1.875e-06
-4.8254e-23
9.15731e-23
1.875e-06
-2.50784e-23
7.29757e-24
1.875e-06
1.28158e-23
-4.91609e-23
1.875e-06
5.0551e-23
-2.75986e-23
1.875e-06
-6.94947e-25
-3.22986e-23
1.875e-06
-4.37284e-23
-4.53044e-23
1.875e-06
-2.32134e-23
-5.27147e-24
-3.79591e-23
-3.62267e-23
1.875e-06
5.50332e-23
2.92111e-22
1.875e-06
1.89257e-24
1.07777e-22
1.875e-06
1.63594e-25
8.38754e-23
1.875e-06
-2.26649e-23
-8.73134e-24
1.875e-06
3.93796e-23
2.61536e-23
1.875e-06
2.27303e-23
1.07548e-22
1.875e-06
4.32308e-23
9.44422e-23
1.875e-06
1.63213e-23
2.00805e-23
1.875e-06
-5.26063e-23
1.4258e-23
1.875e-06
-1.0866e-22
5.29333e-23
1.875e-06
-6.4325e-23
-1.45287e-24
1.875e-06
-1.55931e-23
-5.76416e-23
1.875e-06
2.37005e-24
-1.64549e-23
1.875e-06
-1.10012e-23
2.43419e-23
1.875e-06
-1.11117e-23
7.11857e-23
1.875e-06
2.98938e-23
4.45266e-23
1.875e-06
8.25681e-24
-5.16903e-23
1.875e-06
-1.73577e-23
-7.15602e-23
1.875e-06
1.68966e-23
-6.48079e-23
1.875e-06
1.13972e-22
8.93021e-23
1.875e-06
-2.7841e-23
-1.00326e-22
1.875e-06
3.19527e-23
6.87718e-23
1.875e-06
-2.99125e-23
3.03116e-23
1.875e-06
-9.16701e-23
-5.84611e-24
1.875e-06
-3.36192e-23
2.36425e-23
1.875e-06
1.30943e-22
3.56957e-23
1.875e-06
6.81181e-23
2.96394e-23
1.875e-06
5.59635e-23
3.79003e-23
1.875e-06
-1.04932e-22
-4.74955e-23
1.875e-06
-1.08177e-22
-4.01063e-23
1.875e-06
3.63499e-24
9.73917e-24
1.875e-06
6.63597e-23
-4.86893e-24
1.875e-06
-3.39281e-23
5.84598e-23
1.875e-06
-5.6966e-24
8.80632e-24
1.875e-06
1.67334e-23
-2.928e-23
1.875e-06
-5.31132e-23
3.44531e-23
1.875e-06
-4.13577e-24
1.00912e-23
1.875e-06
5.21211e-23
-7.38761e-23
1.875e-06
1.63827e-23
-4.8523e-23
6.4115e-23
-1.7533e-23
1.875e-06
2.68793e-23
1.2443e-22
1.875e-06
-4.64951e-23
5.00583e-23
1.875e-06
-1.95008e-23
1.09023e-22
1.875e-06
-8.99473e-24
2.99648e-23
1.875e-06
-8.17877e-24
5.52717e-23
1.875e-06
-2.55368e-24
1.0672e-22
1.875e-06
8.22443e-24
7.87252e-23
1.875e-06
-1.18279e-23
9.07627e-23
1.875e-06
4.68238e-23
1.06369e-23
1.875e-06
5.76062e-23
6.57075e-23
1.875e-06
-4.96124e-23
2.43825e-23
1.875e-06
-1.09685e-23
-9.86633e-24
1.875e-06
2.92713e-23
-1.68105e-23
1.875e-06
-1.80447e-23
-2.26917e-23
1.875e-06
3.6234e-23
1.42914e-23
1.875e-06
-4.56901e-24
3.25427e-23
1.875e-06
-9.65094e-24
-4.81211e-23
1.875e-06
-1.3504e-23
-2.15613e-23
1.875e-06
5.91153e-23
-6.62819e-24
1.875e-06
4.25085e-23
-1.50681e-23
1.875e-06
1.56077e-23
-1.61772e-23
1.875e-06
-1.34776e-22
-2.25648e-23
1.875e-06
-6.86474e-23
2.80254e-23
1.875e-06
8.31469e-23
3.2308e-23
1.875e-06
3.38785e-23
4.09665e-23
1.875e-06
-1.22092e-22
-2.97065e-23
1.875e-06
-2.66979e-23
-3.69952e-23
1.875e-06
-2.92631e-23
-6.30828e-24
1.875e-06
5.35774e-23
1.44591e-23
1.875e-06
1.00698e-22
5.28138e-23
1.875e-06
5.96883e-23
6.64883e-24
1.875e-06
-5.04869e-23
-5.79802e-23
1.875e-06
2.03161e-23
6.76841e-23
1.875e-06
4.16342e-23
-1.91903e-23
1.875e-06
-6.43776e-23
-5.94646e-23
1.875e-06
2.10805e-23
1.05061e-22
1.875e-06
2.25714e-23
-2.01114e-23
1.875e-06
5.402e-23
-4.43002e-23
1.875e-06
4.88391e-24
-5.53039e-23
2.93506e-24
-3.97961e-23
1.875e-06
-5.9645e-23
8.31521e-23
1.875e-06
-5.84912e-23
7.9722e-23
1.875e-06
-2.11764e-23
9.02761e-23
1.875e-06
-1.78826e-23
6.61416e-23
1.875e-06
-4.78485e-23
3.51741e-23
1.875e-06
-8.41086e-25
5.93902e-23
1.875e-06
1.47318e-23
7.42651e-23
1.875e-06
4.55848e-23
1.2638e-22
1.875e-06
-4.85503e-23
8.84293e-23
1.875e-06
6.77701e-23
-2.55224e-23
1.875e-06
-2.32185e-23
5.03972e-23
1.875e-06
-1.93838e-23
-3.21918e-24
1.875e-06
-3.66194e-23
-1.73115e-23
1.875e-06
2.29648e-23
2.00997e-23
1.875e-06
5.69397e-23
-6.08025e-23
1.875e-06
-2.31787e-23
-2.81533e-23
1.875e-06
-5.52977e-23
-3.24235e-23
1.875e-06
4.2283e-23
4.77858e-23
1.875e-06
4.64308e-23
-1.55743e-23
1.875e-06
1.81621e-23
-9.47582e-24
1.875e-06
-3.34367e-23
3.48461e-24
1.875e-06
1.54499e-23
-5.57053e-23
1.875e-06
-5.63133e-23
3.2257e-23
1.875e-06
-5.50414e-23
-2.87767e-23
1.875e-06
3.75072e-23
2.8587e-23
1.875e-06
6.92346e-24
8.31508e-23
1.875e-06
-4.06803e-23
-3.78851e-23
1.875e-06
3.05373e-23
-3.0842e-23
1.875e-06
3.7309e-23
7.03072e-23
1.875e-06
9.23967e-23
1.50865e-23
1.875e-06
6.07006e-24
2.85152e-23
1.875e-06
-2.26922e-23
-1.17189e-23
1.875e-06
-2.07e-23
2.2251e-23
1.875e-06
-6.51782e-23
-1.07217e-22
1.875e-06
-9.80525e-27
-3.66493e-23
1.875e-06
8.56285e-23
-4.7148e-24
1.875e-06
8.86803e-24
1.09653e-23
1.875e-06
-3.22975e-24
-6.07987e-23
1.875e-06
-4.37693e-23
-4.47585e-23
-4.72238e-24
-5.58798e-23
1.875e-06
-6.47625e-23
1.47011e-22
1.875e-06
-6.94559e-23
1.95286e-22
1.875e-06
-2.61703e-23
1.06323e-22
1.875e-06
-1.60494e-23
7.26336e-23
1.875e-06
-1.4444e-23
5.05199e-23
1.875e-06
3.08166e-23
5.78824e-23
1.875e-06
-3.65781e-24
9.79361e-23
1.875e-06
-6.80663e-23
4.56755e-23
1.875e-06
1.26052e-23
9.61916e-23
1.875e-06
3.86248e-23
7.47131e-23
1.875e-06
8.87481e-23
3.89642e-23
1.875e-06
-1.38234e-24
-3.54328e-23
1.875e-06
-5.79505e-23
3.50447e-23
1.875e-06
-9.10778e-23
1.34699e-23
1.875e-06
-1.00038e-22
-1.1227e-22
1.875e-06
9.98792e-23
-2.36063e-23
1.875e-06
4.06967e-23
6.59547e-23
1.875e-06
8.73855e-23
-1.7667e-23
1.875e-06
1.3788e-22
-4.05137e-23
1.875e-06
2.50598e-23
6.82439e-25
1.875e-06
-3.60445e-23
3.50097e-23
1.875e-06
-1.31325e-22
-4.62469e-23
1.875e-06
3.88953e-23
3.44952e-23
1.875e-06
7.79614e-23
-3.58872e-25
1.875e-06
-4.70468e-23
6.86085e-23
1.875e-06
-2.80975e-23
3.7377e-23
1.875e-06
1.36384e-24
-4.90635e-23
1.875e-06
-1.34854e-23
-6.78075e-23
1.875e-06
-3.74639e-23
1.14932e-22
1.875e-06
-7.1686e-23
1.83932e-24
1.875e-06
2.91695e-24
-6.95361e-23
1.875e-06
-4.57633e-23
-1.36934e-23
1.875e-06
-3.36447e-23
2.15054e-23
1.875e-06
-2.23162e-24
-2.71157e-23
1.875e-06
6.57134e-23
-5.73408e-23
1.875e-06
-1.67507e-23
-1.53865e-23
1.875e-06
-3.06316e-23
-2.05348e-23
1.875e-06
-2.81435e-24
-9.28155e-23
1.875e-06
3.34143e-23
-8.45998e-23
3.6344e-23
-6.64599e-23
1.875e-06
-2.06383e-23
2.20856e-22
1.875e-06
1.80802e-24
2.03823e-22
1.875e-06
-2.57427e-23
1.06961e-22
1.875e-06
-2.52455e-23
7.71536e-23
1.875e-06
-3.15083e-23
5.32253e-23
1.875e-06
-3.08899e-24
1.36264e-23
1.875e-06
-8.41816e-24
1.09689e-22
1.875e-06
5.53283e-23
3.00792e-23
1.875e-06
-3.67719e-23
6.12426e-23
1.875e-06
-2.27054e-23
1.19613e-22
1.875e-06
6.98564e-23
4.72682e-24
1.875e-06
3.42853e-24
-8.30996e-23
1.875e-06
3.7639e-24
8.09281e-23
1.875e-06
4.89823e-23
6.56007e-23
1.875e-06
-2.10701e-24
-3.61819e-23
1.875e-06
-6.00762e-23
-1.54944e-23
1.875e-06
3.48454e-23
1.03425e-22
1.875e-06
-6.93574e-23
-1.58122e-22
1.875e-06
-6.09951e-24
-1.37497e-22
1.875e-06
3.22036e-23
-2.57664e-23
1.875e-06
-2.45852e-23
1.8991e-23
1.875e-06
4.47081e-23
7.99635e-23
1.875e-06
5.98293e-23
6.94021e-23
1.875e-06
-2.2457e-23
5.34873e-23
1.875e-06
-7.45586e-23
3.3883e-23
1.875e-06
-5.57436e-24
-6.16199e-23
1.875e-06
4.65394e-23
-8.55884e-24
1.875e-06
4.36618e-23
3.42226e-23
1.875e-06
-6.20565e-23
4.11226e-23
1.875e-06
-5.57788e-23
5.98316e-23
1.875e-06
-9.05966e-23
-7.39549e-23
1.875e-06
2.2751e-23
-2.7675e-24
1.875e-06
-1.28738e-23
-5.43164e-23
1.875e-06
-7.22404e-24
-5.40301e-24
1.875e-06
5.67594e-23
3.11218e-23
1.875e-06
-1.33947e-23
-2.83779e-24
1.875e-06
4.36581e-23
-1.5435e-24
1.875e-06
-2.32688e-23
-7.93837e-23
1.875e-06
1.31024e-23
-1.26235e-22
1.51399e-23
-8.2304e-23
1.875e-06
-6.70543e-24
2.33358e-22
1.875e-06
-1.29485e-23
1.33281e-22
1.875e-06
-4.84287e-23
7.7503e-23
1.875e-06
-3.81007e-23
6.17521e-23
1.875e-06
-1.05635e-22
3.37202e-23
1.875e-06
-4.81218e-24
2.08606e-23
1.875e-06
-6.47762e-24
2.67373e-23
1.875e-06
-8.0512e-23
6.48698e-23
1.875e-06
1.22424e-23
3.36626e-23
1.875e-06
-8.1134e-24
1.31556e-22
1.875e-06
-2.18904e-22
-5.75274e-23
1.875e-06
4.2108e-22
2.94094e-23
1.875e-06
4.25608e-23
5.5657e-23
1.875e-06
-1.40527e-23
-2.35225e-24
1.875e-06
-7.80847e-24
6.62944e-23
1.875e-06
-2.66426e-23
-5.17003e-25
1.875e-06
-2.42317e-23
-3.2997e-23
1.875e-06
-8.38174e-23
-1.10236e-22
1.875e-06
-1.87561e-24
-6.02392e-23
1.875e-06
-2.65965e-23
-4.41275e-23
1.875e-06
4.80174e-23
1.96572e-23
1.875e-06
8.9183e-23
1.03023e-22
1.875e-06
-1.85479e-23
1.04951e-22
1.875e-06
-3.99669e-23
-7.84806e-23
1.875e-06
8.12939e-23
7.41216e-23
1.875e-06
-2.25008e-23
-5.23722e-24
1.875e-06
-2.78559e-23
2.08911e-25
1.875e-06
-1.2206e-24
6.78909e-23
1.875e-06
-1.92195e-22
-1.54161e-23
1.875e-06
2.33627e-22
-3.34791e-23
1.875e-06
-4.32435e-23
-1.27559e-23
1.875e-06
1.82512e-23
3.23131e-23
1.875e-06
1.71254e-22
-3.18149e-23
1.875e-06
-1.12067e-22
6.08468e-24
1.875e-06
-1.42794e-22
-1.91893e-23
1.875e-06
5.42021e-23
1.10619e-23
1.875e-06
-4.11937e-23
-9.97902e-23
1.875e-06
3.21183e-23
-6.63256e-23
1.875e-06
2.30556e-23
-9.85895e-23
8.89842e-24
-4.8342e-23
1.875e-06
2.99102e-23
2.10531e-22
1.875e-06
2.30768e-25
1.2269e-22
1.875e-06
2.41441e-23
9.96722e-23
1.875e-06
-1.06195e-23
6.1219e-23
1.875e-06
3.39115e-23
1.81952e-22
1.875e-06
-6.47259e-23
-3.53063e-23
1.875e-06
-3.60181e-23
-8.80527e-23
1.875e-06
2.00469e-23
5.9341e-24
1.875e-06
-1.3222e-23
2.43786e-23
1.875e-06
4.76709e-23
1.48235e-22
1.875e-06
-1.05274e-22
-7.7078e-24
1.875e-06
4.47279e-23
8.36207e-23
1.875e-06
3.11805e-23
-3.22964e-23
1.875e-06
3.52068e-23
1.83967e-23
1.875e-06
-3.52483e-23
1.06329e-22
1.875e-06
-4.49872e-23
4.77523e-24
1.875e-06
1.31337e-23
-9.11751e-23
1.875e-06
6.86988e-23
-7.49464e-23
1.875e-06
-1.60139e-22
-8.15214e-24
1.875e-06
-3.20021e-23
-1.17357e-23
1.875e-06
7.00598e-23
-5.94763e-23
1.875e-06
4.53658e-23
3.5765e-24
1.875e-06
2.39054e-23
1.02645e-22
1.875e-06
-9.92242e-23
-1.47306e-23
1.875e-06
2.56498e-23
-3.54065e-23
1.875e-06
-4.16582e-23
7.98117e-23
1.875e-06
-3.25032e-23
8.22324e-23
1.875e-06
9.35429e-23
-2.13928e-23
1.875e-06
1.0128e-22
6.13058e-23
1.875e-06
-2.5573e-23
-7.69999e-23
1.875e-06
2.26924e-23
-2.64497e-23
1.875e-06
-6.45505e-23
-9.04315e-23
1.875e-06
-1.33702e-23
-1.14254e-22
1.875e-06
1.1495e-23
4.80409e-23
1.875e-06
-4.25433e-24
3.0651e-23
1.875e-06
1.82714e-23
-4.22818e-24
1.875e-06
-2.58197e-23
2.43149e-23
1.875e-06
3.47665e-23
-1.1868e-22
1.875e-06
-4.42512e-23
-1.5696e-22
-3.16774e-23
-3.40188e-23
1.875e-06
-7.75987e-23
1.77347e-22
1.875e-06
-9.04518e-23
1.68814e-22
1.875e-06
3.69332e-24
6.28856e-23
1.875e-06
2.14981e-23
-3.25472e-23
1.875e-06