/*--------------------------------*- C++ -*----------------------------------*\
| =========                 |                                                 |
| \\      /  F ield         | OpenFOAM: The Open Source CFD Toolbox           |
|  \\    /   O peration     | Version:  v2012                                 |
|   \\  /    A nd           | Website:  www.openfoam.com                      |
|    \\/     M anipulation  |                                                 |
\*---------------------------------------------------------------------------*/
FoamFile
{
    version     2.0;
    format      ascii;
    class       volVectorField;
    location    "1";
    object      U;
}
// * * * * * * * * * * * * * * * * * * * * * * * * * * * * * * * * * * * * * //

dimensions      [0 1 -1 0 0 0 0];


internalField   nonuniform List<vector> 
64000
(
(0.003 -1.60629e-20 -1.06958e-20)
(0.003 -1.10303e-20 -4.05243e-21)
(0.003 -6.74907e-21 2.21982e-21)
(0.003 -2.45252e-20 1.99688e-20)
(0.003 -9.96421e-21 -3.49525e-20)
(0.003 8.63984e-21 2.32903e-21)
(0.003 4.37077e-21 1.03328e-20)
(0.003 -3.39122e-20 3.27259e-20)
(0.003 2.4506e-20 -1.15764e-20)
(0.003 6.86836e-20 -7.56901e-20)
(0.003 3.01896e-20 -1.98944e-20)
(0.003 -2.74799e-20 1.78837e-20)
(0.003 2.21355e-20 1.1589e-20)
(0.003 4.11261e-20 -2.50331e-21)
(0.003 -6.58672e-22 2.93633e-20)
(0.003 -4.37617e-20 2.7738e-20)
(0.003 -1.34483e-20 1.42457e-20)
(0.003 -1.83483e-20 -4.0107e-21)
(0.003 -3.94356e-20 -3.85331e-20)
(0.003 -1.06617e-20 -1.42554e-20)
(0.003 1.02917e-20 2.68775e-20)
(0.003 4.54355e-20 7.94477e-21)
(0.003 2.28281e-20 3.08722e-21)
(0.003 3.58189e-20 -2.42665e-20)
(0.003 4.00985e-20 -1.69384e-20)
(0.003 -1.16224e-20 -8.98077e-21)
(0.003 -4.11134e-20 7.49693e-21)
(0.003 -2.19386e-20 -1.22326e-20)
(0.003 -2.48344e-21 -1.63547e-20)
(0.003 -1.22134e-21 3.79489e-20)
(0.003 -2.45213e-20 3.64334e-20)
(0.003 -8.97204e-21 4.55754e-21)
(0.003 -8.99169e-21 2.0743e-21)
(0.003 -2.8967e-20 2.0101e-20)
(0.003 8.56032e-21 3.34531e-21)
(0.003 2.65496e-20 -2.46935e-20)
(0.003 -2.13794e-20 -1.47974e-20)
(0.003 -1.62629e-20 -8.63805e-21)
(0.003 -5.85989e-20 2.8082e-20)
(0.003 -4.66165e-20 3.35097e-20)
(0.003 -2.04091e-20 -1.08586e-20)
(0.003 -2.61168e-20 -4.77951e-21)
(0.003 -1.76502e-20 -3.88179e-21)
(0.003 -1.06366e-20 1.8839e-20)
(0.003 4.89516e-20 -4.05869e-20)
(0.003 1.32719e-20 -6.73786e-21)
(0.003 -8.364e-21 1.07863e-20)
(0.003 -2.79014e-20 1.48028e-20)
(0.003 6.41414e-21 2.22062e-21)
(0.003 2.64954e-20 -6.22227e-21)
(0.003 5.51878e-21 3.17877e-21)
(0.003 1.28482e-20 -3.1544e-22)
(0.003 4.40845e-21 2.17214e-20)
(0.003 -8.41415e-21 3.69961e-20)
(0.003 1.70045e-21 2.2222e-20)
(0.003 2.28464e-20 -7.69192e-21)
(0.003 -1.39349e-20 2.8337e-21)
(0.003 -2.85444e-21 9.97665e-21)
(0.003 2.47606e-20 -3.08412e-20)
(0.003 1.00367e-21 -2.99744e-20)
(0.003 -1.7072e-22 3.39253e-20)
(0.003 -1.21614e-20 5.51154e-20)
(0.003 1.61386e-21 -3.84217e-21)
(0.003 -1.0319e-20 -8.77317e-21)
(0.003 5.23202e-21 -9.15609e-21)
(0.003 -7.11086e-21 -2.08729e-20)
(0.003 -8.73224e-21 -4.42805e-20)
(0.003 1.43794e-20 -2.72205e-20)
(0.003 8.17422e-21 -9.13252e-21)
(0.003 -2.12149e-20 1.77562e-20)
(0.003 -5.32079e-20 1.4782e-20)
(0.003 -1.33044e-20 -3.0386e-21)
(0.003 2.32502e-21 3.38333e-21)
(0.003 -5.47632e-21 -1.17887e-20)
(0.003 1.82592e-20 1.1805e-20)
(0.003 -2.30503e-20 -7.78321e-21)
(0.003 -8.81637e-22 -1.9952e-20)
(0.003 2.80636e-20 -2.30554e-20)
(0.003 1.62813e-20 -3.34322e-21)
(0.003 -2.38637e-21 7.5585e-21)
(0.003 3.02552e-21 -1.58472e-20)
(0.003 -2.80206e-22 -9.52434e-21)
(0.003 1.2785e-21 -2.46977e-20)
(0.003 -1.04901e-20 -3.03349e-20)
(0.003 1.34186e-20 -2.31739e-20)
(0.003 1.67049e-20 -5.82714e-21)
(0.003 4.71611e-21 1.03426e-20)
(0.003 1.63804e-20 4.58385e-20)
(0.003 -4.88522e-21 1.93918e-20)
(0.003 -2.36703e-20 5.65895e-22)
(0.003 -1.69226e-20 2.23645e-21)
(0.003 3.00653e-20 9.99313e-21)
(0.003 -3.30503e-20 8.82932e-21)
(0.003 -9.61654e-21 2.20436e-20)
(0.003 1.49396e-20 2.5315e-20)
(0.003 3.07701e-20 1.83324e-20)
(0.003 -6.94098e-21 5.56895e-21)
(0.003 -1.09701e-20 -3.37881e-21)
(0.003 4.23006e-20 -2.73098e-20)
(0.003 1.41603e-20 -3.20128e-20)
(0.003 -6.57022e-21 3.27867e-20)
(0.003 -5.0968e-20 2.64137e-20)
(0.003 9.91449e-21 8.83786e-21)
(0.003 6.35153e-21 -2.11315e-21)
(0.003 -8.8682e-21 -4.09132e-21)
(0.003 -2.48981e-21 -3.12635e-20)
(0.003 2.84899e-21 -4.54702e-20)
(0.003 9.18518e-21 -2.79549e-21)
(0.003 1.52148e-20 -3.34781e-21)
(0.003 -2.54734e-20 2.39572e-21)
(0.003 -3.1217e-20 1.46928e-21)
(0.003 1.068e-20 7.74438e-21)
(0.003 7.70355e-21 -1.69654e-20)
(0.003 -1.11532e-20 -2.77184e-20)
(0.003 -3.16895e-20 1.74737e-20)
(0.003 -1.3946e-20 -1.58161e-20)
(0.003 3.64862e-20 -3.64276e-20)
(0.003 1.65936e-20 -8.26354e-21)
(0.003 2.7486e-20 1.86788e-21)
(0.003 5.16392e-21 3.74436e-21)
(0.003 1.58091e-20 6.39266e-21)
(0.003 1.18609e-20 7.4955e-21)
(0.003 2.88985e-21 -2.16813e-20)
(0.003 1.01857e-20 -1.30657e-20)
(0.003 -1.43032e-20 -6.03429e-21)
(0.003 5.27768e-21 8.54137e-21)
(0.003 8.13468e-21 9.54811e-21)
(0.003 1.54681e-20 2.39512e-20)
(0.003 -6.9206e-21 3.40074e-20)
(0.003 -2.19513e-20 -1.77143e-20)
(0.003 1.02357e-20 -6.73786e-21)
(0.003 3.22798e-21 9.52743e-21)
(0.003 -6.81479e-21 7.65914e-21)
(0.003 -1.76433e-20 2.86768e-20)
(0.003 5.10545e-21 2.91203e-20)
(0.003 1.88099e-20 1.57212e-20)
(0.003 7.76884e-21 -7.28549e-21)
(0.003 1.9273e-21 9.43198e-21)
(0.003 -6.47352e-21 -3.6396e-21)
(0.003 -2.26973e-21 -3.20482e-20)
(0.003 -5.81551e-21 3.76006e-20)
(0.003 -3.15898e-21 1.57998e-20)
(0.003 3.09414e-21 -5.61747e-21)
(0.003 -3.42611e-21 -2.01548e-21)
(0.003 -4.79998e-21 -6.23419e-21)
(0.003 2.7057e-21 -1.85901e-20)
(0.003 5.38395e-22 -2.77118e-20)
(0.003 1.87855e-20 -2.54309e-20)
(0.003 -1.86575e-21 -5.04008e-21)
(0.003 -4.99536e-21 3.30065e-21)
(0.003 6.50993e-21 -1.66525e-20)
(0.003 -3.94118e-21 -4.62948e-21)
(0.003 1.86463e-21 -9.95314e-21)
(0.003 6.65451e-22 -3.18279e-21)
(0.003 -1.26035e-20 -1.12688e-20)
(0.003 4.38917e-21 -2.40667e-20)
(0.003 8.66523e-21 -1.12275e-20)
(0.003 -1.66802e-20 1.81155e-21)
(0.003 1.45907e-20 3.81811e-21)
(0.003 -2.48946e-21 1.16395e-20)
(0.003 1.70559e-20 1.09152e-20)
(0.003 -1.67182e-21 2.63231e-20)
(0.003 -7.62094e-21 -1.39717e-20)
(0.003 4.06554e-21 1.06983e-21)
(0.003 -2.60402e-20 -2.89267e-20)
(0.003 2.41983e-21 8.81382e-21)
(0.003 2.21168e-20 3.11441e-20)
(0.003 1.69369e-22 2.37358e-20)
(0.003 -1.411e-20 7.22422e-21)
(0.003 -3.42968e-21 1.639e-20)
(0.003 3.70891e-20 3.38149e-20)
(0.003 1.57681e-20 1.87554e-20)
(0.003 1.46345e-20 -4.71111e-22)
(0.003 -2.78472e-20 2.56489e-20)
(0.003 -2.95698e-20 2.20838e-20)
(0.003 8.39714e-21 7.00032e-21)
(0.003 2.92771e-20 -1.85547e-20)
(0.003 1.60221e-20 -7.66077e-21)
(0.003 -3.87181e-20 -2.01938e-20)
(0.003 -3.29172e-20 -1.22893e-20)
(0.003 -1.45761e-21 8.65256e-21)
(0.003 4.63969e-20 1.38371e-20)
(0.003 9.08508e-21 1.7295e-20)
(0.003 -1.64547e-20 -9.58508e-21)
(0.003 -1.18662e-20 1.05304e-20)
(0.003 1.20286e-20 5.37748e-21)
(0.003 4.36472e-21 -3.07419e-20)
(0.003 7.62219e-21 -1.00373e-20)
(0.003 1.29891e-20 1.1073e-20)
(0.003 4.46746e-21 -2.94235e-20)
(0.003 7.74952e-21 -5.55291e-20)
(0.003 -2.60689e-20 -1.6162e-20)
(0.003 -1.70759e-20 6.80924e-21)
(0.003 7.81664e-21 -9.46209e-21)
(0.003 1.81338e-20 -2.06877e-20)
(0.003 -9.59788e-21 -1.81633e-20)
(0.003 -3.69551e-20 -2.3776e-21)
(0.003 4.00343e-21 7.7162e-21)
(0.003 2.24243e-20 1.23384e-20)
(0.003 3.76526e-21 1.83705e-20)
(0.003 3.50206e-20 -1.0446e-20)
(0.003 3.13359e-20 -4.91556e-21)
(0.003 -5.66513e-21 -1.24555e-20)
(0.003 -9.72651e-21 1.58793e-20)
(0.003 6.21027e-21 -3.13359e-21)
(0.003 3.44689e-21 -1.56705e-21)
(0.003 1.3593e-20 1.22756e-20)
(0.003 -1.18263e-20 3.27997e-20)
(0.003 -1.15636e-21 1.12863e-20)
(0.003 8.51796e-22 -3.17904e-20)
(0.003 5.82307e-21 4.54177e-21)
(0.003 3.38923e-21 6.024e-20)
(0.003 1.10678e-20 1.30651e-21)
(0.003 2.19194e-21 -2.51862e-20)
(0.003 -3.69035e-20 2.39725e-20)
(0.003 -1.68103e-20 3.88502e-20)
(0.003 1.53142e-20 2.37173e-20)
(0.003 -3.45151e-21 -3.81318e-21)
(0.003 -3.35984e-20 -2.79988e-20)
(0.003 -2.22233e-21 -1.3425e-20)
(0.003 -1.26113e-21 6.40742e-21)
(0.003 7.08821e-21 2.41313e-20)
(0.003 1.97405e-20 1.17296e-20)
(0.003 1.58302e-20 -2.79476e-20)
(0.003 -9.24059e-21 -3.38219e-20)
(0.003 2.20582e-20 -1.94723e-20)
(0.003 1.2802e-20 -1.53167e-20)
(0.003 -1.07653e-20 -1.02694e-21)
(0.003 -2.48134e-21 -2.99868e-21)
(0.003 2.65363e-20 5.34841e-21)
(0.003 1.0032e-20 9.81045e-21)
(0.003 -2.63639e-20 -1.17918e-20)
(0.003 -3.11889e-20 -8.74208e-21)
(0.003 1.16719e-20 -9.05786e-23)
(0.003 -2.61478e-20 -1.26206e-20)
(0.003 4.19522e-22 -3.61535e-20)
(0.003 -2.97881e-21 -3.35355e-20)
(0.003 2.8872e-20 3.13248e-20)
(0.003 2.48283e-21 3.83899e-20)
(0.003 1.37162e-20 3.64296e-20)
(0.003 3.06064e-20 2.52315e-20)
(0.003 3.43266e-20 1.67779e-20)
(0.003 -3.24443e-21 -1.5593e-20)
(0.003 -1.09422e-20 7.05304e-22)
(0.003 -1.46097e-21 1.33537e-20)
(0.003 -1.65962e-21 1.16958e-20)
(0.003 1.38674e-21 2.6456e-20)
(0.003 -1.50717e-21 -1.45466e-20)
(0.003 4.93403e-21 1.72399e-20)
(0.003 2.4783e-20 2.33701e-20)
(0.003 5.2017e-21 4.94581e-20)
(0.003 -9.34451e-21 2.9405e-20)
(0.003 3.19978e-21 -8.37647e-21)
(0.003 3.08247e-20 -1.13201e-20)
(0.003 -8.84782e-21 4.94366e-21)
(0.003 -1.92072e-20 1.28557e-20)
(0.003 -2.59513e-20 1.78131e-20)
(0.003 -7.65608e-21 7.63231e-21)
(0.003 3.26257e-21 -2.154e-20)
(0.003 7.30721e-22 -2.47424e-20)
(0.003 -5.96179e-21 1.83805e-20)
(0.003 -2.28251e-20 1.53404e-20)
(0.003 -1.34048e-20 -4.99337e-21)
(0.003 3.05444e-20 2.93104e-21)
(0.003 1.75573e-20 -1.16629e-20)
(0.003 4.94419e-21 -1.12891e-20)
(0.003 3.17147e-21 -9.67692e-21)
(0.003 1.1905e-21 1.17204e-20)
(0.003 -2.31153e-20 -2.91423e-20)
(0.003 6.20726e-21 -2.45938e-20)
(0.003 1.84532e-20 6.81729e-21)
(0.003 1.461e-21 -1.84227e-20)
(0.003 -1.62974e-20 -2.87304e-20)
(0.003 2.16497e-20 -1.11343e-20)
(0.003 -8.46674e-21 -2.50039e-20)
(0.003 -9.33281e-21 -1.52533e-20)
(0.003 3.40127e-20 -1.54422e-20)
(0.003 6.99187e-21 1.13283e-20)
(0.003 -9.15771e-21 2.30202e-20)
(0.003 -7.45265e-21 1.09632e-20)
(0.003 2.12841e-20 5.46626e-20)
(0.003 5.16117e-21 3.51261e-20)
(0.003 6.99419e-21 -7.85749e-21)
(0.003 -1.9871e-21 -3.62495e-21)
(0.003 -1.1585e-20 3.45726e-21)
(0.003 -9.15925e-21 1.43522e-20)
(0.003 -5.50229e-21 1.86784e-20)
(0.003 1.63339e-20 -8.77563e-21)
(0.003 -1.28473e-20 3.17651e-20)
(0.003 1.94294e-20 2.58109e-20)
(0.003 4.69747e-22 4.15434e-20)
(0.003 4.78391e-21 2.52688e-20)
(0.003 1.87061e-20 2.00591e-20)
(0.003 2.46718e-20 5.72262e-22)
(0.003 1.83093e-20 1.00007e-20)
(0.003 -7.03458e-21 1.04891e-20)
(0.003 -1.61071e-20 -5.7064e-21)
(0.003 -7.66921e-22 -2.38092e-20)
(0.003 1.68107e-20 -3.6086e-20)
(0.003 -9.07021e-21 6.49655e-21)
(0.003 -1.00434e-20 4.23094e-21)
(0.003 -7.569e-21 9.44682e-21)
(0.003 -8.67954e-21 1.81638e-20)
(0.003 -2.68493e-21 8.31809e-21)
(0.003 2.30068e-20 -5.04989e-21)
(0.003 -1.72142e-20 -1.41995e-20)
(0.003 -1.69097e-20 -1.64278e-20)
(0.003 -1.09828e-20 -6.21982e-21)
(0.003 -2.46184e-21 -2.76753e-20)
(0.003 -8.04988e-21 1.29822e-20)
(0.003 1.45926e-20 1.53367e-20)
(0.003 3.41261e-20 -1.86077e-20)
(0.003 3.39637e-20 -3.47911e-20)
(0.003 1.55694e-20 3.94072e-21)
(0.003 1.29916e-20 -1.44093e-20)
(0.003 -2.87265e-20 -1.74656e-20)
(0.003 -1.76162e-21 -2.2484e-20)
(0.003 -1.70255e-20 -1.95808e-20)
(0.003 -1.58038e-20 2.30465e-20)
(0.003 -1.37281e-20 1.16433e-20)
(0.003 7.85279e-21 6.97353e-20)
(0.003 3.90094e-21 6.52262e-20)
(0.003 2.18591e-20 1.34916e-20)
(0.003 3.54624e-21 -2.27097e-21)
(0.003 -4.6817e-21 -9.08044e-21)
(0.003 8.63069e-21 1.81945e-20)
(0.003 9.43665e-21 4.75708e-20)
(0.003 -7.12716e-22 5.48697e-21)
(0.003 -2.50389e-21 4.75495e-21)
(0.003 5.62354e-22 2.95633e-20)
(0.003 -3.86225e-21 2.92816e-20)
(0.003 -6.52209e-21 5.59614e-20)
(0.003 1.1773e-20 8.42942e-21)
(0.003 9.3195e-21 9.74552e-21)
(0.003 1.53019e-20 3.90698e-20)
(0.003 -5.61299e-21 -1.09994e-20)
(0.003 5.20151e-21 -3.15207e-21)
(0.003 -3.27132e-22 -1.16072e-20)
(0.003 -2.1297e-21 -1.79958e-20)
(0.003 -2.03872e-20 3.95216e-21)
(0.003 -1.49812e-20 -2.16361e-20)
(0.003 7.31244e-21 2.00535e-21)
(0.003 2.27769e-20 1.68151e-20)
(0.003 -2.17179e-20 2.44393e-20)
(0.003 1.10313e-21 -2.22638e-20)
(0.003 -1.51878e-21 -2.09172e-20)
(0.003 -9.98507e-21 -2.72791e-20)
(0.003 -2.85911e-20 -8.71655e-21)
(0.003 1.10546e-20 -1.02227e-20)
(0.003 8.6448e-21 2.5483e-21)
(0.003 2.54318e-20 2.16958e-20)
(0.003 1.97564e-20 1.34493e-20)
(0.003 2.88701e-20 1.02408e-20)
(0.003 -2.11723e-20 -2.31706e-20)
(0.003 -2.07602e-20 -2.83228e-20)
(0.003 1.65242e-20 -5.5001e-20)
(0.003 9.38787e-21 -2.72631e-21)
(0.003 -1.74709e-20 -7.28163e-21)
(0.003 -3.1403e-20 -6.14934e-21)
(0.003 -3.81265e-21 -1.11133e-20)
(0.003 6.82025e-23 7.42248e-20)
(0.003 2.55758e-20 4.63583e-20)
(0.003 3.57497e-20 2.07852e-20)
(0.003 6.82295e-21 -8.04863e-21)
(0.003 2.15513e-21 2.67797e-20)
(0.003 -5.97703e-21 2.92599e-20)
(0.003 6.00532e-22 2.0033e-20)
(0.003 1.14501e-21 1.41313e-20)
(0.003 1.74651e-20 1.06984e-20)
(0.003 1.62447e-21 1.39172e-20)
(0.003 6.73783e-21 1.37328e-20)
(0.003 -5.97183e-21 2.9683e-20)
(0.003 -9.32044e-21 2.63162e-20)
(0.003 -1.90378e-20 2.23876e-20)
(0.003 -6.72517e-22 3.13598e-20)
(0.003 1.11096e-20 5.54595e-21)
(0.003 -3.475e-21 8.95731e-22)
(0.003 -2.17496e-20 -6.8303e-21)
(0.003 -1.788e-20 -2.68072e-20)
(0.003 -1.26571e-20 -2.52727e-20)
(0.003 1.55585e-22 -1.34354e-20)
(0.003 1.70514e-21 -9.90315e-22)
(0.003 9.42952e-21 1.6179e-20)
(0.003 -6.51799e-21 1.94826e-20)
(0.003 1.77352e-20 -1.55452e-20)
(0.003 2.4516e-20 -2.43232e-20)
(0.003 9.89326e-21 -4.18494e-20)
(0.003 -1.91661e-20 5.64056e-21)
(0.003 3.32784e-21 6.28993e-21)
(0.003 1.63131e-20 2.14441e-20)
(0.003 -1.9191e-21 2.72598e-20)
(0.003 3.43898e-21 1.00017e-20)
(0.003 7.24136e-21 -2.94942e-21)
(0.003 -2.85628e-20 -1.92093e-20)
(0.003 -2.60366e-21 -4.19448e-20)
(0.003 3.13883e-20 -8.56089e-21)
(0.003 -3.22453e-21 -1.17031e-20)
(0.003 -2.06976e-20 -1.32925e-20)
(0.003 -1.90407e-20 -1.54582e-20)
(0.003 -1.45812e-20 -1.13632e-20)
(0.003 -1.69393e-20 4.80713e-20)
(0.003 1.10018e-20 4.93899e-20)
(0.003 1.77484e-20 3.23414e-20)
(0.003 2.60103e-20 -1.39679e-21)
(0.003 1.81997e-20 2.97712e-20)
(0.003 -2.42957e-20 2.38807e-20)
(0.003 -1.19011e-20 2.2605e-20)
(0.003 1.30495e-20 2.44452e-20)
(0.003 -7.67049e-21 1.21395e-20)
(0.003 -3.55714e-22 1.30274e-20)
(0.003 6.83322e-21 -2.47207e-21)
(0.003 4.52944e-21 1.43624e-20)
(0.003 -5.88563e-21 1.84996e-20)
(0.003 -2.37104e-20 8.84781e-22)
(0.003 4.18546e-21 3.89891e-20)
(0.003 1.12239e-20 2.68752e-20)
(0.003 -2.03097e-20 8.95569e-21)
(0.003 -1.00592e-20 -5.07101e-22)
(0.003 -5.63394e-21 -2.91956e-20)
(0.003 3.1552e-21 -3.79134e-20)
(0.003 9.81952e-21 -3.12428e-21)
(0.003 4.54459e-21 -1.11536e-20)
(0.003 -7.35674e-21 5.90637e-21)
(0.003 2.12019e-20 7.80975e-21)
(0.003 3.0378e-21 1.64264e-20)
(0.003 5.05709e-21 -2.90398e-20)
(0.003 4.60909e-21 -2.71886e-20)
(0.003 5.00451e-21 -1.37281e-20)
(0.003 2.43507e-21 -2.21595e-20)
(0.003 1.40878e-20 4.40528e-20)
(0.003 -1.35174e-20 5.87778e-20)
(0.003 -2.67314e-21 1.93955e-20)
(0.003 -8.35646e-22 -1.52275e-21)
(0.003 -1.06538e-20 -3.05566e-20)
(0.003 2.37249e-20 -8.74035e-21)
(0.003 7.03273e-21 -7.41631e-21)
(0.003 -3.97961e-20 -3.87937e-20)
(0.003 -2.72477e-20 -2.61925e-20)
(0.003 6.33871e-21 -4.30119e-20)
(0.003 1.79262e-20 -4.4711e-20)
(0.003 1.80858e-20 3.49302e-20)
(0.003 2.04383e-21 4.90896e-20)
(0.003 -6.83052e-21 4.92394e-20)
(0.003 1.97173e-20 1.31378e-20)
(0.003 1.80245e-20 3.03106e-20)
(0.003 1.51949e-20 4.6652e-20)
(0.003 -7.71753e-21 1.11047e-21)
(0.003 -6.07534e-21 9.2095e-21)
(0.003 -3.70402e-21 -1.11835e-20)
(0.003 -1.414e-20 4.75813e-20)
(0.003 -1.86026e-20 1.415e-20)
(0.003 -5.6426e-21 -5.90622e-21)
(0.003 2.78127e-21 8.02779e-21)
(0.003 -8.56677e-22 -2.07573e-20)
(0.003 2.03517e-20 4.11782e-20)
(0.003 -6.31262e-21 1.10595e-20)
(0.003 -1.56577e-20 -1.28947e-21)
(0.003 1.96527e-21 2.13578e-20)
(0.003 2.62533e-21 -2.70658e-20)
(0.003 2.77254e-20 -2.25207e-20)
(0.003 -4.19271e-21 -8.99986e-21)
(0.003 1.99094e-20 -2.82966e-21)
(0.003 -2.32139e-20 -3.30394e-20)
(0.003 1.52888e-20 -1.88428e-20)
(0.003 -6.88857e-21 7.96391e-20)
(0.003 -2.67229e-20 -5.44488e-21)
(0.003 -1.83414e-20 -3.58701e-20)
(0.003 1.76925e-20 -9.81537e-21)
(0.003 7.36045e-21 -2.8222e-20)
(0.003 9.4271e-21 3.85583e-20)
(0.003 1.17064e-20 4.89097e-20)
(0.003 -1.03102e-20 2.14738e-20)
(0.003 -1.14482e-20 9.99746e-21)
(0.003 -1.31763e-20 -3.0862e-20)
(0.003 2.46723e-20 1.81003e-21)
(0.003 -9.44594e-21 8.40453e-22)
(0.003 1.23275e-20 -5.25041e-20)
(0.003 3.38844e-21 -3.16247e-20)
(0.003 1.54767e-20 -4.13718e-20)
(0.003 2.2532e-20 -4.28108e-20)
(0.003 1.70919e-20 6.87215e-20)
(0.003 8.18815e-21 5.91344e-20)
(0.003 6.14961e-21 5.71715e-20)
(0.003 1.4157e-20 3.27362e-20)
(0.003 4.12937e-20 2.73246e-20)
(0.003 1.85026e-20 4.10175e-20)
(0.003 -1.88165e-20 1.03907e-20)
(0.003 -2.05072e-20 9.00303e-21)
(0.003 1.69275e-20 1.71204e-21)
(0.003 -5.27612e-22 8.10694e-21)
(0.003 -2.28117e-20 -4.57201e-21)
(0.003 -1.12082e-20 6.30592e-21)
(0.003 -1.43679e-20 1.22334e-20)
(0.003 1.79016e-22 1.2143e-20)
(0.003 4.26194e-21 3.69058e-20)
(0.003 -1.4897e-20 1.02109e-20)
(0.003 3.12685e-22 -1.77413e-20)
(0.003 6.29685e-22 -1.53081e-20)
(0.003 -1.26332e-20 -2.24822e-20)
(0.003 6.83078e-21 -3.31011e-20)
(0.003 1.97633e-20 -3.34306e-21)
(0.003 7.70915e-21 2.1722e-20)
(0.003 -1.48065e-20 2.22257e-21)
(0.003 6.18018e-21 -2.11474e-21)
(0.003 1.52335e-20 2.92858e-20)
(0.003 8.82761e-21 -4.05138e-22)
(0.003 -1.30433e-21 -2.49523e-20)
(0.003 1.06421e-20 -1.04806e-20)
(0.003 3.55014e-21 7.11056e-21)
(0.003 -1.58167e-20 1.15265e-20)
(0.003 -9.10087e-21 2.53368e-20)
(0.003 -1.48954e-20 2.13443e-20)
(0.003 1.29953e-21 5.23763e-21)
(0.003 2.6248e-20 -1.96077e-20)
(0.003 1.81676e-20 2.42159e-21)
(0.003 -1.06677e-20 -1.44647e-20)
(0.003 1.35846e-20 -2.08219e-20)
(0.003 1.84842e-20 -1.99872e-20)
(0.003 1.42308e-21 -9.90369e-21)
(0.003 -2.45336e-20 -2.55032e-20)
(0.003 -1.46556e-20 5.84669e-20)
(0.003 1.76495e-20 5.48552e-20)
(0.003 1.58505e-20 5.45561e-20)
(0.003 1.5332e-20 1.44381e-20)
(0.003 1.11562e-20 6.3073e-20)
(0.003 6.82952e-21 6.22633e-20)
(0.003 -6.8976e-21 8.38906e-21)
(0.003 -9.28645e-22 -2.68163e-21)
(0.003 8.69839e-21 5.36185e-21)
(0.003 -1.55992e-20 3.17386e-20)
(0.003 -1.596e-22 1.71146e-20)
(0.003 -1.05729e-20 -1.92871e-20)
(0.003 -1.50119e-20 -3.68632e-21)
(0.003 2.52587e-21 -9.16016e-21)
(0.003 -1.41388e-20 1.79516e-20)
(0.003 -1.55094e-20 -1.60137e-20)
(0.003 1.69191e-21 -2.59378e-20)
(0.003 2.17867e-20 1.23056e-20)
(0.003 1.6122e-20 -2.65848e-20)
(0.003 -2.51884e-20 -4.39161e-20)
(0.003 3.30352e-20 1.57497e-20)
(0.003 -2.77329e-21 2.23504e-20)
(0.003 4.33435e-21 -1.305e-20)
(0.003 -6.86341e-21 1.15649e-20)
(0.003 -1.08304e-20 7.36967e-20)
(0.003 9.46657e-21 3.57866e-21)
(0.003 2.63989e-20 -1.92102e-20)
(0.003 -8.61092e-21 -6.2689e-21)
(0.003 9.85513e-21 -1.58279e-20)
(0.003 -1.70499e-20 2.35545e-21)
(0.003 -1.39467e-20 2.14845e-20)
(0.003 3.86318e-21 -5.66975e-21)
(0.003 -6.82073e-21 2.48376e-20)
(0.003 2.38415e-20 -5.67073e-21)
(0.003 3.43727e-21 1.59108e-20)
(0.003 1.71545e-20 -1.96924e-22)
(0.003 -1.16681e-20 -2.94583e-20)
(0.003 -1.20786e-20 -2.97856e-20)
(0.003 -9.0241e-21 -3.50182e-20)
(0.003 -2.69435e-20 -5.70507e-20)
(0.003 -1.61808e-21 8.29893e-20)
(0.003 1.52481e-20 6.03678e-20)
(0.003 4.15072e-21 4.75375e-20)
(0.003 1.60925e-21 8.39888e-21)
(0.003 -2.11869e-21 4.77419e-20)
(0.003 1.2985e-20 6.88272e-20)
(0.003 6.58057e-21 1.50069e-20)
(0.003 1.23241e-20 7.41168e-21)
(0.003 -1.33078e-20 1.81437e-20)
(0.003 -4.68144e-20 2.69148e-20)
(0.003 -8.79168e-21 2.76441e-20)
(0.003 -1.38557e-20 -2.96569e-20)
(0.003 3.708e-21 -1.09079e-20)
(0.003 2.59145e-21 1.71774e-21)
(0.003 -1.31816e-20 3.67068e-21)
(0.003 -2.38697e-21 -5.83094e-21)
(0.003 1.04664e-20 -2.69952e-20)
(0.003 1.0353e-20 -2.20209e-20)
(0.003 2.34983e-20 -3.96007e-20)
(0.003 2.89684e-20 -1.28472e-20)
(0.003 2.56766e-21 -5.54822e-21)
(0.003 1.25958e-20 5.21683e-20)
(0.003 -1.11984e-20 1.89621e-20)
(0.003 -4.50356e-20 5.98796e-21)
(0.003 -2.30761e-20 3.59377e-20)
(0.003 2.20509e-20 1.40791e-20)
(0.003 2.78466e-20 -1.07606e-20)
(0.003 3.98371e-21 5.62592e-21)
(0.003 -1.35627e-20 3.37689e-21)
(0.003 -2.33184e-20 -1.7145e-20)
(0.003 1.72557e-21 4.50508e-21)
(0.003 2.59189e-20 -1.57843e-21)
(0.003 -1.97237e-20 3.04439e-21)
(0.003 -7.38601e-21 -1.35303e-20)
(0.003 7.0918e-21 2.33212e-20)
(0.003 -6.14935e-22 2.94007e-20)
(0.003 -1.15937e-21 -1.78189e-20)
(0.003 2.01423e-21 -4.7737e-20)
(0.003 -1.63936e-21 -5.408e-20)
(0.003 6.27743e-21 -6.48129e-20)
(0.003 8.22973e-21 7.11367e-20)
(0.003 -1.41168e-20 6.9352e-20)
(0.003 -5.66139e-21 6.05513e-20)
(0.003 -7.90279e-21 1.45274e-20)
(0.003 7.39782e-21 4.71261e-20)
(0.003 4.81577e-21 6.96382e-20)
(0.003 1.23415e-20 3.8001e-20)
(0.003 1.07617e-21 3.37164e-20)
(0.003 -1.38844e-21 3.46706e-21)
(0.003 -1.2253e-20 -1.49787e-20)
(0.003 -2.73287e-20 3.47741e-21)
(0.003 -6.38291e-21 -5.47283e-21)
(0.003 7.58881e-21 -5.33765e-21)
(0.003 -6.97307e-21 -8.72078e-21)
(0.003 6.02865e-21 7.93737e-22)
(0.003 6.07773e-21 2.76316e-21)
(0.003 -3.34661e-22 -2.35273e-20)
(0.003 -7.40683e-21 -1.7179e-20)
(0.003 1.82429e-20 -2.25765e-20)
(0.003 3.75553e-20 -1.3199e-20)
(0.003 -2.93599e-21 9.26738e-21)
(0.003 -2.46775e-20 3.70506e-20)
(0.003 -2.36544e-20 1.43176e-20)
(0.003 -2.04558e-21 -1.10376e-20)
(0.003 6.222e-23 9.5169e-21)
(0.003 2.1241e-21 2.91294e-20)
(0.003 9.94085e-21 6.76629e-21)
(0.003 6.40809e-21 -9.72713e-22)
(0.003 -1.2323e-20 -4.32889e-21)
(0.003 -1.79599e-21 -6.0711e-21)
(0.003 1.51969e-20 4.76507e-21)
(0.003 3.80921e-21 -1.05992e-22)
(0.003 -3.26208e-21 -2.97395e-21)
(0.003 8.62256e-21 -2.24173e-20)
(0.003 -1.14362e-20 1.44849e-21)
(0.003 -7.68847e-21 3.02765e-20)
(0.003 4.42189e-21 -9.97633e-21)
(0.003 2.5475e-20 -2.28892e-20)
(0.003 5.10474e-21 -4.82509e-20)
(0.003 1.60925e-20 -5.10895e-20)
(0.003 -8.37331e-21 7.01453e-20)
(0.003 -2.57744e-20 6.9717e-20)
(0.003 -1.00469e-20 5.49249e-20)
(0.003 -6.56525e-21 4.07328e-20)
(0.003 -1.34887e-20 4.10979e-20)
(0.003 -8.29389e-22 3.84151e-20)
(0.003 5.50459e-21 3.58913e-20)
(0.003 8.10007e-21 3.99534e-20)
(0.003 -4.46344e-22 3.48341e-20)
(0.003 3.014e-20 -2.3828e-20)
(0.003 -1.74937e-20 2.91376e-20)
(0.003 -7.28588e-21 2.70485e-21)
(0.003 -1.7648e-21 4.00019e-21)
(0.003 1.14847e-21 -3.98071e-21)
(0.003 2.23785e-20 -4.08887e-20)
(0.003 -6.65025e-21 -2.07006e-20)
(0.003 -1.55844e-20 -2.33541e-20)
(0.003 6.88182e-21 -3.39359e-21)
(0.003 2.53457e-20 -1.11628e-20)
(0.003 1.45688e-20 -1.77608e-21)
(0.003 -4.27615e-21 1.80033e-20)
(0.003 -2.8653e-20 -4.16018e-21)
(0.003 -2.99659e-20 -4.09399e-21)
(0.003 6.74145e-21 -4.03048e-20)
(0.003 1.71453e-20 7.11282e-21)
(0.003 -2.76503e-20 6.01132e-20)
(0.003 -1.61758e-20 1.27837e-20)
(0.003 3.08342e-22 1.9679e-20)
(0.003 2.18178e-20 2.80345e-20)
(0.003 4.63218e-20 -2.11813e-20)
(0.003 1.57875e-20 1.76108e-20)
(0.003 -1.75498e-20 -1.9233e-21)
(0.003 -8.53877e-23 -8.18114e-21)
(0.003 -5.65827e-21 -1.69174e-20)
(0.003 -1.54653e-20 -7.29388e-21)
(0.003 2.56078e-20 -1.14701e-20)
(0.003 7.55042e-21 7.01695e-22)
(0.003 1.21914e-20 -1.20108e-20)
(0.003 -9.35994e-21 -2.25371e-20)
(0.003 -4.17434e-22 -2.56478e-20)
(0.003 -3.10409e-20 6.96509e-20)
(0.003 -3.13093e-20 8.45592e-20)
(0.003 -1.16143e-20 5.42479e-20)
(0.003 -8.23532e-21 4.08363e-20)
(0.003 -1.49696e-20 3.56737e-20)
(0.003 7.17672e-21 3.47336e-20)
(0.003 2.65076e-21 4.44369e-20)
(0.003 -5.42935e-21 3.1617e-20)
(0.003 -8.40436e-21 2.58551e-20)
(0.003 2.52746e-20 1.45536e-20)
(0.003 1.5284e-20 -1.2596e-20)
(0.003 -5.05482e-21 -1.80454e-20)
(0.003 -2.2407e-20 7.03789e-21)
(0.003 -1.59738e-20 3.0205e-21)
(0.003 -1.03796e-20 -7.0973e-21)
(0.003 1.83899e-20 -1.70142e-20)
(0.003 -3.54798e-21 -9.27438e-21)
(0.003 3.125e-20 -9.50283e-21)
(0.003 4.4182e-20 -6.46456e-21)
(0.003 1.03335e-20 5.11736e-21)
(0.003 -1.6713e-20 1.80688e-20)
(0.003 -2.76859e-20 2.44179e-21)
(0.003 -4.35074e-21 -1.37517e-20)
(0.003 5.55962e-21 -1.3223e-20)
(0.003 -2.40122e-21 3.05131e-20)
(0.003 -5.01545e-21 1.80799e-20)
(0.003 -9.38786e-21 -1.05291e-20)
(0.003 4.08448e-21 -1.73677e-20)
(0.003 -1.15401e-22 4.33894e-20)
(0.003 5.07572e-21 2.8664e-20)
(0.003 2.15143e-21 -5.65617e-22)
(0.003 -1.64697e-20 -6.95337e-21)
(0.003 -1.32202e-20 -1.27106e-20)
(0.003 -1.61807e-20 -9.22788e-21)
(0.003 1.59421e-20 -1.05306e-20)
(0.003 1.65855e-20 3.18339e-21)
(0.003 -5.14759e-21 -6.82169e-21)
(0.003 -1.46699e-21 -2.09701e-20)
(0.003 -2.40353e-21 -3.9605e-20)
(0.003 7.49455e-21 -2.2162e-20)
(0.003 -2.05161e-20 4.63982e-20)
(0.003 -1.6446e-20 6.35072e-20)
(0.003 -1.24357e-20 4.6976e-20)
(0.003 -9.89805e-21 3.96439e-20)
(0.003 -1.11613e-20 4.7828e-20)
(0.003 6.73126e-21 1.80929e-20)
(0.003 -2.85948e-21 4.52e-20)
(0.003 -2.71288e-21 2.72822e-20)
(0.003 -4.37087e-21 2.42273e-20)
(0.003 6.65203e-22 3.35646e-20)
(0.003 2.33232e-20 2.49484e-22)
(0.003 1.16677e-20 -3.33021e-20)
(0.003 -9.21449e-21 3.07972e-21)
(0.003 -7.45858e-21 -3.88544e-21)
(0.003 -2.52169e-20 -8.1809e-21)
(0.003 8.93903e-21 1.0151e-20)
(0.003 1.82733e-20 1.08981e-20)
(0.003 5.91152e-21 -2.31938e-20)
(0.003 3.04742e-20 6.10282e-22)
(0.003 1.3258e-20 4.12171e-21)
(0.003 -1.44539e-20 5.28993e-21)
(0.003 -2.03024e-20 3.83781e-21)
(0.003 2.23851e-20 4.52312e-21)
(0.003 1.31888e-20 2.32073e-20)
(0.003 -2.96024e-20 1.10154e-20)
(0.003 -7.51655e-21 -1.68615e-20)
(0.003 1.16444e-20 -2.3978e-21)
(0.003 7.13642e-21 7.10409e-22)
(0.003 -2.58479e-20 1.24188e-20)
(0.003 -2.83248e-20 2.76376e-20)
(0.003 -2.09088e-20 -1.51727e-20)
(0.003 -6.30413e-21 -1.772e-20)
(0.003 -1.60049e-20 -3.97744e-20)
(0.003 1.52615e-21 -2.78007e-21)
(0.003 3.10039e-20 4.32377e-20)
(0.003 -6.72983e-21 -1.08434e-20)
(0.003 5.44094e-21 -1.28876e-20)
(0.003 -7.99008e-21 -1.86294e-20)
(0.003 1.24953e-20 -3.77749e-20)
(0.003 1.14625e-20 3.60523e-21)
(0.003 -5.57763e-21 7.09004e-20)
(0.003 -2.24543e-21 5.17696e-20)
(0.003 -1.76365e-20 3.42494e-20)
(0.003 -1.51472e-20 2.86115e-20)
(0.003 -3.29235e-20 2.0617e-20)
(0.003 -1.88216e-21 3.14991e-20)
(0.003 -3.56407e-21 2.31263e-20)
(0.003 -5.75419e-21 3.43108e-20)
(0.003 -5.25689e-21 2.00027e-20)
(0.003 -1.0215e-20 3.44016e-21)
(0.003 2.74512e-20 3.10471e-20)
(0.003 3.46818e-20 -2.96991e-21)
(0.003 1.55448e-20 -1.78022e-20)
(0.003 1.04448e-20 4.45567e-21)
(0.003 -2.62239e-21 3.11923e-21)
(0.003 -2.11365e-20 -3.29547e-21)
(0.003 2.90035e-21 -1.57171e-20)
(0.003 -3.47697e-20 -1.31732e-20)
(0.003 -3.13068e-21 6.13332e-21)
(0.003 6.13181e-22 4.24763e-21)
(0.003 5.28579e-21 2.17804e-22)
(0.003 3.21579e-20 2.83714e-20)
(0.003 1.1043e-20 1.36456e-20)
(0.003 -1.54416e-20 -1.14378e-20)
(0.003 2.27329e-21 -2.2288e-21)
(0.003 -7.50548e-21 2.60823e-21)
(0.003 3.95866e-21 1.22776e-20)
(0.003 8.77658e-21 1.90482e-20)
(0.003 -2.95228e-20 -3.00963e-20)
(0.003 9.47803e-21 -7.02313e-21)
(0.003 -2.99688e-20 4.38387e-21)
(0.003 9.21095e-21 3.53303e-21)
(0.003 7.05564e-21 -3.24892e-20)
(0.003 7.15357e-22 -3.994e-21)
(0.003 -1.83534e-20 3.24971e-20)
(0.003 1.04758e-20 -1.92747e-21)
(0.003 1.11966e-20 -2.60437e-20)
(0.003 -7.76769e-21 -1.80516e-20)
(0.003 1.05541e-20 -1.10857e-20)
(0.003 3.96854e-21 -9.4207e-21)
(0.003 4.56544e-21 6.34559e-20)
(0.003 -3.34136e-21 4.6061e-20)
(0.003 -6.03803e-21 2.85491e-20)
(0.003 -1.17681e-20 1.92915e-20)
(0.003 -1.71024e-20 3.35028e-20)
(0.003 -1.67724e-20 1.59875e-20)
(0.003 -1.02391e-20 -8.31517e-21)
(0.003 -1.48273e-20 1.91929e-22)
(0.003 -1.52067e-21 1.72242e-20)
(0.003 1.2224e-20 2.87902e-20)
(0.003 1.96637e-20 7.86373e-20)
(0.003 1.71616e-20 -4.04793e-21)
(0.003 1.44179e-20 -2.35754e-20)
(0.003 2.89811e-21 7.45166e-22)
(0.003 -9.54802e-21 1.68493e-20)
(0.003 -1.66141e-20 -7.36731e-21)
(0.003 -2.78989e-21 -3.55458e-20)
(0.003 -4.91938e-21 -1.79742e-20)
(0.003 -3.77917e-20 1.36585e-20)
(0.003 -1.37176e-20 5.59369e-21)
(0.003 2.81479e-20 -8.95571e-21)
(0.003 3.18093e-20 1.79151e-20)
(0.003 2.68565e-21 3.3693e-20)
(0.003 -3.32732e-20 -1.69546e-20)
(0.003 2.61289e-20 3.60881e-21)
(0.003 -1.60125e-20 3.78231e-21)
(0.003 -1.47172e-20 2.46672e-20)
(0.003 2.20379e-20 1.26276e-20)
(0.003 2.14866e-20 -4.50425e-21)
(0.003 6.01752e-21 -3.41478e-20)
(0.003 -4.82049e-21 -7.31874e-21)
(0.003 -1.03812e-20 -2.25584e-20)
(0.003 2.16668e-20 -2.37167e-20)
(0.003 -7.13689e-21 -8.66597e-21)
(0.003 -3.65952e-20 4.62041e-21)
(0.003 1.70614e-20 1.02563e-20)
(0.003 -7.91532e-21 7.67074e-21)
(0.003 7.45055e-21 -3.38544e-20)
(0.003 -6.12982e-21 -1.63696e-20)
(0.003 -4.7472e-21 -1.63353e-20)
(0.003 -1.14592e-20 3.57135e-20)
(0.003 -2.16907e-20 5.19444e-20)
(0.003 6.64511e-21 2.35047e-20)
(0.003 2.59006e-21 -6.35785e-21)
(0.003 2.12722e-20 2.61201e-20)
(0.003 -1.57094e-21 -1.70301e-21)
(0.003 -9.81955e-21 4.27948e-21)
(0.003 6.87666e-21 2.49328e-20)
(0.003 5.50066e-21 1.28543e-20)
(0.003 1.91601e-20 2.98258e-20)
(0.003 -1.21901e-20 3.24566e-20)
(0.003 -1.66004e-20 1.42863e-20)
(0.003 2.97652e-21 1.18609e-21)
(0.003 2.91308e-21 -1.58244e-21)
(0.003 -2.73936e-20 -1.52934e-21)
(0.003 -7.92217e-21 -8.90491e-21)
(0.003 1.50719e-21 -1.48686e-20)
(0.003 2.86206e-21 -2.65501e-20)
(0.003 -6.80625e-20 -2.33467e-20)
(0.003 -1.9906e-20 3.9661e-21)
(0.003 2.97658e-20 1.38669e-20)
(0.003 1.75842e-20 3.11477e-20)
(0.003 3.63481e-20 4.50548e-20)
(0.003 1.39192e-20 1.57248e-20)
(0.003 1.92619e-21 -1.30893e-21)
(0.003 2.70657e-21 -2.02137e-21)
(0.003 -2.6287e-20 -1.02471e-20)
(0.003 7.3515e-21 3.05627e-20)
(0.003 5.15127e-20 9.10669e-21)
(0.003 -2.0321e-20 -2.63017e-20)
(0.003 3.7653e-21 -2.61753e-20)
(0.003 3.74628e-21 -4.75066e-20)
(0.003 8.57033e-21 -2.14648e-20)
(0.003 -1.55017e-20 -5.49142e-21)
(0.003 -2.21714e-20 1.29773e-20)
(0.003 -1.44478e-20 -1.72234e-20)
(0.003 1.11452e-20 -1.25951e-20)
(0.003 5.43328e-21 -1.57632e-20)
(0.003 -1.95457e-20 1.81572e-21)
(0.003 7.66802e-21 2.11171e-20)
(0.003 -1.54183e-21 2.44839e-20)
(0.003 2.96512e-22 2.64222e-20)
(0.003 1.38238e-20 2.85744e-20)
(0.003 8.83253e-21 8.93792e-21)
(0.003 1.37428e-20 7.99445e-21)
(0.003 -2.71283e-21 1.47773e-20)
(0.003 -1.02238e-20 -2.80924e-22)
(0.003 1.14644e-21 7.81888e-21)
(0.003 1.86437e-20 -8.30569e-22)
(0.003 -4.31545e-22 5.14623e-20)