/*--------------------------------*- C++ -*----------------------------------*\
| =========                 |                                                 |
| \\      /  F ield         | OpenFOAM: The Open Source CFD Toolbox           |
|  \\    /   O peration     | Version:  v2012                                 |
|   \\  /    A nd           | Website:  www.openfoam.com                      |
|    \\/     M anipulation  |                                                 |
\*---------------------------------------------------------------------------*/
FoamFile
{
    version     2.0;
    format      ascii;
    class       volScalarField;
    location    "130/leftSolid";
    object      T;
}
// * * * * * * * * * * * * * * * * * * * * * * * * * * * * * * * * * * * * * //

dimensions      [0 0 0 1 0 0 0];


internalField   nonuniform List<scalar> 
130
(
654.65755
654.61723
654.52913
654.39273
654.21633
654.03942
653.8474
653.63449
653.40079
653.15423
652.92307
652.73888
652.62993
654.68751
654.64848
654.567
654.43667
654.26375
654.08204
653.87531
653.63908
653.37001
653.08385
652.82763
652.62782
652.51345
654.69124
654.65741
654.58807
654.4747
654.32127
654.14074
653.91716
653.65109
653.33035
652.9676
652.66915
652.45203
652.33062
654.66102
654.64329
654.59573
654.51513
654.39055
654.21054
653.96871
653.67301
653.31224
652.89898
652.51177
652.22521
652.06176
654.68039
654.67027
654.6277
654.56005
654.44742
654.27312
654.02512
653.71018
653.33619
652.90826
652.44914
652.04552
651.82759
654.68667
654.67703
654.6331
654.56156
654.44952
654.26762
654.01644
653.70446
653.33897
652.91372
652.44491
651.99771
651.76862
654.67519
654.65786
654.60918
654.52677
654.39796
654.20552
653.95358
653.65452
653.3066
652.90308
652.4617
652.13644
651.96739
654.70003
654.6647
654.58026
654.45811
654.30025
654.08974
653.85253
653.59615
653.30336
652.96768
652.61621
652.35097
652.21989
654.72162
654.67411
654.57518
654.42255
654.22481
654.01464
653.79831
653.56342
653.3035
653.0163
652.72908
652.49721
652.36788
654.70599
654.65739
654.55224
654.39158
654.17522
653.9501
653.73028
653.50223
653.25877
653.01123
652.76654
652.56566
652.44258
)
;

boundaryField
{
    minX
    {
        type            zeroGradient;
    }
    minZ
    {
        type            zeroGradient;
    }
    maxZ
    {
        type            zeroGradient;
    }
    leftSolid_to_bottomWater
    {
        type            compressible::turbulentTemperatureCoupledBaffleMixed;
        refValue        nonuniform List<scalar> 
130
(
1007.1388
1007.1517
1006.2683
1004.4808
999.34717
999.59617
999.52558
999.55537
999.3539
997.88714
995.52208
993.23912
990.25692
1009.49
1008.9777
1008.7219
1006.9688
1002.2462
1002.3815
1001.8074
1001.583
999.79267
996.29778
994.08823
991.20506
988.67432
1009.5663
1008.4624
1008.0865
1006.3966
1004.2044
1004.9574
1004.107
1004.5649
1001.6167
989.89063
989.82842
990.18425
989.06481
1003.8391
1004.8207
1005.3906
1006.6945
1007.6623
1007.2453
1005.3634
1004.9394
1001.7926
992.15957
983.87779
983.24656
979.58623
1005.4408
1007.3831
1006.8329
1009.0676
1010.4313
1011.2953
1009.3969
1006.6053
1004.3729
1000.6237
988.63919
973.36564
968.54375
1005.7271
1007.713
1006.5701
1007.8428
1010.8796
1010.2369
1008.5581
1006.7091
1006.4506
1003.65
995.21985
968.14674
963.7316
1004.914
1005.8985
1006.608
1008.292
1009.8082
1009.0649
1006.7118
1005.122
1003.814
999.99431
981.1612
978.3
977.33002
1009.2591
1009.4798
1006.5165
1004.534
1005.5395
1001.7551
1000.4404
1002.3028
1003.129
1001.2366
991.40439
986.13752
987.29435
1011.727
1010.8205
1009.7146
1006.6586
1001.2533
1000.1559
1001.5043
1002.0369
1002.2923
999.53475
993.99221
988.54063
985.0964
1009.3971
1009.2666
1007.8074
1006.1731
999.35784
995.90409
995.82581
995.7971
994.80014
994.8982
991.73605
989.10679
984.88728
)
;
        refGradient     uniform 0;
        valueFraction   nonuniform List<scalar> 
130
(
0.0075140686
0.0075140686
0.0075140686
0.0075140686
0.0075140686
0.0075140686
0.0075140686
0.0075140686
0.0075140686
0.0075140686
0.0075140686
0.0075140686
0.0075140686
0.0075140686
0.0075140686
0.0075140686
0.0075140686
0.0075140686
0.0075140686
0.0075140686
0.0075140686
0.0075140686
0.0075140686
0.0075140686
0.0075140686
0.0075140686
0.0075140686
0.0075140686
0.0075140686
0.0075140686
0.0075140686
0.0075140686
0.0075140686
0.0075140686
0.0075140686
0.0075140686
0.0075140686
0.0075140686
0.0075140686
0.0075140686
0.0075140686
0.0075140686
0.0075140686
0.0075140686
0.0075140686
0.0075140686
0.0075140686
0.0075140686
0.0075140686
0.0075140686
0.0075140686
0.0075140686
0.0075140686
0.0075140686
0.0075140686
0.0075140686
0.0075140686
0.0075140686
0.0075140686
0.0075140686
0.0075140686
0.0075140686
0.0075140686
0.0075140686
0.0075140686
0.0075140686
0.0075140686
0.0075140686
0.0075140686
0.0075140686
0.0075140686
0.0075140686
0.0075140686
0.0075140686
0.0075140686
0.0075140686
0.0075140686
0.0075140686
0.0075140686
0.0075140686
0.0075140686
0.0075140686
0.0075140686
0.0075140686
0.0075140686
0.0075140686
0.0075140686
0.0075140686
0.0075140686
0.0075140686
0.0075140686
0.0075140686
0.0075140686
0.0075140686
0.0075140686
0.0075140686
0.0075140686
0.0075140686
0.0075140686
0.0075140686
0.0075140686
0.0075140686
0.0075140686
0.0075140686
0.0075140686
0.0075140686
0.0075140686
0.0075140686
0.0075140686
0.0075140686
0.0075140686
0.0075140686
0.0075140686
0.0075140686
0.0075140686
0.0075140686
0.0075140686
0.0075140686
0.0075140686
0.0075140686
0.0075140686
0.0075140686
0.0075140686
0.0075140686
0.0075140686
0.0075140686
0.0075140686
0.0075140686
0.0075140686
0.0075140686
)
;
        value           nonuniform List<scalar> 
130
(
657.27876
657.23885
657.14478
656.99597
656.78237
656.60872
656.41767
656.20661
655.97317
655.71743
655.47023
655.27025
655.1397
657.32616
657.28358
657.2008
657.05828
656.85119
656.67191
656.46246
656.22633
655.94587
655.63559
655.36468
655.1447
655.01215
657.33042
657.28856
657.21694
657.09173
656.92297
656.74947
656.5212
656.26058
655.92015
655.47199
655.1753
654.96248
654.83358
657.25744
657.24721
657.20429
657.13409
657.01774
656.83597
656.58181
656.28518
655.90348
655.42093
654.97437
654.68522
654.49551
657.28873
657.29327
657.24686
657.19648
657.09496
656.92849
656.66813
656.33461
655.94667
655.49378
654.94808
654.43263
654.18009
657.2971
657.30247
657.25029
657.18883
657.10044
656.91509
656.65319
656.32966
655.96495
655.52183
654.99319
654.34595
654.08542
657.27954
657.26976
657.22679
657.15767
657.04123
656.84465
656.57691
656.26814
655.91298
655.48374
654.90421
654.55999
654.38496
657.33676
657.30338
657.19734
657.06127
656.91219
656.67482
656.42949
656.18904
655.90466
655.55725
655.13458
654.83186
654.71051
657.37675
657.3228
657.21633
657.04194
656.80513
656.58834
656.38379
656.15467
655.89863
655.59286
655.26621
654.99517
654.84098
657.34375
657.29455
657.17926
657.00758
656.74171
656.49239
656.27368
656.04716
655.79803
655.55312
655.28655
655.06743
654.91357
)
;
        Tnbr            T;
        thicknessLayers List<scalar> 0();
        kappaLayers     List<scalar> 0();
        kappaMethod     solidThermo;
        kappa           none;
        alphaAni        none;
        alpha           none;
        field           T;
    }
    leftSolid_to_heater
    {
        type            compressible::turbulentTemperatureCoupledBaffleMixed;
        refValue        nonuniform List<scalar> 10(607.72901 601.97851 589.70287 569.22331 538.69451 538.66744 569.15766 589.62279 601.88853 607.59194);
        refGradient     uniform 0;
        valueFraction   nonuniform List<scalar> 10(2.08329e-05 2.08329e-05 2.08329e-05 2.08329e-05 2.08329e-05 2.08329e-05 2.08329e-05 2.08329e-05 2.08329e-05 2.08329e-05);
        value           nonuniform List<scalar> 10(652.6016 652.48496 652.30182 652.03253 651.7977 651.73875 651.93823 652.19123 652.33958 652.41442);
        Tnbr            T;
        thicknessLayers List<scalar> 1(0.001);
        kappaLayers     List<scalar> 1(0.0005);
        kappaMethod     solidThermo;
        kappa           none;
        alphaAni        none;
        alpha           none;
        field           T;
    }
    leftSolid_to_topAir
    {
        type            compressible::turbulentTemperatureCoupledBaffleMixed;
        refValue        nonuniform List<scalar> 
130
(
314.55226
328.16558
340.53343
351.92907
362.59995
372.71843
382.39568
391.66368
400.39327
408.47602
415.88844
422.57205
428.38478
314.55066
328.01492
340.09771
351.07469
361.18
370.55324
379.2674
387.33563
394.71601
401.3078
406.95479
411.48343
414.6755
314.55017
328.04294
340.16273
351.18522
361.34978
370.80262
379.62544
387.85699
395.51117
402.56514
408.962
414.6126
419.34264
314.54913
328.05029
340.19158
351.25151
361.47601
371.02426
380.00029
388.47842
396.5155
404.15717
411.44486
418.41837
425.04092
314.54971
328.05502
340.20446
351.27665
361.51833
371.09052
380.09979
388.62382
396.72407
404.45191
411.85043
418.95667
425.57757
314.54996
328.05555
340.20524
351.27757
361.5195
371.09177
380.10118
388.62572
396.72715
404.45659
411.85636
418.96029
425.57853
314.54969
328.05142
340.19322
351.25366
361.47862
371.02703
380.00308
388.48144
396.51965
404.16333
411.45171
418.42448
425.0426
314.55052
328.04351
340.16285
351.18451
361.34802
370.79858
379.61855
387.84761
395.4998
402.55231
408.94466
414.58754
419.30927
314.55203
328.01725
340.10027
351.07664
361.18044
370.55109
379.26226
387.32732
394.70518
401.29445
406.93715
411.4595
414.64355
314.55422
328.16913
340.53791
351.93368
362.60331
372.71887
382.39235
391.65626
400.38177
408.46094
415.86964
422.54912
428.35707
)
;
        refGradient     uniform 0;
        valueFraction   nonuniform List<scalar> 
130
(
0.00032132529
0.00032132529
0.00032132529
0.00032132529
0.00032132529
0.00032132529
0.00032132529
0.00032132529
0.00032132529
0.00032132529
0.00032132529
0.00032132529
0.00032132529
0.00032132529
0.00032132529
0.00032132529
0.00032132529
0.00032132529
0.00032132529
0.00032132529
0.00032132529
0.00032132529
0.00032132529
0.00032132529
0.00032132529
0.00032132529
0.00032132529
0.00032132529
0.00032132529
0.00032132529
0.00032132529
0.00032132529
0.00032132529
0.00032132529
0.00032132529
0.00032132529
0.00032132529
0.00032132529
0.00032132529
0.00032132529
0.00032132529
0.00032132529
0.00032132529
0.00032132529
0.00032132529
0.00032132529
0.00032132529
0.00032132529
0.00032132529
0.00032132529
0.00032132529
0.00032132529
0.00032132529
0.00032132529
0.00032132529
0.00032132529
0.00032132529
0.00032132529
0.00032132529
0.00032132529
0.00032132529
0.00032132529
0.00032132529
0.00032132529
0.00032132529
0.00032132529
0.00032132529
0.00032132529
0.00032132529
0.00032132529
0.00032132529
0.00032132529
0.00032132529
0.00032132529
0.00032132529
0.00032132529
0.00032132529
0.00032132529
0.00032132529
0.00032132529
0.00032132529
0.00032132529
0.00032132529
0.00032132529
0.00032132529
0.00032132529
0.00032132529
0.00032132529
0.00032132529
0.00032132529
0.00032132529
0.00032132529
0.00032132529
0.00032132529
0.00032132529
0.00032132529
0.00032132529
0.00032132529
0.00032132529
0.00032132529
0.00032132529
0.00032132529
0.00032132529
0.00032132529
0.00032132529
0.00032132529
0.00032132529
0.00032132529
0.00032132529
0.00032132529
0.00032132529
0.00032132529
0.00032132529
0.00032132529
0.00032132529
0.00032132529
0.00032132529
0.00032132529
0.00032132529
0.00032132529
0.00032132529
0.00032132529
0.00032132529
0.00032132529
0.00032132529
0.00032132529
0.00032132529
0.00032132529
0.00032132529
0.00032132529
)
;
        value           nonuniform List<scalar> 
130
(
654.52071
654.48479
654.40069
654.268
654.09513
653.92159
653.7328
653.52296
653.29216
653.04827
652.81956
652.63756
652.53049
654.55066
654.51598
654.43841
654.31165
654.14205
653.96346
653.75964
653.52609
653.25951
652.97556
652.72122
652.52292
652.40959
654.55437
654.5249
654.4595
654.34971
654.19959
654.02217
653.80152
653.53818
653.22006
652.85967
652.56336
652.34812
652.22827
654.5242
654.51081
654.46717
654.39014
654.26892
654.09204
653.85318
653.56033
653.20227
652.79158
652.4068
652.12257
651.96132
654.5436
654.53782
654.49913
654.43504
654.32575
654.15461
653.90962
653.59755
653.2263
652.80099
652.34442
651.94312
651.72737
654.54987
654.54459
654.50457
654.4366
654.32788
654.14912
653.90093
653.59178
653.229
652.80634
652.34005
651.89531
651.66843
654.53833
654.52537
654.48062
654.40181
654.27633
654.08702
653.83804
653.54178
653.19653
652.79554
652.3567
652.03387
651.86705
654.56309
654.53212
654.45164
654.33313
654.17863
653.97121
653.73688
653.48325
653.19301
652.85967
652.5104
652.24717
652.1177
654.58469
654.54153
654.44654
654.29755
654.10317
653.89613
653.68269
653.45048
653.19301
652.90802
652.62276
652.39247
652.26425
654.56908
654.52488
654.42377
654.26689
654.05409
653.83236
653.61577
653.3908
653.15022
652.90538
652.66319
652.46453
652.34336
)
;
        Tnbr            T;
        thicknessLayers List<scalar> 0();
        kappaLayers     List<scalar> 0();
        kappaMethod     solidThermo;
        kappa           none;
        alphaAni        none;
        alpha           none;
        field           T;
    }
}


// ************************************************************************* //
