/*--------------------------------*- C++ -*----------------------------------*\
| =========                 |                                                 |
| \\      /  F ield         | OpenFOAM: The Open Source CFD Toolbox           |
|  \\    /   O peration     | Version:  v2012                                 |
|   \\  /    A nd           | Website:  www.openfoam.com                      |
|    \\/     M anipulation  |                                                 |
\*---------------------------------------------------------------------------*/
FoamFile
{
    version     2.0;
    format      ascii;
    class       volScalarField;
    location    "250/bottomWater";
    object      p;
}
// * * * * * * * * * * * * * * * * * * * * * * * * * * * * * * * * * * * * * //

dimensions      [1 -1 -2 0 0 0 0];


internalField   nonuniform List<scalar> 
1460
(
353.41485
353.42195
353.42572
353.41431
353.41286
353.41686
353.42189
353.40955
353.43009
353.43335
353.42315
353.43144
353.42151
353.42396
353.43657
353.43484
353.44494
353.44018
353.43732
353.4386
353.44281
353.45137
353.44365
353.4417
353.4481
353.44499
353.44272
353.43428
353.42817
353.42916
274.47322
274.49771
274.5078
274.46611
274.45355
274.4533
274.45326
274.45504
274.49702
274.49036
274.45045
274.44652
274.43651
274.46365
274.49007
274.50149
274.48776
274.45093
274.43498
274.47866
274.47475
274.46831
274.42543
274.44501
274.47924
274.50414
274.50809
274.49018
274.46722
274.46177
196.28685
196.25677
196.25249
196.26339
196.2676
196.29249
196.27699
196.256
196.2388
196.26143
196.27077
196.29617
196.2709
196.26236
196.25596
196.2613
196.25165
196.25566
196.27251
196.27988
196.25312
196.26064
196.25956
196.27138
196.23728
196.26488
196.2573
196.26568
196.26491
196.28012
117.69937
117.68767
117.67765
117.6746
117.67771
117.69216
117.70584
117.67655
117.68925
117.69202
117.65493
117.69229
117.68339
117.63528
117.67422
117.66449
117.69041
117.63977
117.69196
117.67554
117.67744
117.61246
117.67946
117.62884
117.66285
117.66768
117.70287
117.6695
117.64547
117.64328
39.237524
39.226026
39.229445
39.230772
39.23447
39.243396
39.24396
39.241603
39.23728
39.234737
39.255272
39.259877
39.252821
39.253248
39.238136
39.226453
39.232931
39.232037
39.236482
39.22631
39.22053
39.247602
39.24484
39.252281
39.239444
39.230795
39.239102
39.231882
39.257349
39.27637
353.42182
353.42165
353.43514
353.42741
353.41103
353.41782
353.42138
353.41992
353.41761
353.42078
353.41446
353.43641
353.42581
353.41872
353.44505
353.42613
353.44867
353.43919
353.44203
353.43571
353.44411
353.44979
353.44501
353.44361
353.44566
353.44138
353.43228
353.4224
353.42713
353.4295
274.46303
274.47041
274.53724
274.49192
274.4506
274.4467
274.44479
274.44755
274.47079
274.46186
274.46482
274.48298
274.44289
274.45916
274.48454
274.48967
274.49469
274.4414
274.41669
274.43882
274.44175
274.43856
274.41568
274.41459
274.44535
274.47719
274.46278
274.43922
274.43417
274.43732
196.2785
196.24318
196.23828
196.22951
196.23763
196.26378
196.27989
196.27542
196.27289
196.26914
196.27396
196.24355
196.26753
196.27653
196.24967
196.27023
196.2373
196.24949
196.26383
196.29846
196.24649
196.27703
196.28331
196.27646
196.24338
196.25286
196.25558
196.28039
196.28169
196.30892
117.68118
117.66005
117.65881
117.65646
117.6532
117.6824
117.6863
117.67644
117.6563
117.67742
117.65
117.65883
117.67909
117.65367
117.68345
117.64326
117.6582
117.6274
117.67954
117.65298
117.65699
117.60761
117.68094
117.65254
117.63099
117.63785
117.65615
117.66623
117.67297
117.67863
39.23318
39.232045
39.249385
39.248571
39.240233
39.248304
39.253358
39.247117
39.251456
39.240753
39.269869
39.259999
39.241718
39.236277
39.227019
39.232605
39.248957
39.247807
39.250994
39.231668
39.233592
39.263474
39.261807
39.257078
39.251629
39.236168
39.234565
39.248784
39.251884
39.261399
353.4206
353.41175
353.43919
353.41932
353.42063
353.4167
353.40943
353.4093
353.41303
353.41584
353.41692
353.42188
353.41996
353.41024
353.42529
353.43743
353.44277
353.43952
353.43948
353.44364
353.42893
353.45039
353.44341
353.44766
353.43759
353.43661
353.42829
353.42814
353.43397
353.43107
274.45418
274.45891
274.49234
274.45745
274.44545
274.44516
274.45608
274.45843
274.45222
274.44419
274.44332
274.44412
274.44421
274.45099
274.47145
274.50724
274.46253
274.41925
274.42085
274.4312
274.43582
274.4528
274.40885
274.4085
274.40509
274.4405
274.43083
274.4364
274.43354
274.43714
196.28169
196.2623
196.24002
196.27009
196.27441
196.28632
196.26759
196.27248
196.26678
196.28559
196.28246
196.30018
196.27406
196.26696
196.24355
196.23269
196.23392
196.25166
196.29618
196.29371
196.27159
196.25203
196.28765
196.32869
196.2692
196.2808
196.27005
196.28629
196.29827
196.32029
117.68314
117.64982
117.65826
117.65358
117.6872
117.68576
117.65067
117.65598
117.67575
117.69206
117.68517
117.68875
117.68434
117.67369
117.67087
117.65076
117.65547
117.65025
117.68777
117.68842
117.6491
117.64291
117.67723
117.68304
117.67611
117.6374
117.65076
117.66846
117.68036
117.6762
39.240659
39.246814
39.270566
39.265583
39.254043
39.253184
39.263624
39.271009
39.245484
39.243385
39.248201
39.253127
39.246057
39.245254
39.2297
39.242002
39.251195
39.252265
39.272448
39.2426
39.253159
39.267665
39.268663
39.284974
39.264241
39.264745
39.248665
39.245088
39.259034
39.262169
353.41922
353.41722
353.41859
353.41798
353.41517
353.42058
353.42996
353.43577
353.42015
353.41327
353.41242
353.41922
353.42692
353.41194
353.42778
353.4334
353.43531
353.43971
353.43814
353.43767
353.42904
353.45169
353.44614
353.44709
353.44772
353.45111
353.44148
353.41761
353.42011
353.42151
274.44635
274.43589
274.45828
274.44128
274.45361
274.46329
274.50659
274.51332
274.4723
274.45662
274.45207
274.44313
274.4431
274.44843
274.45861
274.46816
274.42451
274.42525
274.42527
274.42491
274.43529
274.45452
274.4269
274.40938
274.41285
274.47684
274.48968
274.45144
274.45622
274.45873
196.31016
196.28091
196.27048
196.26876
196.24528
196.22781
196.22979
196.22673
196.24149
196.26527
196.27268
196.28214
196.29618
196.26745
196.24693
196.25775
196.26494
196.30808
196.29928
196.27543
196.27436
196.25693
196.27202
196.28455
196.26677
196.23593
196.2175
196.2845
196.31929
196.31968
117.68637
117.68671
117.6497
117.69184
117.64537
117.65675
117.65518
117.65208
117.64933
117.65956
117.6658
117.67743
117.69611
117.66258
117.65229
117.64728
117.66987
117.68602
117.68602
117.68081
117.64861
117.64452
117.62387
117.6749
117.65866
117.63906
117.64116
117.65917
117.6686
117.65333
39.256833
39.24755
39.260616
39.243645
39.235831
39.232884
39.231318
39.249409
39.240614
39.229321
39.232677
39.233834
39.235781
39.232835
39.243426
39.261606
39.257305
39.272344
39.264982
39.262096
39.243123
39.25832
39.268877
39.273115
39.259016
39.251601
39.240769
39.222942
39.232383
39.246472
353.41465
353.40636
353.42429
353.41398
353.41536
353.42958
353.42718
353.43368
353.4307
353.43335
353.43284
353.42655
353.42779
353.43618
353.42936
353.42699
353.43033
353.43071
353.45302
353.45445
353.45456
353.45935
353.4525
353.44215
353.44802
353.42956
274.45096
274.45221
274.4885
274.44587
274.46308
274.49394
274.50933
274.51583
274.51421
274.50167
274.47912
274.4454
274.43868
274.42525
274.42793
274.44101
274.44288
274.45352
274.46006
274.40897
274.40902
274.4367
274.49375
274.48551
274.47275
274.4555
196.28285
196.26744
196.25082
196.27043
196.25391
196.25514
196.27213
196.26726
196.25904
196.25806
196.25011
196.25237
196.27669
196.28675
196.26517
196.26567
196.28405
196.28295
196.22147
196.29837
196.25807
196.22922
196.22518
196.24292
196.25397
196.3042
117.68499
117.65293
117.66383
117.68479
117.66314
117.6919
117.68797
117.67649
117.68308
117.68932
117.68302
117.6608
117.68541
117.67265
117.64027
117.64879
117.6554
117.63947
117.64734
117.66362
117.67849
117.62895
117.64866
117.655
117.6906
117.69536
39.253898
39.258654
39.248199
39.229071
39.223884
39.220728
39.221477
39.230374
39.234543
39.227987
39.225191
39.236085
39.239738
39.25466
39.253002
39.259504
39.22568
39.251466
39.25954
39.260432
39.261748
39.251615
39.238077
39.208352
39.217248
39.234755
353.41984
353.40632
353.44361
353.41802
353.41815
353.43498
353.44038
353.43569
353.43352
353.43538
353.43224
353.43166
353.42607
353.44739
353.44826
353.44797
353.45301
353.44555
353.46009
353.44655
353.45063
353.45722
353.45012
353.44184
353.41853
353.42811
274.45311
274.44917
274.49632
274.45858
274.46833
274.49983
274.51425
274.49252
274.49386
274.49364
274.4741
274.46301
274.44163
274.44675
274.47168
274.48868
274.49463
274.48217
274.49645
274.43671
274.4204
274.42173
274.47811
274.48854
274.4458
274.45066
196.28001
196.26188
196.23552
196.27227
196.25944
196.25175
196.25475
196.26837
196.26441
196.2578
196.27248
196.25929
196.29012
196.26087
196.22683
196.2452
196.2424
196.26716
196.23125
196.25696
196.27009
196.26836
196.22266
196.22322
196.25965
196.29177
117.69076
117.65394
117.66237
117.67936
117.65517
117.69744
117.70034
117.67436
117.66888
117.65683
117.64799
117.6364
117.66918
117.66697
117.65629
117.67782
117.69358
117.65206
117.6469
117.62843
117.68839
117.65905
117.65114
117.66215
117.64871
117.68687
39.251099
39.255838
39.257347
39.240416
39.224316
39.226125
39.22988
39.223589
39.22907
39.227655
39.242537
39.254802
39.242764
39.23888
39.243978
39.232064
39.225919
39.21622
39.247948
39.260827
39.261694
39.253082
39.242257
39.243024
39.228885
39.229852
353.41973
353.41728
353.4257
353.41484
353.43672
353.44148
353.43153
353.43377
353.43136
353.44634
353.43052
353.44087
353.43489
353.43471
353.43644
353.43829
353.44366
353.45435
353.45402
353.45496
353.45919
353.45213
353.45313
353.45054
353.4478
353.45415
353.44918
353.45557
353.43908
353.43253
274.44138
274.43637
274.44371
274.44498
274.48543
274.49532
274.44725
274.44031
274.45074
274.45819
274.45113
274.42423
274.4286
274.42625
274.42439
274.42409
274.43821
274.46265
274.47871
274.49264
274.50963
274.50369
274.48841
274.44756
274.421
274.41407
274.41292
274.48732
274.46842
274.44854
196.29117
196.27713
196.26179
196.24409
196.22146
196.25649
196.27488
196.27173
196.28502
196.26133
196.28346
196.29013
196.29957
196.28746
196.28027
196.26466
196.24765
196.23116
196.24853
196.25158
196.25001
196.26091
196.23633
196.23895
196.26865
196.2844
196.24686
196.23049
196.23009
196.26847
117.67905
117.6818
117.67619
117.65929
117.6558
117.67853
117.65968
117.65072
117.64195
117.63218
117.65046
117.68747
117.68671
117.6792
117.66901
117.6716
117.64708
117.66439
117.66372
117.67967
117.7007
117.6777
117.65408
117.64641
117.6645
117.67416
117.64093
117.65342
117.64751
117.66199
39.250769
39.248844
39.242775
39.249169
39.247658
39.228357
39.230236
39.228091
39.260509
39.270702
39.249931
39.259599
39.263518
39.25605
39.247732
39.240846
39.242509
39.247381
39.226517
39.224691
39.233573
39.221024
39.230379
39.25177
39.248522
39.26963
39.24289
39.2536
39.241466
39.233289
353.4184
353.41881
353.42209
353.42184
353.42066
353.42807
353.43063
353.42867
353.42928
353.43295
353.42878
353.4267
353.41959
353.42531
353.44302
353.45365
353.45643
353.46282
353.4614
353.46019
353.45737
353.44981
353.43476
353.43297
353.43885
353.44219
353.43645
353.43245
353.42556
353.42983
274.46904
274.45662
274.44568
274.43856
274.443
274.48381
274.48751
274.44005
274.42934
274.421
274.43312
274.43668
274.43909
274.44971
274.47956
274.475
274.44224
274.40503
274.4073
274.43368
274.47416
274.4735
274.43442
274.43221
274.41774
274.41768
274.41783
274.43582
274.4408
274.4341
196.29043
196.27657
196.29061
196.2842
196.2581
196.25141
196.239
196.27297
196.29455
196.29635
196.28878
196.26594
196.24448
196.23822
196.22722
196.25024
196.27002
196.27727
196.26933
196.23856
196.247
196.25499
196.2608
196.27358
196.29156
196.32725
196.29441
196.2808
196.29248
196.30153
117.63023
117.62183
117.6815
117.68505
117.64643
117.66769
117.65442
117.65162
117.67739
117.68543
117.67919
117.67319
117.65516
117.64605
117.6416
117.67568
117.64899
117.68715
117.67438
117.64453
117.66628
117.66326
117.65612
117.63767
117.6664
117.68009
117.67014
117.64249
117.63508
117.67238
39.274471
39.243671
39.239887
39.261745
39.262722
39.235469
39.252515
39.25634
39.259229
39.265864
39.257108
39.246512
39.241781
39.243262
39.243437
39.236953
39.227071
39.246645
39.247368
39.243099
39.234263
39.225043
39.247435
39.25892
39.255464
39.277951
39.263677
39.283087
39.266249
39.245168
353.41822
353.4334
353.43586
353.43754
353.43977
353.44009
353.43759
353.42365
353.43073
353.43249
353.4214
353.42017
353.43177
353.44033
353.4527
353.45856
353.45378
353.4567
353.4641
353.45467
353.46175
353.43907
353.44314
353.4443
353.44645
353.44867
353.44512
353.44903
353.42881
353.43606
274.47574
274.48068
274.46482
274.43366
274.43056
274.48277
274.47804
274.44459
274.43076
274.43279
274.42833
274.43976
274.48042
274.49192
274.49532
274.4726
274.46061
274.41504
274.40426
274.40765
274.44681
274.43742
274.42037
274.42468
274.43163
274.40993
274.41745
274.46265
274.44389
274.44082
196.286
196.26329
196.24922
196.26519
196.26584
196.23098
196.22541
196.25763
196.28067
196.30087
196.246
196.23275
196.22211
196.24831
196.25546
196.27146
196.25202
196.28582
196.30311
196.27588
196.24499
196.26172
196.27564
196.30218
196.29253
196.29093
196.26496
196.23571
196.26129
196.28197
117.63692
117.6474
117.65306
117.6777
117.68803
117.65947
117.66918
117.64141
117.68586
117.68187
117.66649
117.64747
117.65801
117.67525
117.68785
117.67241
117.63509
117.65859
117.67997
117.65551
117.64713
117.64495
117.68088
117.67702
117.63902
117.67133
117.63992
117.6442
117.6324
117.66838
39.258817
39.225912
39.233325
39.243409
39.257502
39.232079
39.24414
39.264212
39.261288
39.272846
39.256885
39.249074
39.240553
39.226346
39.233522
39.230465
39.247755
39.251751
39.271051
39.255057
39.248459
39.24513
39.233678
39.240927
39.24991
39.25576
39.243157
39.249993
39.229892
39.225472
353.42106
353.43157
353.42759
353.432
353.42698
353.4212
353.42024
353.42192
353.42606
353.42352
353.41133
353.43033
353.42829
353.44185
353.46006
353.45714
353.45984
353.45534
353.46069
353.45905
353.46135
353.46612
353.43138
353.42742
353.44409
353.43459
353.44801
353.44191
353.43681
353.43115
274.48384
274.50314
274.50265
274.49945
274.46958
274.44485
274.44059
274.44214
274.45013
274.44759
274.44683
274.49343
274.50418
274.50613
274.4915
274.41985
274.47335
274.42231
274.40472
274.41238
274.43433
274.47823
274.45598
274.44849
274.46938
274.44337
274.49144
274.51529
274.47842
274.46008
196.28708
196.26704
196.27211
196.23755
196.26174
196.27428
196.28878
196.28914
196.28739
196.272
196.24115
196.22473
196.2549
196.25322
196.26154
196.29243
196.2831
196.29036
196.30368
196.28371
196.26089
196.23749
196.27509
196.30338
196.28474
196.27657
196.24165
196.2585
196.26067
196.29645
117.65765
117.674
117.68155
117.65741
117.67436
117.67956
117.67971
117.6619
117.6454
117.66222
117.65298
117.65949
117.66751
117.69212
117.67597
117.66063
117.65265
117.63843
117.69416
117.68109
117.62232
117.65116
117.63083
117.66391
117.66704
117.64926
117.65884
117.66289
117.67249
117.68884
39.238691
39.223808
39.235483
39.239412
39.229375
39.222876
39.230271
39.248488
39.27841
39.264095
39.25846
39.246493
39.226218
39.23451
39.235266
39.234112
39.265838
39.286069
39.283766
39.269506
39.260818
39.257778
39.249531
39.22766
39.22798
39.245245
39.230232
39.227975
39.216667
39.230984
)
;

boundaryField
{
    minX
    {
        type            calculated;
        value           nonuniform List<scalar> 
50
(
353.41485
274.47322
196.28685
117.69937
39.237524
353.42182
274.46303
196.2785
117.68118
39.23318
353.4206
274.45418
196.28169
117.68314
39.240659
353.41922
274.44635
196.31016
117.68637
39.256833
353.41465
274.45096
196.28285
117.68499
39.253898
353.41984
274.45311
196.28001
117.69076
39.251099
353.41973
274.44138
196.29117
117.67905
39.250769
353.4184
274.46904
196.29043
117.63023
39.274471
353.41822
274.47574
196.286
117.63692
39.258817
353.42106
274.48384
196.28708
117.65765
39.238691
)
;
    }
    maxX
    {
        type            calculated;
        value           nonuniform List<scalar> 
50
(
353.42916
274.46177
196.28012
117.64328
39.27637
353.4295
274.43732
196.30892
117.67863
39.261399
353.43107
274.43714
196.32029
117.6762
39.262169
353.42151
274.45873
196.31968
117.65333
39.246472
353.42956
274.4555
196.3042
117.69536
39.234755
353.42811
274.45066
196.29177
117.68687
39.229852
353.43253
274.44854
196.26847
117.66199
39.233289
353.42983
274.4341
196.30153
117.67238
39.245168
353.43606
274.44082
196.28197
117.66838
39.225472
353.43115
274.46008
196.29645
117.68884
39.230984
)
;
    }
    minY
    {
        type            calculated;
        value           nonuniform List<scalar> 
292
(
392.4
392.4
392.4
392.4
392.4
392.4
392.4
392.4
392.4
392.4
392.4
392.4
392.4
392.4
392.4
392.4
392.4
392.4
392.4
392.4
392.4
392.4
392.4
392.4
392.4
392.4
392.4
392.4
392.4
392.4
392.4
392.4
392.4
392.4
392.4
392.4
392.4
392.4
392.4
392.4
392.4
392.4
392.4
392.4
392.4
392.4
392.4
392.4
392.4
392.4
392.4
392.4
392.4
392.4
392.4
392.4
392.4
392.4
392.4
392.4
392.4
392.4
392.4
392.4
392.4
392.4
392.4
392.4
392.4
392.4
392.4
392.4
392.4
392.4
392.4
392.4
392.4
392.4
392.4
392.4
392.4
392.4
392.4
392.4
392.4
392.4
392.4
392.4
392.4
392.4
392.4
392.4
392.4
392.4
392.4
392.4
392.4
392.4
392.4
392.4
392.4
392.4
392.4
392.4
392.4
392.4
392.4
392.4
392.4
392.4
392.4
392.4
392.4
392.4
392.4
392.4
392.4
392.4
392.4
392.4
392.4
392.4
392.4
392.4
392.4
392.4
392.4
392.4
392.4
392.4
392.4
392.4
392.4
392.4
392.4
392.4
392.4
392.4
392.4
392.4
392.4
392.4
392.4
392.4
392.4
392.4
392.4
392.4
392.4
392.4
392.4
392.4
392.4
392.4
392.4
392.4
392.4
392.4
392.4
392.4
392.4
392.4
392.4
392.4
392.4
392.4
392.4
392.4
392.4
392.4
392.4
392.4
392.4
392.4
392.4
392.4
392.4
392.4
392.4
392.4
392.4
392.4
392.4
392.4
392.4
392.4
392.4
392.4
392.4
392.4
392.4
392.4
392.4
392.4
392.4
392.4
392.4
392.4
392.4
392.4
392.4
392.4
392.4
392.4
392.4
392.4
392.4
392.4
392.4
392.4
392.4
392.4
392.4
392.4
392.4
392.4
392.4
392.4
392.4
392.4
392.4
392.4
392.4
392.4
392.4
392.4
392.4
392.4
392.4
392.4
392.4
392.4
392.4
392.4
392.4
392.4
392.4
392.4
392.4
392.4
392.4
392.4
392.4
392.4
392.4
392.4
392.4
392.4
392.4
392.4
392.4
392.4
392.4
392.4
392.4
392.4
392.4
392.4
392.4
392.4
392.4
392.4
392.4
392.4
392.4
392.4
392.4
392.4
392.4
392.4
392.4
392.4
392.4
392.4
392.4
392.4
392.4
392.4
392.4
392.4
392.4
392.4
392.4
392.4
392.4
392.4
392.4
392.4
392.4
392.4
392.4
392.4
)
;
    }
    minZ
    {
        type            calculated;
        value           nonuniform List<scalar> 
150
(
353.41485
274.47322
196.28685
117.69937
39.237524
353.42195
274.49771
196.25677
117.68767
39.226026
353.42572
274.5078
196.25249
117.67765
39.229445
353.41431
274.46611
196.26339
117.6746
39.230772
353.41286
274.45355
196.2676
117.67771
39.23447
353.41686
274.4533
196.29249
117.69216
39.243396
353.42189
274.45326
196.27699
117.70584
39.24396
353.40955
274.45504
196.256
117.67655
39.241603
353.43009
274.49702
196.2388
117.68925
39.23728
353.43335
274.49036
196.26143
117.69202
39.234737
353.42315
274.45045
196.27077
117.65493
39.255272
353.43144
274.44652
196.29617
117.69229
39.259877
353.42151
274.43651
196.2709
117.68339
39.252821
353.42396
274.46365
196.26236
117.63528
39.253248
353.43657
274.49007
196.25596
117.67422
39.238136
353.43484
274.50149
196.2613
117.66449
39.226453
353.44494
274.48776
196.25165
117.69041
39.232931
353.44018
274.45093
196.25566
117.63977
39.232037
353.43732
274.43498
196.27251
117.69196
39.236482
353.4386
274.47866
196.27988
117.67554
39.22631
353.44281
274.47475
196.25312
117.67744
39.22053
353.45137
274.46831
196.26064
117.61246
39.247602
353.44365
274.42543
196.25956
117.67946
39.24484
353.4417
274.44501
196.27138
117.62884
39.252281
353.4481
274.47924
196.23728
117.66285
39.239444
353.44499
274.50414
196.26488
117.66768
39.230795
353.44272
274.50809
196.2573
117.70287
39.239102
353.43428
274.49018
196.26568
117.6695
39.231882
353.42817
274.46722
196.26491
117.64547
39.257349
353.42916
274.46177
196.28012
117.64328
39.27637
)
;
    }
    maxZ
    {
        type            calculated;
        value           nonuniform List<scalar> 
150
(
353.42106
274.48384
196.28708
117.65765
39.238691
353.43157
274.50314
196.26704
117.674
39.223808
353.42759
274.50265
196.27211
117.68155
39.235483
353.432
274.49945
196.23755
117.65741
39.239412
353.42698
274.46958
196.26174
117.67436
39.229375
353.4212
274.44485
196.27428
117.67956
39.222876
353.42024
274.44059
196.28878
117.67971
39.230271
353.42192
274.44214
196.28914
117.6619
39.248488
353.42606
274.45013
196.28739
117.6454
39.27841
353.42352
274.44759
196.272
117.66222
39.264095
353.41133
274.44683
196.24115
117.65298
39.25846
353.43033
274.49343
196.22473
117.65949
39.246493
353.42829
274.50418
196.2549
117.66751
39.226218
353.44185
274.50613
196.25322
117.69212
39.23451
353.46006
274.4915
196.26154
117.67597
39.235266
353.45714
274.41985
196.29243
117.66063
39.234112
353.45984
274.47335
196.2831
117.65265
39.265838
353.45534
274.42231
196.29036
117.63843
39.286069
353.46069
274.40472
196.30368
117.69416
39.283766
353.45905
274.41238
196.28371
117.68109
39.269506
353.46135
274.43433
196.26089
117.62232
39.260818
353.46612
274.47823
196.23749
117.65116
39.257778
353.43138
274.45598
196.27509
117.63083
39.249531
353.42742
274.44849
196.30338
117.66391
39.22766
353.44409
274.46938
196.28474
117.66704
39.22798
353.43459
274.44337
196.27657
117.64926
39.245245
353.44801
274.49144
196.24165
117.65884
39.230232
353.44191
274.51529
196.2585
117.66289
39.227975
353.43681
274.47842
196.26067
117.67249
39.216667
353.43115
274.46008
196.29645
117.68884
39.230984
)
;
    }
    bottomWater_to_rightSolid
    {
        type            calculated;
        value           nonuniform List<scalar> 
130
(
-0.0079626131
-0.0035184644
-0.013690375
-0.019469887
0.0076016063
0.0048402901
0.012280955
-0.00055572779
-0.0092050349
-0.00089763981
-0.0081184086
0.017348714
0.036369546
0.0078068646
0.010994247
-0.0083316718
-0.0064079914
0.023473548
0.021807041
0.017078187
0.011629393
-0.0038318978
-0.0054350775
0.0087840484
0.011884042
0.021398927
0.012265218
0.032448096
0.0025996611
0.013159313
0.02766505
0.028662897
0.044974113
0.024241496
0.02474481
0.0086653313
0.0050878418
0.019034128
0.022168836
0.032343948
0.024981938
0.02209574
0.0031229302
0.018319902
0.02887724
0.033114928
0.019015952
0.011601067
0.00076892761
-0.017057971
-0.0076167352
0.0064719896
0.014660097
0.013001903
0.019504232
-0.01431961
0.011465844
0.019539723
0.020431907
0.021747656
0.011614993
-0.0019232318
-0.031647896
-0.022752007
-0.0052453765
-0.0011195118
0.0039784581
-0.0079359904
-0.014080758
-0.023779551
0.0079484946
0.02082725
0.021694473
0.013081806
0.0022574806
0.0030244833
-0.011115451
-0.010147525
0.0073807644
-0.013482928
-0.015308827
-0.0064271469
-0.018975913
-0.0096206912
0.011769995
0.0085221697
0.029629818
0.0028902295
0.013599898
0.0014656088
-0.0067106244
0.0066445262
0.0073675792
0.0030994276
-0.0057368892
-0.014956684
0.0074348524
0.01891974
0.015463873
0.037951193
0.023677255
0.043087093
0.026249437
0.0051682351
0.011751387
0.031050827
0.015057371
0.0084592105
0.0051300824
-0.006322243
0.00092657594
0.0099096855
0.015760451
0.0031574209
0.009993161
-0.010107553
-0.014527939
0.046069206
0.043766368
0.029505591
0.020818181
0.017777954
0.0095310032
-0.0123402
-0.01201966
0.0052449789
-0.0097675835
-0.012025396
-0.023332805
-0.009016284
)
;
    }
    bottomWater_to_leftSolid
    {
        type            calculated;
        value           nonuniform List<scalar> 
130
(
-0.0024759211
-0.013974032
-0.010554778
-0.00922838
-0.0055303177
0.0033960957
0.0039599533
0.0016030227
-0.0027201749
-0.0052633375
0.01527212
0.019876846
0.012821464
-0.0068195895
-0.0079551366
0.0093845509
0.0085710044
0.00023344391
0.0083041889
0.013357547
0.0071173828
0.011455846
0.00075318762
0.029869116
0.019999348
0.0017179858
0.00065942603
0.0068138752
0.030565757
0.025583226
0.014042923
0.013184055
0.023624441
0.03100882
0.0054841412
0.0033845294
0.0082012881
0.013126737
0.0060572224
0.016833102
0.0075502422
0.020615797
0.0036453144
-0.0041687039
-0.0071157789
-0.0086821541
0.0094089545
0.00061446881
-0.010679325
-0.0073225333
-0.0061658384
-0.0042189438
0.013897976
0.018653812
0.0081985559
-0.010928877
-0.016115916
-0.019272345
-0.018522812
-0.0096259767
-0.0054569247
-0.012012823
-0.014809187
-0.0039152155
-0.00026216674
0.011098981
0.015838144
0.017347216
0.00041587809
-0.015683879
-0.013875112
-0.010120351
-0.016411468
-0.010929998
-0.012344726
0.0025369964
0.014802293
0.0027642205
0.010769064
0.0088443239
0.0027747872
0.009168842
0.0076577811
-0.011643006
-0.0097639594
-0.011909021
0.020508904
0.03070179
0.0099305054
0.019599143
0.023517515
0.034471248
0.0036712436
-0.00011319965
0.021745058
0.022722277
-0.0045307083
0.012514885
0.016339551
0.019228972
0.025863877
0.017107776
0.0065116564
0.0017814579
0.018817421
-0.014088319
-0.0066747409
0.003408631
0.017501512
-0.0079210526
0.004140121
0.024212315
0.021288232
0.032846464
0.016884605
0.0090740119
0.00055260622
-0.0013090065
-0.016192307
-0.0045165646
-0.0005881721
-0.01062517
-0.017123636
-0.0097286246
0.0084878245
0.038409876
0.024095153
0.018459839
0.0064932895
-0.013781986
)
;
    }
    bottomWater_to_heater
    {
        type            calculated;
        value           nonuniform List<scalar> 
92
(
0.013247866
-0.0018635705
-0.013546536
-0.0070688711
-0.0037230426
-0.012981468
-0.0073949217
0.0089569189
0.0052537428
-0.010300152
0.0020016404
0.011194871
353.41194
353.42778
353.4334
353.43531
274.44843
274.45861
274.46816
274.42451
196.26745
196.24693
196.25775
196.26494
117.66258
117.65229
117.64728
117.66987
-0.0071650083
39.232835
0.003425594
39.243426
0.021605905
39.261606
0.017305482
39.257305
353.42779
353.43618
274.43868
274.42525
196.27669
196.28675
117.68541
117.67265
39.239738
39.25466
353.42607
353.43471
353.43644
353.43829
353.44739
353.44366
274.44163
274.42625
274.42439
274.42409
274.44675
274.43821
196.29012
196.28746
196.28027
196.26466
196.26087
196.24765
117.66918
117.6792
117.66901
117.6716
117.66697
117.64708
39.242764
39.25605
39.247732
39.240846
39.23888
39.242509
0.016049647
0.0077324663
0.00084579006
0.0025094469
0.0032618751
0.0034370308
-0.0030466851
-0.012928835
-0.013654095
-0.0064782512
-0.009535326
0.0077545686
-0.0054902114
-0.0047336121
-0.0058879153
0.025837686
)
;
    }
}


// ************************************************************************* //
