/*--------------------------------*- C++ -*----------------------------------*\
| =========                 |                                                 |
| \\      /  F ield         | OpenFOAM: The Open Source CFD Toolbox           |
|  \\    /   O peration     | Version:  v2012                                 |
|   \\  /    A nd           | Website:  www.openfoam.com                      |
|    \\/     M anipulation  |                                                 |
\*---------------------------------------------------------------------------*/
FoamFile
{
    version     2.0;
    format      ascii;
    class       volScalarField;
    location    "250/bottomWater";
    object      p_rgh;
}
// * * * * * * * * * * * * * * * * * * * * * * * * * * * * * * * * * * * * * //

dimensions      [1 -1 -2 0 0 0 0];


internalField   nonuniform List<scalar> 
1460
(
0.25485391
0.26195378
0.26571963
0.25431432
0.25285769
0.25686089
0.26188932
0.24954715
0.27009358
0.27334612
0.26315437
0.27143966
0.26150574
0.26395853
0.27656835
0.27483664
0.28494427
0.28018157
0.27731932
0.27860253
0.28281418
0.29137298
0.28364718
0.28170466
0.28810166
0.28499105
0.2827203
0.27428133
0.26817358
0.26915855
-0.20677923
-0.18229032
-0.17220165
-0.21389353
-0.22645244
-0.22670196
-0.22673974
-0.22495907
-0.18298218
-0.18964145
-0.22955386
-0.23347868
-0.24348565
-0.21635023
-0.18993172
-0.17850825
-0.19223846
-0.22907357
-0.24502467
-0.20134076
-0.20524825
-0.21168693
-0.25456671
-0.23499329
-0.20075656
-0.17585725
-0.17190965
-0.18982493
-0.21278346
-0.2182281
0.086848609
0.056768052
0.052485435
0.0633917
0.067604073
0.092491807
0.076994427
0.055998549
0.038800868
0.06142584
0.070774986
0.096170321
0.070896842
0.062355445
0.055958089
0.061297548
0.051648093
0.055655969
0.072509738
0.079878355
0.053117115
0.060639815
0.059562639
0.071375448
0.037281027
0.064884511
0.0573001
0.065681172
0.064914889
0.080115473
-0.020632674
-0.032328655
-0.042346979
-0.045396662
-0.042289254
-0.027843859
-0.014164234
-0.043454761
-0.030751655
-0.027984143
-0.065065512
-0.027707818
-0.036609454
-0.084724031
-0.045775061
-0.055505202
-0.029586168
-0.080232742
-0.028040721
-0.044464235
-0.042560188
-0.10753642
-0.040537867
-0.091158717
-0.057146176
-0.052317107
-0.017131481
-0.050504203
-0.074532044
-0.07671963
-0.0024759211
-0.013974032
-0.010554778
-0.00922838
-0.0055303177
0.0033960957
0.0039599533
0.0016030227
-0.0027201749
-0.0052633375
0.01527212
0.019876846
0.012821464
0.013247866
-0.0018635705
-0.013546536
-0.0070688711
-0.0079626131
-0.0035184644
-0.013690375
-0.019469887
0.0076016063
0.0048402901
0.012280955
-0.00055572779
-0.0092050349
-0.00089763981
-0.0081184086
0.017348714
0.036369546
0.26181643
0.26165195
0.2751378
0.26741333
0.25103347
0.25782139
0.26137524
0.25992384
0.2576094
0.26077612
0.25445829
0.27640916
0.26580716
0.25871906
0.2850464
0.26612788
0.288668
0.27919295
0.28202829
0.27571459
0.28410882
0.28978848
0.28501303
0.28361126
0.28565803
0.28137534
0.27228304
0.26239699
0.26712958
0.26950058
-0.21697113
-0.20959444
-0.14276244
-0.18807678
-0.22940209
-0.23329948
-0.23520551
-0.23244751
-0.20920929
-0.21814391
-0.21517967
-0.19702267
-0.23711222
-0.22083881
-0.19546047
-0.19032562
-0.18531134
-0.23860267
-0.263306
-0.24117958
-0.23824839
-0.24144116
-0.26432202
-0.26541334
-0.23465231
-0.20281449
-0.21721869
-0.24077938
-0.24582831
-0.24268149
0.078495328
0.043179832
0.03827912
0.02950583
0.03763097
0.063779946
0.079889023
0.075420498
0.072885139
0.069136151
0.073961978
0.043547778
0.067525756
0.076534601
0.049673493
0.070231794
0.03730093
0.049494045
0.063830016
0.098456266
0.046487576
0.077034671
0.083310237
0.076457628
0.043375578
0.052861967
0.055582923
0.080389785
0.081685406
0.10891944
-0.038822488
-0.059945649
-0.061193788
-0.063541396
-0.066798372
-0.037599861
-0.033697722
-0.043564788
-0.063703925
-0.04258042
-0.070004195
-0.061174164
-0.040912439
-0.066333862
-0.036549654
-0.076736725
-0.061797237
-0.09260003
-0.040459703
-0.067016555
-0.063014163
-0.11239017
-0.039057485
-0.067459222
-0.089012125
-0.082145121
-0.063854412
-0.053769455
-0.047032406
-0.041368078
-0.0068195895
-0.0079551366
0.0093845509
0.0085710044
0.00023344391
0.0083041889
0.013357547
0.0071173828
0.011455846
0.00075318762
0.029869116
0.019999348
0.0017179858
-0.0037230426
-0.012981468
-0.0073949217
0.0089569189
0.0078068646
0.010994247
-0.0083316718
-0.0064079914
0.023473548
0.021807041
0.017078187
0.011629393
-0.0038318978
-0.0054350775
0.0087840484
0.011884042
0.021398927
0.26060414
0.25175059
0.27919478
0.25931551
0.26062516
0.25669878
0.24942672
0.2492978
0.2530339
0.25584147
0.25691866
0.26188313
0.25995559
0.25024231
0.26528999
0.27742576
0.2827708
0.27952166
0.27947721
0.28364387
0.26893114
0.29039406
0.2834106
0.2876623
0.27759488
0.27661396
0.26828979
0.26813904
0.27397391
0.27106937
-0.22581997
-0.22108522
-0.18766384
-0.22254757
-0.23455087
-0.23484205
-0.22391536
-0.22157138
-0.22777937
-0.2358054
-0.23667757
-0.23588387
-0.23579441
-0.22901197
-0.20855232
-0.1727555
-0.21746659
-0.26074678
-0.25915485
-0.24880263
-0.24418296
-0.22720419
-0.27115444
-0.27150338
-0.27490957
-0.23950127
-0.24916856
-0.24360383
-0.24645819
-0.24285957
0.081688596
0.062297538
0.040023788
0.070085097
0.074409262
0.086324142
0.06758574
0.072479972
0.06678232
0.085591608
0.082460419
0.10017823
0.07406008
0.066957207
0.043553249
0.032685787
0.033916758
0.051662677
0.096180376
0.093710051
0.07158933
0.052032993
0.087653313
0.12869165
0.069198719
0.080796728
0.070053368
0.086286939
0.098266052
0.12029077
-0.03686207
-0.070182212
-0.061742922
-0.066418765
-0.03280196
-0.034242281
-0.069330723
-0.064020212
-0.044249167
-0.027935043
-0.034832099
-0.031250153
-0.035661138
-0.046311567
-0.049126608
-0.069243397
-0.064528793
-0.069749063
-0.032226741
-0.031584012
-0.070902257
-0.077091704
-0.04277112
-0.036962204
-0.043891463
-0.082597121
-0.069235376
-0.051537517
-0.039640105
-0.043800155
0.00065942603
0.0068138752
0.030565757
0.025583226
0.014042923
0.013184055
0.023624441
0.03100882
0.0054841412
0.0033845294
0.0082012881
0.013126737
0.0060572224
0.0052537428
-0.010300152
0.0020016404
0.011194871
0.012265218
0.032448096
0.0025996611
0.013159313
0.02766505
0.028662897
0.044974113
0.024241496
0.02474481
0.0086653313
0.0050878418
0.019034128
0.022168836
0.25922113
0.25722316
0.25858762
0.25798348
0.25517017
0.26058362
0.26996208
0.27576775
0.26014995
0.25326778
0.25241747
0.25922295
0.26691553
0.25193662
0.2677782
0.27339817
0.27530712
0.27970562
0.27813874
0.27766865
0.26904174
0.29168614
0.2861384
0.28708656
0.28771947
0.29111204
0.28148258
0.25761261
0.26010845
0.26151283
-0.23365207
-0.24411281
-0.22171712
-0.23872079
-0.22639076
-0.21670546
-0.17340737
-0.16667891
-0.20769695
-0.2233772
-0.22792964
-0.23687296
-0.23690116
-0.23157027
-0.22139429
-0.21184026
-0.25548787
-0.25474634
-0.25472776
-0.25508701
-0.24470997
-0.22548206
-0.25310124
-0.27061951
-0.26714531
-0.20316243
-0.19031527
-0.22855647
-0.22378427
-0.22127351
0.11015617
0.080912121
0.070479087
0.068764973
0.045282224
0.027811365
0.029789059
0.026727905
0.041485691
0.065271886
0.072680571
0.08213843
0.096183036
0.067446408
0.046925932
0.057753139
0.064944814
0.10807672
0.099284391
0.075426162
0.074355308
0.056934829
0.072015979
0.084551513
0.066770863
0.035930587
0.017501073
0.084496281
0.11929214
0.11968255
-0.033631722
-0.033294429
-0.070295903
-0.02815658
-0.07463128
-0.063252123
-0.064823357
-0.067915279
-0.070671592
-0.060437644
-0.054204371
-0.042573842
-0.023892803
-0.057417528
-0.067710568
-0.072717072
-0.050127102
-0.033982428
-0.033981686
-0.039193975
-0.071386947
-0.075481401
-0.096127315
-0.045102308
-0.061335488
-0.080938691
-0.078840087
-0.060828633
-0.051399237
-0.066669996
0.016833102
0.0075502422
0.020615797
0.0036453144
-0.0041687039
-0.0071157789
-0.0086821541
0.0094089545
0.00061446881
-0.010679325
-0.0073225333
-0.0061658384
-0.0042189438
-0.0071650083
0.003425594
0.021605905
0.017305482
0.032343948
0.024981938
0.02209574
0.0031229302
0.018319902
0.02887724
0.033114928
0.019015952
0.011601067
0.00076892761
-0.017057971
-0.0076167352
0.0064719896
0.25464683
0.24636102
0.26429106
0.25398248
0.25535506
0.26957701
0.26718422
0.27367648
0.27069776
0.27335466
0.27283807
0.2665534
0.2677908
0.27618197
0.26935625
0.26698514
0.27033413
0.27071302
0.29301655
0.29444752
0.29456296
0.29934933
0.29249588
0.28214999
0.28802109
0.26955806
-0.22903937
-0.22779134
-0.19149505
-0.23413397
-0.21692407
-0.18605774
-0.1706712
-0.16416683
-0.16579194
-0.17832554
-0.20088412
-0.23459627
-0.24132318
-0.25474523
-0.25207484
-0.23898861
-0.23711881
-0.22647663
-0.21994001
-0.27102815
-0.27097885
-0.24329729
-0.18625052
-0.19448633
-0.20724943
-0.22450232
0.082845583
0.067443302
0.050823772
0.0704321
0.053913421
0.055144573
0.072133665
0.067261554
0.059041617
0.058064481
0.050110416
0.052372442
0.076691004
0.086751348
0.065168188
0.06567175
0.084048093
0.082949006
0.021473907
0.098371079
0.058072866
0.029223809
0.025176573
0.042922641
0.053974619
0.10420312
-0.035010102
-0.067067972
-0.056170268
-0.035212693
-0.056861676
-0.028099467
-0.032030927
-0.043507936
-0.036924138
-0.030683617
-0.036978111
-0.059198625
-0.034588703
-0.047345644
-0.079728805
-0.071205257
-0.064598593
-0.080530743
-0.07265623
-0.056376483
-0.041513415
-0.09105095
-0.071337757
-0.065002121
-0.02939702
-0.024640532
0.013897976
0.018653812
0.0081985559
-0.010928877
-0.016115916
-0.019272345
-0.018522812
-0.0096259767
-0.0054569247
-0.012012823
-0.014809187
-0.0039152155
-0.00026216674
0.014660097
0.013001903
0.019504232
-0.01431961
0.011465844
0.019539723
0.020431907
0.021747656
0.011614993
-0.0019232318
-0.031647896
-0.022752007
-0.0052453765
0.25983799
0.24631923
0.28361243
0.25802391
0.25815464
0.27498367
0.28038048
0.27569042
0.27351525
0.27537724
0.27224155
0.27165719
0.26607484
0.28739186
0.28826012
0.28797299
0.29301014
0.2855471
0.30009356
0.28654805
0.29063132
0.2972243
0.29011555
0.28184262
0.25852854
0.26811119
-0.22688906
-0.23083322
-0.18368181
-0.22142297
-0.21166773
-0.18017402
-0.16574578
-0.18748296
-0.18613944
-0.18635695
-0.20589999
-0.2169882
-0.23837236
-0.23324807
-0.20831944
-0.19132431
-0.18536602
-0.19782558
-0.18355448
-0.24329089
-0.25960389
-0.25826863
-0.20188962
-0.19145509
-0.23420222
-0.22933822
0.080005933
0.061880911
0.035524762
0.072274165
0.059444938
0.051754648
0.0547451
0.068371257
0.064413048
0.057804768
0.072479625
0.05929151
0.090119026
0.060872867
0.026829341
0.045202554
0.042399551
0.0671629
0.031252108
0.056955909
0.070086891
0.068361693
0.022662926
0.023224686
0.059650603
0.091767186
-0.029238567
-0.066061553
-0.057629773
-0.040643717
-0.064828917
-0.022556797
-0.019655869
-0.045639834
-0.051124102
-0.063172466
-0.072010534
-0.08360233
-0.050820881
-0.053034587
-0.063706049
-0.042177711
-0.026420173
-0.06793711
-0.073096101
-0.09157421
-0.031612067
-0.060953028
-0.068863741
-0.057847988
-0.071293587
-0.033132428
0.011098981
0.015838144
0.017347216
0.00041587809
-0.015683879
-0.013875112
-0.010120351
-0.016411468
-0.010929998
-0.012344726
0.0025369964
0.014802293
0.0027642205
-0.0011195118
0.0039784581
-0.0079359904
-0.014080758
-0.023779551
0.0079484946
0.02082725
0.021694473
0.013081806
0.0022574806
0.0030244833
-0.011115451
-0.010147525
0.25973141
0.25727968
0.26570081
0.25483887
0.2767218
0.28147952
0.27152991
0.27377252
0.27135962
0.2863365
0.27051996
0.28087137
0.27488884
0.27470941
0.27644426
0.27829398
0.28366226
0.29434961
0.29401626
0.29495705
0.29919029
0.2921317
0.29312573
0.2905414
0.28779559
0.29415456
0.28917956
0.29557161
0.27908284
0.27253132
-0.23861864
-0.24363153
-0.23629438
-0.23501876
-0.1945667
-0.18468272
-0.23274835
-0.23968955
-0.22925519
-0.22181173
-0.22887374
-0.25577484
-0.25139553
-0.25375182
-0.25561252
-0.25591121
-0.24179285
-0.21735475
-0.20128713
-0.18736207
-0.17036566
-0.17630945
-0.19159356
-0.23244376
-0.25900272
-0.26593189
-0.26708122
-0.19268285
-0.21157719
-0.23145926
0.091168622
0.077125891
0.061792238
0.044093709
0.021456944
0.056487419
0.074880765
0.071729826
0.085024993
0.061327469
0.083456569
0.090132969
0.099569645
0.087461031
0.080265567
0.064657906
0.047649777
0.031160844
0.048527426
0.051584582
0.050008428
0.060913842
0.036328386
0.038948743
0.068646663
0.084399015
0.046859405
0.03049368
0.030090964
0.068466419
-0.040948935
-0.038201747
-0.043806587
-0.060707528
-0.064203301
-0.041469258
-0.060323252
-0.06928104
-0.078050096
-0.087824403
-0.06954292
-0.032534743
-0.03328948
-0.040802209
-0.050986565
-0.048401431
-0.072922039
-0.055611443
-0.056283832
-0.040330487
-0.019299803
-0.04230331
-0.065921769
-0.073589387
-0.055497471
-0.045839978
-0.079068897
-0.066577874
-0.072486315
-0.058005446
0.010769064
0.0088443239
0.0027747872
0.009168842
0.0076577811
-0.011643006
-0.0097639594
-0.011909021
0.020508904
0.03070179
0.0099305054
0.019599143
0.023517515
0.016049647
0.0077324663
0.00084579006
0.0025094469
0.0073807644
-0.013482928
-0.015308827
-0.0064271469
-0.018975913
-0.0096206912
0.011769995
0.0085221697
0.029629818
0.0028902295
0.013599898
0.0014656088
-0.0067106244
0.25840024
0.2588112
0.26208903
0.26184129
0.26066083
0.26807295
0.27062631
0.26867336
0.26928061
0.27295085
0.26877692
0.26669799
0.25958908
0.2653103
0.2830206
0.29364975
0.29643083
0.30281967
0.30139549
0.30018646
0.29737348
0.28981357
0.27476108
0.27296907
0.2788495
0.2821898
0.27645077
0.27244812
0.26556242
0.26983456
-0.21095844
-0.22337739
-0.23431917
-0.24143812
-0.23700343
-0.19619054
-0.19248911
-0.23994708
-0.2506602
-0.25900231
-0.24687968
-0.24331745
-0.24091088
-0.23029281
-0.20043784
-0.20499888
-0.23775717
-0.2749679
-0.2726999
-0.24632305
-0.20583943
-0.20649578
-0.24557721
-0.24779368
-0.2622591
-0.26232176
-0.26217267
-0.24417798
-0.23919915
-0.24589719
0.090428195
0.076572465
0.090610761
0.084204326
0.058101557
0.051407471
0.038997128
0.072965686
0.094554643
0.096349814
0.088782479
0.065943419
0.04448034
0.038223751
0.02721884
0.050241863
0.070017214
0.077268927
0.069328983
0.038556889
0.047003424
0.054986464
0.060804663
0.073575656
0.091561252
0.12724645
0.094406441
0.080795585
0.092480679
0.1015308
-0.089765513
-0.098172227
-0.038499682
-0.034945079
-0.073569545
-0.052305804
-0.06557608
-0.068383141
-0.04260692
-0.034574136
-0.040813132
-0.046810913
-0.064838755
-0.073950881
-0.078400832
-0.044323458
-0.07100889
-0.03285136
-0.045615016
-0.075466751
-0.053720839
-0.056739356
-0.063880367
-0.082334496
-0.0535995
-0.039910698
-0.04985711
-0.077510889
-0.08492222
-0.047624726
0.034471248
0.0036712436
-0.00011319965
0.021745058
0.022722277
-0.0045307083
0.012514885
0.016339551
0.019228972
0.025863877
0.017107776
0.0065116564
0.0017814579
0.0032618751
0.0034370308
-0.0030466851
-0.012928835
0.0066445262
0.0073675792
0.0030994276
-0.0057368892
-0.014956684
0.0074348524
0.01891974
0.015463873
0.037951193
0.023677255
0.043087093
0.026249437
0.0051682351
0.25822048
0.2733969
0.27586294
0.2775355
0.27977388
0.28008902
0.277588
0.26365395
0.27073385
0.27249298
0.2613971
0.26017385
0.27176579
0.28032873
0.29269636
0.29856051
0.29377515
0.29670348
0.30409708
0.2946741
0.30174791
0.2790739
0.2831437
0.28429557
0.28645148
0.28867038
0.28511796
0.28902638
0.26880827
0.27605964
-0.20425918
-0.19932342
-0.21517504
-0.24634191
-0.24944151
-0.19722796
-0.20196335
-0.23540727
-0.24923727
-0.24721466
-0.2516659
-0.24024235
-0.19958302
-0.1880828
-0.18467911
-0.20739618
-0.21938896
-0.26495707
-0.27574038
-0.27235109
-0.23319121
-0.24257997
-0.25962975
-0.25532322
-0.24837186
-0.27007217
-0.262553
-0.21735267
-0.23611326
-0.23918197
0.085996842
0.063291814
0.049223012
0.065193214
0.065837036
0.030979451
0.025410571
0.057632698
0.080673203
0.10087256
0.045999135
0.032754919
0.022106234
0.048309614
0.055460514
0.071460078
0.052021545
0.085822677
0.10311325
0.075878494
0.044986693
0.061719281
0.075637361
0.10218244
0.092533513
0.090932544
0.064958955
0.035710655
0.061291339
0.081966906
-0.083078617
-0.07260137
-0.06693595
-0.042300894
-0.031966869
-0.060528822
-0.05082407
-0.07859194
-0.034136544
-0.038131527
-0.053510082
-0.072527394
-0.061992936
-0.044749144
-0.032152858
-0.047591116
-0.084905165
-0.061412869
-0.040034137
-0.064485531
-0.072871312
-0.075049325
-0.039119337
-0.042977649
-0.080976136
-0.04866788
-0.08008086
-0.075801821
-0.087602487
-0.0516151
0.018817421
-0.014088319
-0.0066747409
0.003408631
0.017501512
-0.0079210526
0.004140121
0.024212315
0.021288232
0.032846464
0.016884605
0.0090740119
0.00055260622
-0.013654095
-0.0064782512
-0.009535326
0.0077545686
0.011751387
0.031050827
0.015057371
0.0084592105
0.0051300824
-0.006322243
0.00092657594
0.0099096855
0.015760451
0.0031574209
0.009993161
-0.010107553
-0.014527939
0.26105795
0.27157154
0.26758712
0.27200254
0.26697855
0.26120251
0.26023731
0.26191927
0.26605925
0.26352012
0.25133144
0.27032876
0.26829438
0.28184568
0.30006119
0.29713685
0.29984019
0.29533813
0.30069446
0.29904596
0.30135254
0.30611573
0.27137742
0.26741527
0.28409161
0.27459364
0.28801353
0.28190956
0.2768108
0.27114849
-0.19616054
-0.17686055
-0.1773523
-0.18054839
-0.21042474
-0.23514951
-0.23940558
-0.23786119
-0.2298719
-0.23241212
-0.23316505
-0.18656753
-0.17582272
-0.17387457
-0.18849565
-0.26015078
-0.20665115
-0.25769048
-0.27528197
-0.26761948
-0.24566829
-0.20177199
-0.22401958
-0.23150714
-0.21061951
-0.23663053
-0.1885599
-0.16471222
-0.20158311
-0.2199205
0.087083083
0.067044562
0.072110754
0.037554298
0.061735922
0.074280176
0.088779993
0.089136456
0.087392936
0.071999527
0.041145928
0.024732787
0.054897905
0.053219323
0.061543177
0.092425708
0.083096788
0.090356826
0.10368488
0.083710809
0.06089225
0.037487091
0.07508893
0.10337555
0.084735232
0.076570758
0.041645217
0.058497054
0.060672209
0.096454946
-0.062345775
-0.04600318
-0.038447485
-0.062585338
-0.04563558
-0.040437839
-0.040287881
-0.058104934
-0.074603923
-0.057776026
-0.067015656
-0.06051258
-0.05248538
-0.027879156
-0.04403404
-0.05937217
-0.067348525
-0.081568624
-0.02584155
-0.038905968
-0.097675956
-0.068840965
-0.089174665
-0.056091215
-0.052961519
-0.070738394
-0.061161392
-0.057107149
-0.047510761
-0.031158033
-0.0013090065
-0.016192307
-0.0045165646
-0.0005881721
-0.01062517
-0.017123636
-0.0097286246
0.0084878245
0.038409876
0.024095153
0.018459839
0.0064932895
-0.013781986
-0.0054902114
-0.0047336121
-0.0058879153
0.025837686
0.046069206
0.043766368
0.029505591
0.020818181
0.017777954
0.0095310032
-0.0123402
-0.01201966
0.0052449789
-0.0097675835
-0.012025396
-0.023332805
-0.009016284
)
;

boundaryField
{
    minX
    {
        type            fixedFluxPressure;
        gradient        uniform 0;
        value           nonuniform List<scalar> 
50
(
0.25485391
-0.20677923
0.086848609
-0.020632674
-0.0024759211
0.26181643
-0.21697113
0.078495328
-0.038822488
-0.0068195895
0.26060414
-0.22581997
0.081688596
-0.03686207
0.00065942603
0.25922113
-0.23365207
0.11015617
-0.033631722
0.016833102
0.25464683
-0.22903937
0.082845583
-0.035010102
0.013897976
0.25983799
-0.22688906
0.080005933
-0.029238567
0.011098981
0.25973141
-0.23861864
0.091168622
-0.040948935
0.010769064
0.25840024
-0.21095844
0.090428195
-0.089765513
0.034471248
0.25822048
-0.20425918
0.085996842
-0.083078617
0.018817421
0.26105795
-0.19616054
0.087083083
-0.062345775
-0.0013090065
)
;
    }
    maxX
    {
        type            fixedFluxPressure;
        gradient        uniform 0;
        value           nonuniform List<scalar> 
50
(
0.26915855
-0.2182281
0.080115473
-0.07671963
0.036369546
0.26950058
-0.24268149
0.10891944
-0.041368078
0.021398927
0.27106937
-0.24285957
0.12029077
-0.043800155
0.022168836
0.26151283
-0.22127351
0.11968255
-0.066669996
0.0064719896
0.26955806
-0.22450232
0.10420312
-0.024640532
-0.0052453765
0.26811119
-0.22933822
0.091767186
-0.033132428
-0.010147525
0.27253132
-0.23145926
0.068466419
-0.058005446
-0.0067106244
0.26983456
-0.24589719
0.1015308
-0.047624726
0.0051682351
0.27605964
-0.23918197
0.081966906
-0.0516151
-0.014527939
0.27114849
-0.2199205
0.096454946
-0.031158033
-0.009016284
)
;
    }
    minY
    {
        type            fixedValue;
        value           uniform 0;
    }
    minZ
    {
        type            fixedFluxPressure;
        gradient        uniform 0;
        value           nonuniform List<scalar> 
150
(
0.25485391
-0.20677923
0.086848609
-0.020632674
-0.0024759211
0.26195378
-0.18229032
0.056768052
-0.032328655
-0.013974032
0.26571963
-0.17220165
0.052485435
-0.042346979
-0.010554778
0.25431432
-0.21389353
0.0633917
-0.045396662
-0.00922838
0.25285769
-0.22645244
0.067604073
-0.042289254
-0.0055303177
0.25686089
-0.22670196
0.092491807
-0.027843859
0.0033960957
0.26188932
-0.22673974
0.076994427
-0.014164234
0.0039599533
0.24954715
-0.22495907
0.055998549
-0.043454761
0.0016030227
0.27009358
-0.18298218
0.038800868
-0.030751655
-0.0027201749
0.27334612
-0.18964145
0.06142584
-0.027984143
-0.0052633375
0.26315437
-0.22955386
0.070774986
-0.065065512
0.01527212
0.27143966
-0.23347868
0.096170321
-0.027707818
0.019876846
0.26150574
-0.24348565
0.070896842
-0.036609454
0.012821464
0.26395853
-0.21635023
0.062355445
-0.084724031
0.013247866
0.27656835
-0.18993172
0.055958089
-0.045775061
-0.0018635705
0.27483664
-0.17850825
0.061297548
-0.055505202
-0.013546536
0.28494427
-0.19223846
0.051648093
-0.029586168
-0.0070688711
0.28018157
-0.22907357
0.055655969
-0.080232742
-0.0079626131
0.27731932
-0.24502467
0.072509738
-0.028040721
-0.0035184644
0.27860253
-0.20134076
0.079878355
-0.044464235
-0.013690375
0.28281418
-0.20524825
0.053117115
-0.042560188
-0.019469887
0.29137298
-0.21168693
0.060639815
-0.10753642
0.0076016063
0.28364718
-0.25456671
0.059562639
-0.040537867
0.0048402901
0.28170466
-0.23499329
0.071375448
-0.091158717
0.012280955
0.28810166
-0.20075656
0.037281027
-0.057146176
-0.00055572779
0.28499105
-0.17585725
0.064884511
-0.052317107
-0.0092050349
0.2827203
-0.17190965
0.0573001
-0.017131481
-0.00089763981
0.27428133
-0.18982493
0.065681172
-0.050504203
-0.0081184086
0.26817358
-0.21278346
0.064914889
-0.074532044
0.017348714
0.26915855
-0.2182281
0.080115473
-0.07671963
0.036369546
)
;
    }
    maxZ
    {
        type            fixedFluxPressure;
        gradient        uniform 0;
        value           nonuniform List<scalar> 
150
(
0.26105795
-0.19616054
0.087083083
-0.062345775
-0.0013090065
0.27157154
-0.17686055
0.067044562
-0.04600318
-0.016192307
0.26758712
-0.1773523
0.072110754
-0.038447485
-0.0045165646
0.27200254
-0.18054839
0.037554298
-0.062585338
-0.0005881721
0.26697855
-0.21042474
0.061735922
-0.04563558
-0.01062517
0.26120251
-0.23514951
0.074280176
-0.040437839
-0.017123636
0.26023731
-0.23940558
0.088779993
-0.040287881
-0.0097286246
0.26191927
-0.23786119
0.089136456
-0.058104934
0.0084878245
0.26605925
-0.2298719
0.087392936
-0.074603923
0.038409876
0.26352012
-0.23241212
0.071999527
-0.057776026
0.024095153
0.25133144
-0.23316505
0.041145928
-0.067015656
0.018459839
0.27032876
-0.18656753
0.024732787
-0.06051258
0.0064932895
0.26829438
-0.17582272
0.054897905
-0.05248538
-0.013781986
0.28184568
-0.17387457
0.053219323
-0.027879156
-0.0054902114
0.30006119
-0.18849565
0.061543177
-0.04403404
-0.0047336121
0.29713685
-0.26015078
0.092425708
-0.05937217
-0.0058879153
0.29984019
-0.20665115
0.083096788
-0.067348525
0.025837686
0.29533813
-0.25769048
0.090356826
-0.081568624
0.046069206
0.30069446
-0.27528197
0.10368488
-0.02584155
0.043766368
0.29904596
-0.26761948
0.083710809
-0.038905968
0.029505591
0.30135254
-0.24566829
0.06089225
-0.097675956
0.020818181
0.30611573
-0.20177199
0.037487091
-0.068840965
0.017777954
0.27137742
-0.22401958
0.07508893
-0.089174665
0.0095310032
0.26741527
-0.23150714
0.10337555
-0.056091215
-0.0123402
0.28409161
-0.21061951
0.084735232
-0.052961519
-0.01201966
0.27459364
-0.23663053
0.076570758
-0.070738394
0.0052449789
0.28801353
-0.1885599
0.041645217
-0.061161392
-0.0097675835
0.28190956
-0.16471222
0.058497054
-0.057107149
-0.012025396
0.2768108
-0.20158311
0.060672209
-0.047510761
-0.023332805
0.27114849
-0.2199205
0.096454946
-0.031158033
-0.009016284
)
;
    }
    bottomWater_to_rightSolid
    {
        type            fixedFluxPressure;
        gradient        uniform 0;
        value           nonuniform List<scalar> 
130
(
-0.0079626131
-0.0035184644
-0.013690375
-0.019469887
0.0076016063
0.0048402901
0.012280955
-0.00055572779
-0.0092050349
-0.00089763981
-0.0081184086
0.017348714
0.036369546
0.0078068646
0.010994247
-0.0083316718
-0.0064079914
0.023473548
0.021807041
0.017078187
0.011629393
-0.0038318978
-0.0054350775
0.0087840484
0.011884042
0.021398927
0.012265218
0.032448096
0.0025996611
0.013159313
0.02766505
0.028662897
0.044974113
0.024241496
0.02474481
0.0086653313
0.0050878418
0.019034128
0.022168836
0.032343948
0.024981938
0.02209574
0.0031229302
0.018319902
0.02887724
0.033114928
0.019015952
0.011601067
0.00076892761
-0.017057971
-0.0076167352
0.0064719896
0.014660097
0.013001903
0.019504232
-0.01431961
0.011465844
0.019539723
0.020431907
0.021747656
0.011614993
-0.0019232318
-0.031647896
-0.022752007
-0.0052453765
-0.0011195118
0.0039784581
-0.0079359904
-0.014080758
-0.023779551
0.0079484946
0.02082725
0.021694473
0.013081806
0.0022574806
0.0030244833
-0.011115451
-0.010147525
0.0073807644
-0.013482928
-0.015308827
-0.0064271469
-0.018975913
-0.0096206912
0.011769995
0.0085221697
0.029629818
0.0028902295
0.013599898
0.0014656088
-0.0067106244
0.0066445262
0.0073675792
0.0030994276
-0.0057368892
-0.014956684
0.0074348524
0.01891974
0.015463873
0.037951193
0.023677255
0.043087093
0.026249437
0.0051682351
0.011751387
0.031050827
0.015057371
0.0084592105
0.0051300824
-0.006322243
0.00092657594
0.0099096855
0.015760451
0.0031574209
0.009993161
-0.010107553
-0.014527939
0.046069206
0.043766368
0.029505591
0.020818181
0.017777954
0.0095310032
-0.0123402
-0.01201966
0.0052449789
-0.0097675835
-0.012025396
-0.023332805
-0.009016284
)
;
    }
    bottomWater_to_leftSolid
    {
        type            fixedFluxPressure;
        gradient        uniform 0;
        value           nonuniform List<scalar> 
130
(
-0.0024759211
-0.013974032
-0.010554778
-0.00922838
-0.0055303177
0.0033960957
0.0039599533
0.0016030227
-0.0027201749
-0.0052633375
0.01527212
0.019876846
0.012821464
-0.0068195895
-0.0079551366
0.0093845509
0.0085710044
0.00023344391
0.0083041889
0.013357547
0.0071173828
0.011455846
0.00075318762
0.029869116
0.019999348
0.0017179858
0.00065942603
0.0068138752
0.030565757
0.025583226
0.014042923
0.013184055
0.023624441
0.03100882
0.0054841412
0.0033845294
0.0082012881
0.013126737
0.0060572224
0.016833102
0.0075502422
0.020615797
0.0036453144
-0.0041687039
-0.0071157789
-0.0086821541
0.0094089545
0.00061446881
-0.010679325
-0.0073225333
-0.0061658384
-0.0042189438
0.013897976
0.018653812
0.0081985559
-0.010928877
-0.016115916
-0.019272345
-0.018522812
-0.0096259767
-0.0054569247
-0.012012823
-0.014809187
-0.0039152155
-0.00026216674
0.011098981
0.015838144
0.017347216
0.00041587809
-0.015683879
-0.013875112
-0.010120351
-0.016411468
-0.010929998
-0.012344726
0.0025369964
0.014802293
0.0027642205
0.010769064
0.0088443239
0.0027747872
0.009168842
0.0076577811
-0.011643006
-0.0097639594
-0.011909021
0.020508904
0.03070179
0.0099305054
0.019599143
0.023517515
0.034471248
0.0036712436
-0.00011319965
0.021745058
0.022722277
-0.0045307083
0.012514885
0.016339551
0.019228972
0.025863877
0.017107776
0.0065116564
0.0017814579
0.018817421
-0.014088319
-0.0066747409
0.003408631
0.017501512
-0.0079210526
0.004140121
0.024212315
0.021288232
0.032846464
0.016884605
0.0090740119
0.00055260622
-0.0013090065
-0.016192307
-0.0045165646
-0.0005881721
-0.01062517
-0.017123636
-0.0097286246
0.0084878245
0.038409876
0.024095153
0.018459839
0.0064932895
-0.013781986
)
;
    }
    bottomWater_to_heater
    {
        type            fixedFluxPressure;
        gradient        uniform 0;
        value           nonuniform List<scalar> 
92
(
0.013247866
-0.0018635705
-0.013546536
-0.0070688711
-0.0037230426
-0.012981468
-0.0073949217
0.0089569189
0.0052537428
-0.010300152
0.0020016404
0.011194871
0.25193662
0.2677782
0.27339817
0.27530712
-0.23157027
-0.22139429
-0.21184026
-0.25548787
0.067446408
0.046925932
0.057753139
0.064944814
-0.057417528
-0.067710568
-0.072717072
-0.050127102
-0.0071650083
-0.0071650083
0.003425594
0.003425594
0.021605905
0.021605905
0.017305482
0.017305482
0.2677908
0.27618197
-0.24132318
-0.25474523
0.076691004
0.086751348
-0.034588703
-0.047345644
-0.00026216674
0.014660097
0.26607484
0.27470941
0.27644426
0.27829398
0.28739186
0.28366226
-0.23837236
-0.25375182
-0.25561252
-0.25591121
-0.23324807
-0.24179285
0.090119026
0.087461031
0.080265567
0.064657906
0.060872867
0.047649777
-0.050820881
-0.040802209
-0.050986565
-0.048401431
-0.053034587
-0.072922039
0.0027642205
0.016049647
0.0077324663
0.00084579006
-0.0011195118
0.0025094469
0.016049647
0.0077324663
0.00084579006
0.0025094469
0.0032618751
0.0034370308
-0.0030466851
-0.012928835
-0.013654095
-0.0064782512
-0.009535326
0.0077545686
-0.0054902114
-0.0047336121
-0.0058879153
0.025837686
)
;
    }
}


// ************************************************************************* //
