/*--------------------------------*- C++ -*----------------------------------*\
| =========                 |                                                 |
| \\      /  F ield         | OpenFOAM: The Open Source CFD Toolbox           |
|  \\    /   O peration     | Version:  v2012                                 |
|   \\  /    A nd           | Website:  www.openfoam.com                      |
|    \\/     M anipulation  |                                                 |
\*---------------------------------------------------------------------------*/
FoamFile
{
    version     2.0;
    format      ascii;
    class       surfaceScalarField;
    location    "250/bottomWater";
    object      phi;
}
// * * * * * * * * * * * * * * * * * * * * * * * * * * * * * * * * * * * * * //

dimensions      [1 0 -1 0 0 0 0];
oriented        oriented;


internalField   nonuniform List<scalar> 
3858
(
-0.00010598899
8.5132687e-05
2.5385978e-05
3.2780518e-05
-0.00022429225
8.8505514e-05
0.00022841484
-0.00019413623
5.7225217e-07
0.00026034616
2.9899016e-05
-5.6883911e-05
0.00016341931
0.00014995966
-4.7694333e-05
6.5512143e-05
0.00014386163
-4.1764315e-05
-6.8821599e-05
0.00013506313
2.1115459e-06
-0.00020344496
0.00011298872
2.7603721e-05
-2.6508312e-05
-0.00030045997
0.0001247076
5.9617633e-05
-0.00022679778
0.00014088393
-8.1698817e-05
7.4876249e-05
6.8984667e-05
-0.00017554209
0.0001066408
-1.219132e-05
-0.00030289239
0.00015453915
-2.3919005e-05
-0.00033006302
3.0641034e-05
-7.8862702e-07
-0.00013843728
-0.00016217858
-2.9828807e-05
4.4073099e-05
-0.00020135511
1.8648034e-05
0.00018959444
-0.00018978066
4.1659947e-05
0.00010644491
2.4959663e-05
5.666787e-05
-9.3339578e-05
0.00014382881
5.5150435e-05
-7.86277e-05
-0.00011080583
9.4957307e-05
5.5966552e-05
-0.00023071382
9.4033526e-05
1.1817434e-05
-4.8775039e-05
8.8507716e-05
-0.00019423812
0.00012091609
8.2803543e-05
-0.0003046814
3.5393446e-05
7.337243e-05
-0.00021474381
-0.00018700186
9.4016835e-05
-5.8705921e-05
-0.00025258708
9.4085471e-05
0.00013971126
-0.00031290068
0.00011257416
0.00023421328
-0.00020354138
0.00010923605
0.00018720858
-3.2574158e-05
8.1122441e-05
0.00011697104
7.1419615e-05
-0.00012854201
7.7869477e-05
0.00013580522
3.7831958e-05
-0.0005329887
0.00014232248
0.00025716704
-0.0004559207
4.2449386e-05
0.00041380667
-6.159016e-05
-6.515046e-05
0.00034711085
0.00025585729
-3.9201807e-05
5.9984685e-05
0.00046032608
-2.9338275e-05
-0.00025340439
0.00046612328
-1.7671074e-05
-0.00018554889
-5.5114185e-06
5.0644655e-05
4.1624523e-05
-0.0006681291
0.00014049572
0.00022464157
-0.00055295489
0.00014314008
0.00021441184
6.7174465e-05
1.7931509e-05
-0.00016285147
0.00055726872
-7.336461e-05
-0.00047851606
0.00051447178
-4.4268044e-05
-0.00034596091
-8.4527387e-05
-1.7386723e-05
-2.9606201e-05
-0.00043787155
-4.0661744e-05
0.0002094812
-0.00044961525
9.1727315e-06
0.00042762228
-0.00046940102
6.1479272e-05
0.00036017034
-2.3152031e-05
0.00011556362
-4.3952159e-05
0.00039646325
0.00015148806
1.0599733e-05
-0.00032802758
0.00016266986
0.00028647213
-0.00057502759
6.8441376e-05
0.00025627478
-0.00012830785
0.00010973016
-0.00030854364
0.00055518627
0.00013054824
-0.0005053818
7.3988124e-05
0.00015824349
-0.0003316968
-0.0004765547
0.00011586784
-0.00016582165
-0.00050968251
9.1220288e-05
3.9179634e-05
-0.00062823859
0.00011033663
0.00017200515
-0.0004795136
0.00014314671
0.00019617427
-0.00019862191
0.00014187863
0.0001256832
0.00018746211
0.00026657942
-0.00026223647
7.3526522e-05
2.4680986e-05
-0.00034753684
5.6446581e-05
-0.00025895416
-0.00026024194
8.7956393e-05
-8.2548185e-05
-0.00027456275
3.6566618e-05
0.0001197003
1.9485185e-05
3.4123626e-05
0.00016857234
0.00038527673
2.6177319e-05
0.00030968047
0.00032807989
-3.0647376e-06
0.00038569388
-7.1599652e-05
-9.9251696e-06
-1.2636533e-05
-0.00020912404
-6.0674644e-05
-0.00025026253
-0.00033432019
1.8991299e-05
-0.00014557387
-1.4914706e-05
-2.2599477e-05
-8.5569155e-05
0.00050384038
-6.5763758e-06
3.7219675e-05
0.0004303909
-3.8707947e-05
0.00017708392
-0.00012091459
-0.00010347705
7.9889325e-05
-0.00027236972
-6.8307245e-05
6.7906006e-05
-0.00044354412
5.9121828e-06
-8.7013022e-05
-0.00038836931
7.3887318e-05
-0.00011092384
-0.0001030032
0.00010376197
2.1857478e-05
0.00012419934
0.00013948259
0.00015694286
-0.00040750493
-5.5608035e-05
-6.3487132e-06
-0.00036941858
-4.2317432e-05
-8.0618439e-05
-4.9551804e-05
-4.486312e-06
-1.0433071e-05
0.00042726438
5.7736535e-05
1.7773238e-05
1.0582525e-05
3.5199298e-05
-9.8121332e-05
-0.00023867659
-0.00012198353
-0.00012667615
-0.00043363893
-4.7488751e-05
-0.00013621017
-0.00054683111
-7.1873463e-05
-0.00012717857
-0.00035355694
-0.00013498826
-0.0001380662
-0.00010558978
-8.2144506e-05
1.4771366e-05
-2.7154365e-05
4.5107261e-05
-0.00026621654
-4.1127189e-05
-4.934548e-05
-0.00030191932
4.8835223e-05
-0.00017920966
-0.0001792004
4.8822647e-05
-0.00024519456
-0.00023281709
2.4239244e-05
-0.0001369865
-0.00015290705
6.418418e-05
0.00010443932
7.1581161e-05
7.2269764e-05
0.00032742967
1.1732601e-05
9.3356956e-05
0.00022165241
-3.280682e-05
6.6984437e-05
0.00010754795
-0.0001850265
9.0006933e-05
3.2917677e-05
-0.00030309478
4.3404875e-05
-0.00011021671
7.4602711e-05
5.3616975e-05
3.2044919e-05
0.0002862808
7.5297964e-05
0.00025150604
0.00023284236
-2.1912576e-05
1.3450877e-05
0.00022233125
-0.00010519067
-4.9253557e-05
-9.1555252e-05
-0.00011811003
8.3243764e-06
-0.00047133913
-2.9782934e-05
-0.00010472009
-0.00032370343
4.8378569e-05
-0.00030581284
4.7041313e-05
5.1048235e-05
-0.00014792785
-0.00010400499
7.0319333e-05
1.804668e-05
-0.00045886793
-0.00011461153
-1.1821974e-05
-0.00030530823
-3.4241693e-05
-0.00017983922
8.8936294e-05
2.9529151e-05
4.4770068e-05
0.00014794925
5.4705849e-05
2.4445737e-05
0.00011220939
-8.1302525e-05
-6.4702171e-05
-0.0001069666
-4.2562068e-05
-6.0839166e-05
-0.00043267931
-4.8226238e-06
-4.0937701e-05
-0.00052802409
-3.8708483e-05
6.7093073e-05
-0.00035246538
-0.00010912233
8.1221598e-05
7.7842769e-05
-0.00019756107
0.00025454072
-0.00015854775
-0.00011623525
-0.00014998129
-0.00021710236
-0.00020105221
-0.00019606982
-0.00020023293
-0.00020317764
-0.00022570927
-0.00021899063
-0.00013709405
-8.2151374e-05
-6.5258088e-05
3.9291411e-06
-7.4347904e-05
7.336902e-05
-0.00010224669
-2.496028e-05
-8.6697191e-05
-0.00026638312
-6.167194e-05
-0.00017212481
-1.9655593e-05
4.589635e-05
6.8259641e-05
0.00020503897
7.3699739e-05
0.00036129801
6.6072205e-05
0.00030788892
-3.8146167e-05
-4.9169557e-05
-0.00011428065
-0.0002215073
-0.00015136569
-4.6369491e-05
-0.0001280965
-2.0635283e-05
-0.00012973921
-0.00029641063
-0.00018309258
-0.00044830969
-0.00015340917
-0.00025279528
-0.00010657811
-2.8371226e-05
-7.6474797e-05
0.00023238041
-0.00014854224
0.00032072424
-0.00019531042
0.00010746988
-0.00021942494
-0.00024409357
-0.00017646064
-0.00045772189
-0.00013883707
-0.00030233897
-7.7540152e-05
-4.7798253e-05
-0.00015217591
0.00010538579
7.5121532e-05
-0.00012324009
-6.1292306e-05
0.0001239939
0.00013534009
-0.0003077898
4.9697954e-05
0.0003132224
-0.00026337351
3.056053e-05
0.00021164016
9.2835145e-05
-3.3110408e-05
7.6765677e-05
0.00016895164
-7.176004e-05
1.1600818e-05
0.0001508507
-8.0572906e-05
-4.7404853e-05
0.00015055832
-6.0614436e-05
-6.7627854e-05
8.9986435e-05
5.8921481e-05
-0.00011005691
0.00011531413
7.1305759e-05
-0.00015082263
0.00013978722
-2.5202102e-05
-3.773498e-05
-0.00017239345
4.6541174e-05
-0.00018221563
0.00013128949
-8.7514725e-06
-0.00028179226
5.5846957e-05
4.6801808e-05
-7.5208011e-05
-0.00026930704
3.0470094e-05
3.1369907e-05
-6.7900447e-05
-1.8284346e-05
0.0001845923
-0.00022038995
0.00010542603
0.00018139126
-2.4116867e-05
8.2835919e-05
2.0763048e-05
0.0001325828
8.1301983e-05
-0.00010154234
0.00013156737
8.5304097e-05
-2.3448999e-05
-0.00013591281
0.00014948487
-2.7907391e-05
4.1037292e-05
4.7912687e-05
-0.00014711257
0.00014845346
5.0922342e-05
-0.00021781804
0.00011424751
2.7654424e-05
-0.00015512107
-3.7769745e-05
6.6407552e-05
4.0346904e-05
-0.00013858289
3.5458574e-05
0.00022869111
-9.8010076e-05
2.2745631e-05
0.0001939749
0.00012274497
2.4269791e-05
0.00011186386
0.00016040848
4.6281919e-06
0.00014837599
3.5989879e-05
-0.00022878341
0.00027819592
0.0001917785
-0.00013334677
-0.00021029878
0.0001958923
0.00011078518
-0.00057012025
6.0647891e-05
0.00032355613
-0.00061130022
7.0005299e-05
0.00036615332
-5.8480884e-06
1.6884242e-05
0.00016200751
0.00044914046
-0.00010538129
-8.2075845e-05
0.00058166753
-0.00020440455
-0.0001885338
0.00042124133
-0.0001135804
-0.00012264817
4.7542815e-05
0.00011705371
-0.00019752834
0.0002489462
8.4388181e-05
-5.9508319e-05
3.7609325e-05
-1.7910608e-05
8.8968007e-05
-0.00045399485
5.9760464e-05
-0.00026319487
0.00043172273
7.46159e-06
-0.00026305401
-1.2225366e-05
5.0544744e-05
2.8013501e-05
-0.00060383979
2.8034859e-06
0.00016328894
-0.00018991435
-4.0888058e-06
0.00044831876
-0.0005545009
0.00011056041
0.00049828382
-0.0001229456
0.00016442728
6.9088229e-05
0.00056953781
0.00014372864
-1.5145349e-05
0.00016364649
0.00021482431
0.00027604697
-0.0004741857
0.00011552195
0.00027005894
7.5841509e-05
8.0913974e-05
-0.00022221321
0.00067963167
9.1642183e-05
-0.00056519324
0.0004897952
0.00012567583
-0.00045622822
-0.00017089354
0.00014002662
-0.00018123567
-0.0003858303
6.347515e-05
0.00013774633
-0.0003349908
2.8335362e-05
0.00029374072
4.6104988e-05
6.3792286e-05
0.00020849104
0.00038869252
-1.1557279e-06
0.00052438144
1.9947693e-05
0.00030502181
-6.8987522e-05
0.00011568816
0.00027379642
-0.0001200863
-2.5405037e-06
-6.8795092e-05
-8.7391565e-05
-5.2180779e-05
-0.00033784144
-0.00011575199
-0.00018993527
-0.00020346629
-8.8193472e-05
-1.790613e-05
-3.6029263e-05
0.0003501646
-4.2283842e-05
-7.0316672e-05
0.00052073711
9.2153103e-05
-9.2988749e-05
0.00028818197
0.00014580628
-0.00011399408
-2.6659703e-05
3.453321e-05
5.7376624e-05
9.1938603e-05
4.6282046e-06
0.00021638195
-7.416347e-05
-6.9832003e-05
-9.7056568e-05
-0.00010577608
-4.1356624e-05
3.5379296e-05
0.00031016561
-4.9586686e-05
0.00023672885
-0.00026837359
-4.8678386e-05
0.00013492033
-0.00051577683
-5.4561686e-05
0.00013060948
-0.00016702378
-1.2667545e-05
-0.00018667929
-0.00012878307
-3.4541754e-05
-0.00011242598
-9.1115705e-05
-2.3212348e-06
7.1088949e-05
0.00043925081
8.6254656e-05
0.00017949411
-0.00011021083
0.00010984413
-9.3052911e-05
-0.00026113445
1.7178334e-05
-0.00011396445
4.4584363e-06
8.780831e-05
-7.8839396e-05
0.00062065644
8.1586719e-05
-2.6925823e-05
0.0004467901
2.6290836e-05
-0.00010128675
-0.00011432872
-0.00010418742
-0.0003241823
-0.00019514031
-1.5283198e-05
-0.00032968454
-0.00033214382
-6.9218202e-05
-0.00015291195
-0.00010007525
-0.00016558061
-3.6643914e-05
0.00031182143
-0.00012154145
0.00050421756
-4.3634396e-05
0.0001761767
-0.0002664143
-1.9877106e-05
5.5503058e-05
-1.4359596e-06
5.0858517e-05
-0.0002302484
0.00020738521
3.9797336e-05
-0.00033141723
9.3553798e-05
-8.3897707e-05
-0.00032510024
-3.6530795e-05
6.2045227e-06
-8.7590733e-05
0.00014444562
4.0479245e-05
8.7093789e-05
0.00030487769
0.00013453187
0.0001033191
0.00017994293
0.00015899818
4.6741844e-05
1.7823969e-05
0.00010210053
0.00015427791
-2.3124696e-05
5.0932122e-05
-6.691321e-05
0.00028970559
-8.9060963e-05
-0.00021488837
0.00015779723
-4.0300179e-05
7.6701667e-05
7.3779642e-05
-7.7116646e-05
4.102038e-05
-0.00024513799
-9.2744985e-05
5.2970997e-06
-0.00050836028
-8.9803303e-05
3.810583e-05
-0.00011726499
-0.00011235046
-0.00013026808
0.00014181608
-5.3846683e-05
-0.00025443223
0.00018501783
-0.00010092116
3.0549928e-05
0.00014869809
7.5889898e-05
0.00016023983
-0.00029034476
-6.4167505e-05
-2.609391e-05
-0.00013247572
2.3433328e-05
-0.00026656698
0.0002916334
-1.7172733e-05
-1.8767815e-05
0.00029997467
0.00012758845
0.00014701645
0.00024685811
-4.7154799e-05
-8.901635e-05
0.00020681804
-0.00012767602
-0.00027506391
-2.4906095e-05
1.0990736e-05
-0.00024675114
-0.00035978721
-3.9377862e-05
-0.00025013393
-0.00011204896
-9.3765832e-05
-0.00011166118
0.00013138664
-0.00015559903
0.00027344548
-3.9436859e-05
-0.00024598512
-0.00017041048
-0.00028191939
-0.0001665539
-0.00013814217
-0.00013662494
-7.1964343e-05
-0.0001983333
-0.00016172619
-8.3862984e-05
-9.9655089e-05
1.7116436e-05
5.6304641e-05
7.4570061e-05
0.00010473676
2.9264136e-05
-2.5077421e-05
6.0940963e-05
-0.00015288105
4.3006999e-05
3.207022e-05
8.5098736e-05
0.00018474158
7.3385514e-05
0.00028307653
4.9144432e-05
5.3151154e-05
5.085959e-05
-0.00033101711
-0.00016233819
-0.00036887852
-0.00019368423
-0.00024403102
-0.00013439712
-5.9375685e-05
-0.00012773402
2.9247505e-05
-6.9664314e-05
-0.00027826292
-0.00016592691
-0.00046316224
-0.00010098557
-0.0002436762
-3.4430733e-05
-1.9276508e-05
-8.9980818e-07
0.00019495619
-0.00011591682
0.00035367466
-0.00014721083
0.00029470244
-0.00018535881
-7.4184851e-05
-0.00016736056
-0.00028259484
-4.2476031e-05
-0.00020953044
-1.9217908e-05
1.6116784e-05
-0.00014174258
0.00013706133
8.3112233e-05
-0.00015535635
8.4894352e-05
5.8264159e-05
0.00016043484
-0.00027938745
1.2262526e-05
0.00019610642
2.0507257e-05
-2.2021375e-05
9.9786852e-05
0.00013798655
-7.1404937e-05
3.21373e-05
0.00013370584
-0.00013354718
1.8686029e-05
9.0843418e-05
-0.00015200704
2.2510125e-05
6.0110466e-05
-0.0001186375
2.8733922e-05
0.00015452464
-9.6758483e-05
2.3323534e-05
0.00016047405
-7.93721e-05
-3.4288574e-05
0.00016998913
-0.00013343589
-5.1666849e-05
0.00013272638
-6.5921217e-05
-0.00015598681
0.00017051967
-7.1485133e-05
-0.00029742048
0.00016378733
3.0473409e-05
-0.00014257546
-0.00015874564
3.6721314e-05
6.4983332e-05
-0.00025428683
2.7704115e-05
0.00017769539
-0.00010197025
9.2677038e-05
0.00013735573
9.7259591e-05
2.467727e-05
4.1488559e-05
0.00013703888
3.8824287e-05
-5.7920629e-05
0.0001366502
4.5677964e-05
-0.00013290947
0.00017553863
5.0313201e-05
-1.3039056e-05
-0.00011711688
4.1114747e-05
3.0797017e-05
6.257438e-05
-5.7960335e-05
3.1212108e-06
0.00010934532
-5.7513267e-05
-3.5825816e-05
0.00017339191
-6.8966288e-05
6.7601607e-05
4.5244419e-06
-7.3304504e-05
0.00015936017
2.7950642e-05
-9.5602841e-05
0.00011095142
0.00017725694
-0.00010299971
7.3610892e-05
0.00014198469
-9.9986115e-05
0.00013135945
-2.1153892e-05
-0.00029835822
0.00046304514
0.00016415291
-0.00016343771
1.1476205e-05
0.00013438994
0.00029764104
-0.00064163949
-3.8178817e-05
0.00035648072
3.6070289e-05
-4.3974172e-06
8.4791252e-05
0.00051482146
-8.8261198e-05
-0.00013387382
0.00043520096
-0.00018821133
-3.5453224e-05
-9.2046284e-06
-0.00020277709
9.4705881e-05
-5.6034068e-05
-0.00012759496
0.00015231184
0.00029772751
-8.375512e-05
0.00015180324
0.00038032829
-0.00013495744
6.3190209e-05
0.00041400344
-0.00017331189
-0.0001327805
0.00043256298
-4.4105431e-05
-0.00030336306
0.00036433459
-1.5770772e-05
-0.00016148928
1.6443724e-05
5.6014574e-05
0.00010345918
-0.00046870551
4.7814885e-05
0.00033428523
-0.00055723016
6.8028467e-05
0.00050619591
-0.00029832964
0.00013500912
0.00043918687
0.00025269417
7.600174e-05
8.4979591e-05
0.00063138633
3.5884703e-06
-0.00017238612
0.00054647752
6.2362703e-05
2.1030469e-05
6.3814814e-05
3.3829179e-05
0.00039075132
-0.00042053923
1.461548e-05
0.00016658824
0.00045820783
-7.9828184e-05
-0.0002464333
0.00068855308
-4.0510375e-05
-0.00043723585
0.00047706595
2.715512e-05
-0.0002610366
-0.00011178058
3.5809299e-06
-7.6002171e-06
-0.00013919781
-5.795257e-05
0.00013281688
0.00027885339
-0.00017822126
4.1178145e-05
0.0004881022
-0.0002556345
0.00036944058
-0.00017695529
0.00019286294
0.00029304564
9.2824715e-05
0.00029227352
-5.3428925e-05
-3.7045957e-05
-0.00011787289
-9.9383761e-05
-0.0001842901
-6.3463139e-05
-8.9934781e-06
-0.00019928124
5.6630078e-05
0.0004143275
-3.7505376e-05
9.4901063e-05
0.00035218238
2.4637567e-06
5.9090714e-05
-6.5294539e-05
0.00018405337
-2.8204251e-05
-9.0075535e-05
0.00026714272
3.8474636e-06
0.00016753158
0.00013267743
4.0830052e-05
0.0002704933
7.7480611e-05
3.3489103e-05
0.00031291699
3.8595402e-05
7.0380716e-05
0.0003660018
-1.1687053e-05
0.00021215546
0.0002477367
-7.4763533e-05
0.00041595001
-0.00020759175
-2.8437462e-05
0.00029311493
-0.0003774962
-2.2935914e-05
-4.2359519e-05
-0.00013521166
-9.9211605e-05
-0.00020431418
-0.00010176774
-6.9149013e-05
-1.1710843e-05
0.00015218166
-9.441207e-05
8.1155229e-05
0.00059940258
2.5372322e-05
0.00021786514
0.00039008325
0.00012952848
0.00024238233
-2.8912951e-05
8.5388912e-05
-2.0348341e-05
-0.00012284002
5.2839781e-05
-3.7244576e-05
0.00037583815
0.00018085265
-3.3856108e-05
0.00072649185
-1.5036391e-05
-1.4106574e-05
0.0003584904
-5.3613933e-06
-8.0572979e-05
-0.0001497072
8.9109824e-05
-0.00025424582
-0.00014222515
0.00010748198
-0.0001629693
1.457612e-05
7.4201434e-06
-0.0001430571
0.00038104364
-3.4395095e-05
0.00027828818
-9.5539096e-05
0.00030731136
-8.2616331e-05
4.8473512e-05
0.00023139758
8.4425747e-05
-1.1082383e-05
-5.0977284e-05
0.00023810283
-1.5314391e-05
-0.00018506633
0.00026639552
-0.00022519765
6.1364695e-05
0.00018787517
-1.3774164e-05
0.00029150205
0.00012704326
3.5481016e-05
9.3259124e-05
0.00021092427
5.6556005e-05
-0.0002028323
0.00028190302
8.311107e-05
-0.00016397447
9.3380099e-05
0.0001373942
2.3747083e-06
1.8435527e-05
0.00013664072
5.4924904e-05
0.00012490696
4.6398885e-05
0.00013283624
0.00020806088
3.9729412e-05
0.00027608819
9.6299718e-05
-6.8931613e-05
0.00021405413
-0.00022509285
-1.3209827e-05
8.8276151e-05
-0.00035452233
1.3000792e-05
-0.00013291353
1.7547182e-05
-4.3919635e-05
-0.0002608803
9.2600455e-05
-0.00012024811
-0.00020378885
0.00014001245
-0.00014584341
7.4788854e-05
0.00032004622
7.6668549e-05
0.00039402776
-0.00010364077
0.00011031762
0.00024309065
3.4554828e-05
0.00011090267
-0.00017829388
0.0002048956
7.6476185e-05
-0.00012060706
0.00023234106
0.00021339873
0.0001093574
0.00046099572
-1.1623117e-05
0.00017803829
0.00020679375
-4.4660269e-05
-0.00019845228
0.00026477711
-2.7002997e-05
-0.00037066796
6.6751238e-08
-9.4540882e-06
-0.00023588241
-0.00024360369
2.9628438e-05
-9.6891803e-05
0.00010171477
-1.5260759e-05
0.00022980512
-8.7845601e-05
-0.00016595498
-8.7071829e-05
-0.00017323673
-7.4846406e-05
-6.8226274e-05
-3.5325564e-06
2.2194719e-05
-2.2358769e-05
4.7681866e-05
7.8525043e-05
2.881529e-05
0.00016302629
4.8031833e-05
0.0002662778
0.00015874513
0.00020045387
0.00013449096
0.00017857524
1.1358435e-06
0.00019479765
8.1835127e-06
0.00020295803
0.00015790457
0.00013172533
0.00025527521
4.8073517e-05
5.3354683e-05
2.7687263e-05
-0.00033418093
-0.00012932492
-0.00035926361
-0.00015105437
-0.00028123412
-0.00011982617
-0.00014638763
-0.00012256807
2.9142322e-05
7.4851946e-05
-0.0002040952
-3.6330162e-05
-0.00035503207
8.4506125e-05
-0.00028374853
9.9181338e-05
-0.00015180397
9.9496705e-05
0.00018148385
1.1791075e-05
0.00026537104
-2.4304264e-05
0.0003685526
-2.3763269e-05
0.00022824313
-2.6984347e-05
-0.00012973101
7.189442e-05
-0.00016662683
0.00011939268
7.9295081e-05
-7.2943314e-05
0.00014455262
1.5043942e-05
-0.00016363033
0.00017168182
-1.8577195e-05
-0.00019258018
0.0001492934
-0.00010414208
-0.00026318929
0.00017223878
-0.00011943949
-0.00031978087
0.00014142287
-0.0001511939
-0.00024724989
-3.2222037e-05
-0.00017016012
-4.5954961e-05
-0.00024896901
-0.00010299908
0.00019826673
-0.00034052232
-2.2474229e-05
0.00026173136
-4.0660136e-05
-0.00011592427
0.00021242669
0.00011245401
-0.00013713895
8.3335102e-05
0.00014244492
-0.00014127619
2.0780666e-05
0.00015699368
-0.00015669442
-8.4071461e-05
0.00014886474
-0.00011374263
-0.00024859013
0.00020050602
-0.00012186308
-8.8400893e-05
-4.205104e-05
-5.2099825e-05
-7.966324e-05
0.0001299243
-8.8543159e-05
0.00013280477
-0.00010061749
-0.00011587342
0.00015779091
-9.2562431e-05
-0.00016496993
0.00017724604
-8.3197188e-05
-0.00018978594
0.00017566369
-9.9081776e-05
-1.4160521e-05
-0.00013740871
-1.4302968e-06
1.4577537e-05
1.9661187e-05
-0.00010949735
-0.00010382856
0.00012342368
-6.5757077e-05
-0.00016893255
6.0908941e-05
-6.8050874e-05
-2.6064559e-05
-0.00017118516
-4.9074684e-05
0.00016667652
-0.00022015492
-6.9849784e-05
0.00014150408
7.8667202e-05
-0.00015230141
6.2978416e-05
6.2897881e-05
-8.0938378e-05
0.00010181816
-5.7074492e-05
-0.00018371011
0.00046627281
2.6142826e-05
-0.00028186503
0.00042362255
-1.9395875e-05
-0.00023537069
0.0001187849
-5.4164664e-05
-0.00039656578
0.00050691847
-0.00017788202
-0.00036091814
0.00022401765
-0.00020650362
-0.00020922256
-0.00018221878
-0.00018991017
-3.5509485e-05
-0.00055361435
-7.1844821e-05
0.00014477584
-0.0006831174
3.4714797e-05
0.00028265951
-0.0001935932
-6.8705721e-05
0.00031725573
5.1491681e-05
-0.00010859132
0.0003103637
8.5045314e-05
-0.00010902026
0.00014536841
0.0003755103
-9.7626746e-05
-0.0001355796
0.0004741502
-6.0108217e-05
-5.5800351e-05
0.00017674134
0.00023490929
-0.00033129566
0.00042317959
-0.00017234166
0.00029213346
0.00039597954
-2.7027813e-05
0.00061842158
-9.0453801e-05
-0.00026388299
0.00057096572
-0.00017273117
-0.00032476471
0.00044916523
-0.00014867476
-5.5472511e-05
6.8353059e-05
-0.00012815238
0.00040098793
-0.00047180346
-0.0001074502
0.00036601555
6.4649636e-05
-8.9844252e-05
-0.00017634335
0.00074154447
-0.00011627227
-0.00048102491
0.00037229391
2.0451713e-05
-0.00028980349
-0.00042845533
6.9629673e-05
-3.506513e-05
-0.00056333266
3.0486801e-05
6.3023312e-05
-6.2866776e-05
-0.00013477572
-1.8927337e-07
-6.7802926e-06
-0.00012274374
5.1763753e-06
-8.0502778e-05
5.2500399e-05
0.00042035311
8.6244013e-05
2.6020606e-05
0.00031820799
9.4848396e-05
-6.2405795e-05
1.0079349e-05
1.2841859e-05
-1.0144478e-07
0.00040283447
-0.00015750159
0.00021035134
8.381103e-05
-0.00010775153
0.00023807242
-0.0001632469
-4.4229194e-05
3.5866763e-05
-0.00015901306
-8.3422514e-06
-0.00028979316
-0.00012232441
3.2009666e-05
-0.00034695162
-9.7535557e-05
9.3778254e-05
-0.00020537266
-0.00016552965
0.000152923
-5.1681459e-05
-0.00016769065
0.00013764017
7.3603571e-05
0.00015151336
8.702485e-05
0.00024052647
0.00027941785
-4.6954073e-05
0.00036821157
2.0618773e-05
0.00011367261
-9.969261e-05
-3.2204557e-05
-0.00012567611
8.3722416e-06
0.00028625372
-2.2917356e-05
0.0006077916
-5.2492502e-05
-5.1462638e-05
0.00053558741
8.9295906e-05
7.9137511e-05
0.00031695055
0.00013114301
0.00029751217
-0.00017780793
0.00011317525
1.8871836e-05
-0.00016402938
2.3706049e-05
7.843356e-07
-1.9162962e-05
0.00028275275
4.1140704e-05
0.00073373369
-4.758198e-05
0.00011182331
0.00028450391
1.1746001e-05
-6.3160785e-05
-0.00010747207
-5.6889342e-05
-0.00050991954
-0.00011196442
0.00010287251
-0.00031069242
-0.00042077439
0.00016610063
-8.1510196e-05
-0.00040864592
0.00013828831
-0.0001338654
-3.8007512e-05
0.00015753418
0.00024679139
6.4501053e-05
0.00028403796
6.3712256e-05
0.00011690957
6.9784908e-05
0.00019646481
1.2553196e-05
0.00019858212
0.00013559246
-8.6752845e-05
0.0002664977
1.3441258e-05
-1.1319964e-05
0.00024509882
-9.6755259e-05
-9.6117429e-06
0.00022035713
-7.1080734e-05
-6.6346123e-06
-3.5204135e-06
0.00018336999
1.2942297e-06
-0.00018054053
0.00011547905
0.00010139972
-0.0001700169
-0.00017498534
0.00013557279
-0.00020394511
-0.00021628695
0.00012892339
-4.7842313e-05
-0.00017155684
0.00020669683
0.0002698165
-0.00015245592
4.5283342e-05
0.00038180411
-0.00010457867
0.00017849753
0.00011661476
-0.00018893524
0.00019783702
-0.00017401489
0.00015108525
-3.6788752e-05
0.00036285633
-3.8134294e-05
0.00010796193
0.0003174338
0.00015007147
0.00028201807
7.301042e-05
0.00018020161
0.00031661844
-0.00023745744
0.00013595182
6.7090765e-05
5.720113e-05
0.00010477337
-0.00012377483
0.00029995606
8.5145307e-05
0.00014250002
0.00041124638
4.4589353e-05
0.00027459307
0.00014309345
-3.5342853e-05
0.00011443269
0.00010940225
-8.3716941e-05
2.9478534e-05
5.4720436e-05
-9.1184788e-05
8.9166568e-05
-0.00043758023
-1.3253752e-05
9.3060483e-05
-0.00043158861
3.7880204e-06
5.6344792e-05
-0.00018499531
0.00013454199
2.5177568e-05
0.00012077816
2.6296794e-06
0.00023865147
7.5058945e-05
0.00026688767
8.4997497e-05
0.00022675766
0.00013209632
9.3751835e-05
0.00019927686
1.2649181e-05
0.00027629973
0.00012837866
0.00026809438
0.00018692361
0.00023550935
4.6202148e-05
0.00016053379
-6.4381546e-05
9.7254782e-05
-0.00011131511
7.1020658e-06
-0.00019361055
-2.2086967e-05
-0.00027050196
-0.00028321212
-0.00023642948
-0.0002051704
-8.4969342e-06
4.3614775e-05
0.00020479827
0.00017899054
8.0266868e-05
0.00016121166
-0.00029900573
0.00022632129
-0.00033463059
0.00019200733
-8.8380578e-05
0.00015320277
0.0002299206
0.00010473628
0.00034232709
6.3827005e-06
0.00045330748
-2.5341401e-05
0.00051116903
-3.0125466e-05
0.00018010616
-3.4622933e-05
-0.0001279529
-4.1368751e-06
7.6869745e-06
-8.21229e-05
0.00015892278
-5.7102112e-05
-0.00019407628
0.00014674411
-4.656998e-05
-0.00012631626
-0.00011414381
-5.5228498e-05
-0.00027411438
0.00014977473
-0.00011622159
-0.00033794709
4.5708829e-05
-0.00012808068
-0.00019273264
-0.00021285863
-0.00010089614
-0.0001015071
-0.00016649827
-2.5902773e-05
-3.2744969e-06
-0.00017225805
5.158057e-05
5.3094953e-05
-0.0001883373
1.6822363e-05
0.00013933435
-0.00022657214
3.490897e-06
0.00022281137
-0.00021995236
-4.2263283e-06
0.00014573813
1.4408843e-05
-9.201588e-05
0.00014305423
-0.00010943114
-0.00010156182
0.00016525214
-0.00016470166
-0.00017892553
0.00015685262
-0.00017065618
-0.00017792108
7.0755672e-05
-0.00015301985
-0.00014686412
1.9931932e-05
-0.00014901129
-0.00015572815
0.00012110253
-0.00011275035
-2.1505846e-06
-0.00018907465
-7.8506501e-05
-5.573248e-05
6.6729406e-06
-2.4076318e-05
-0.00022385271
9.5025998e-05
7.0246682e-08
-0.00021193014
-7.6302659e-05
9.2917046e-06
-9.1565909e-05
-0.00022578568
3.1287335e-05
-1.2665425e-05
-0.00018430437
-4.8803141e-05
0.00013966317
-0.00026410164
2.753429e-05
0.00011174989
-2.8120733e-05
-0.00028115149
0.00046577592
4.4117502e-07
-0.00017584073
3.0282945e-06
1.9009181e-05
-4.1733918e-05
-0.00033979544
3.7380145e-05
-0.00038067926
0.00044492715
-0.00013408911
-0.0003779021
-2.5900291e-05
-0.00013767165
-0.00017464604
-0.00050802389
-9.8000964e-05
-4.3469595e-05
-0.00036532448
-4.1950517e-06
5.1018146e-05
-0.00034962845
0.00011759746
0.00010531067
-0.00040980056
9.8465022e-05
0.00017828463
-0.00050545448
9.7317059e-05
0.00030118929
-0.00055514341
0.00010326613
0.00030729871
-0.00011295346
2.3626133e-05
0.00039694648
-6.7017513e-06
-0.00027994212
0.00054729495
-0.0001925545
-0.00032074073
0.00017156699
-0.00014664694
-0.00021340991
-7.7025917e-05
-0.00010822399
-0.0001299116
-8.8680951e-05
-0.0001030378
2.4011246e-05
-9.2428418e-06
-0.00013102767
0.00033621522
-0.00056120785
-2.9915022e-05
-8.6355435e-05
0.00043735177
-0.00012438045
-0.00059398221
0.00061898244
4.1220425e-06
-0.00050475072
-0.00021556622
0.00011966174
-0.00023302698
-0.00053723643
7.0213803e-05
-0.00014215394
-0.00044780906
3.7855936e-05
6.2821332e-05
-0.00062557044
3.3749789e-05
8.5759276e-05
8.3091699e-06
0.00013704925
0.00039024224
2.4728441e-05
0.00023030298
-5.6739167e-05
6.1362125e-05
-4.2068478e-05
-0.00013806593
8.34838e-05
6.6961133e-05
0.00022128717
-4.2891211e-05
0.00015161708
-0.000220352
2.0442343e-06
3.4704969e-05
-0.00036739078
-6.7950182e-05
9.8325726e-05
-0.00037956227
-5.772521e-05
4.5502541e-05
-0.00022775327
-3.7042313e-05
-5.0227536e-05
-0.00023733072
1.7038503e-05
-6.3762485e-05
-0.00041775407
7.8757544e-05
-0.0001753759
-0.00037266896
6.6779132e-05
-0.0001142938
-0.0001198047
3.2793995e-05
0.00027776647
-4.2067863e-05
-2.4294037e-05
0.00049425458
2.4841891e-05
-1.3173655e-05
7.1137973e-05
0.00017860454
-6.5461625e-05
-0.00011106783
0.00021747289
0.00018515645
-0.00041074769
0.00018462392
0.0002371763
-0.00013869403
0.00010113741
2.2202004e-06
-0.00015700942
0.00011351043
-4.4789264e-05
0.00032008398
0.00011669528
3.0105089e-05
0.00056783412
-1.2000028e-05
-3.7446298e-06
-9.0336083e-05
-0.00014826976
-0.00027661845
-0.00012543246
-3.6057643e-05
-0.00026606095
-0.00038528996
9.3024032e-05
-0.00033459334
-0.0004919902
7.3240467e-05
-0.00031178239
2.4940813e-05
0.00028511212
0.0001408417
2.8789477e-05
9.6999435e-05
0.00020126871
4.7014374e-05
-1.963442e-05
7.4022741e-06
-1.6281147e-05
0.00017724996
-0.00015040705
8.8056997e-05
0.00013572971
-0.000200778
1.0626297e-05
0.00015459084
-0.0003437139
-5.2149742e-05
0.00016843513
-0.00039129721
-8.7439519e-06
2.4877436e-05
-0.00012284182
3.9940487e-05
-4.1022619e-05
-0.00015691877
8.6887831e-05
-3.1993297e-05
-0.00041653246
0.00012532187
-0.00010579846
-0.00035408208
0.00018414168
-0.00019237236
-8.6662202e-06
0.00018213225
8.0318317e-05
5.0359136e-05
0.00018807173
0.00019851639
6.953215e-05
0.00015171561
0.00015304426
0.0001045213
5.0736749e-05
2.6197105e-05
0.00014391554
0.00013028543
-0.00045508322
0.00010073869
-1.7925518e-05
4.8706947e-05
6.5583347e-05
-0.00022194641
0.00016103505
-2.8878265e-05
-0.00013136671
0.00017982246
9.4271193e-05
0.00017099875
0.00025727978
-2.7153984e-05
6.2563987e-05
0.00012186915
-0.00018748741
-1.6006623e-05
1.8017653e-05
-0.00015606429
4.0255435e-05
-0.00038363036
-7.1175408e-05
1.094844e-05
-0.00045163867
-7.2565231e-06
-0.00036215406
-0.00012367521
0.00016522568
7.9357675e-07
0.00035447888
1.4645196e-05
0.00043528859
1.6515118e-06
0.00038774381
-1.7864771e-05
0.00033889151
-1.9829365e-05
0.00019381827
6.3621032e-07
2.4285871e-05
5.4534932e-05
5.332025e-05
0.00011621819
0.0001040285
2.7882334e-05
-8.9336706e-05
-6.263346e-05
-0.0002608237
-8.5340307e-05
-0.00016695928
-9.542857e-05
-0.00010872793
9.7204003e-05
0.00014492715
0.00022025229
0.00020898652
0.00011708919
0.00029057187
-0.00034323883
0.0002315661
-0.00035711239
0.00025458785
-0.00020024569
0.00015737112
-3.5716854e-05
0.0001200299
0.0002024632
2.5482429e-05
0.00040799781
-0.00010900685
0.00054070546
-0.00014481547
0.00037091441
-0.00024846224
0.00017997336
-0.0002648345
-0.00017449373
-0.00014378809
0.00015030245
-6.0142773e-05
-0.00021642578
9.904177e-05
-6.6097206e-05
-4.8840589e-05
-0.00027392265
4.8992094e-05
-0.00022624279
0.00012610162
-6.0882227e-05
-0.00031830688
3.1845923e-05
-6.3693239e-05
-0.00012148659
-0.00028203625
-1.5525151e-05
5.4163512e-05
-0.00027749038
7.4521539e-05
8.6622902e-05
-0.00011169711
0.00013043301
9.4257554e-05
-0.0001346786
0.00014404928
0.00016132359