/*--------------------------------*- C++ -*----------------------------------*\
| =========                 |                                                 |
| \\      /  F ield         | OpenFOAM: The Open Source CFD Toolbox           |
|  \\    /   O peration     | Version:  v2012                                 |
|   \\  /    A nd           | Website:  www.openfoam.com                      |
|    \\/     M anipulation  |                                                 |
\*---------------------------------------------------------------------------*/
FoamFile
{
    version     2.0;
    format      ascii;
    class       volVectorField;
    location    "250/bottomWater";
    object      U;
}
// * * * * * * * * * * * * * * * * * * * * * * * * * * * * * * * * * * * * * //

dimensions      [0 1 -1 0 0 0 0];


internalField   nonuniform List<vector> 
1460
(
(-0.001682291 -0.014897031 9.1095477e-05)
(-0.00080238971 -0.010222803 0.0011348216)
(0.001722875 -0.011283988 -0.00064980151)
(0.0036139839 -0.013389079 -0.0014595254)
(0.0030489285 -0.013667794 -0.00097144613)
(0.0011598739 -0.015005485 -0.0005303823)
(0.00065507393 -0.015784453 0.00041751289)
(-0.0026783812 -0.012069055 0.00043331531)
(-0.0019000063 -0.01071813 0.0011589932)
(0.0011850702 -0.010293286 0.002262342)
(8.2240762e-05 -0.014734565 0.0014935995)
(-0.0018439591 -0.016373046 -0.0010663789)
(-0.0029081731 -0.014721196 -0.00066414184)
(-0.0045741805 -0.01478949 -0.0003879614)
(-0.0032595505 -0.011874267 -0.00072858066)
(-0.00049711075 -0.011514761 0.00091999725)
(0.0017729268 -0.011636848 8.8912223e-05)
(0.002692974 -0.016850582 0.00069530977)
(-0.00010619389 -0.016261231 0.0011140683)
(-0.0021766567 -0.011598567 0.0016611128)
(0.0002054215 -0.010439698 0.0010542487)
(0.0013659327 -0.015038958 0.0018046802)
(-0.0011541684 -0.016710313 0.0015189588)
(-0.0037988178 -0.014383937 0.0010549833)
(-0.0034763874 -0.011540745 0.0009013009)
(-0.0021080015 -0.011939804 0.00093457443)
(0.00073841423 -0.011885097 0.0013422771)
(0.0025969115 -0.011048764 0.0014108544)
(0.0031019005 -0.013351382 0.0014981799)
(0.0017649166 -0.016429056 0.0015859568)
(-0.0035704462 0.015446171 0.0016123875)
(0.00070889095 0.00033695473 0.0013004133)
(0.00042728495 0.0025370665 -4.108293e-05)
(0.0052900123 0.012720695 -0.0014993425)
(0.0054131943 0.015501309 -0.0012042166)
(0.0035449115 0.016674013 -0.00056535396)
(-0.0020715927 0.017263262 0.0012088033)
(-0.004748026 0.013153464 0.00078064838)
(0.00074914095 -0.001945658 -0.00029914935)
(0.0001671353 0.00025055359 0.0012101724)
(0.0048345617 0.015054209 -7.6801867e-05)
(0.00099091577 0.017237899 -0.0021826005)
(-0.0054664002 0.016585903 -0.001085328)
(-0.0058849062 0.014104828 -0.0008555271)
(-0.0025144492 0.0042615269 -0.00087503808)
(0.0018635117 0.0024346473 0.00031262565)
(0.003259604 0.0029404816 0.00024907424)
(0.0068062456 0.015904059 0.00096494973)
(0.0016519447 0.017844305 0.0020045367)
(-0.0023974878 0.0059434942 0.00094101302)
(0.0025480608 0.00017632939 0.00065286724)
(0.0050602332 0.011878926 0.0014784114)
(0.00056597398 0.017808523 0.001756455)
(-0.0077339612 0.013718938 0.0015102534)
(-0.0044033355 0.0029416434 0.00035241822)
(-0.003651221 0.00094421828 0.00043114889)
(-0.00047983016 -0.0012686226 0.00063934068)
(0.0013373871 0.0018646948 -9.35267e-06)
(0.002657713 0.010758658 0.00068660491)
(0.002476857 0.01753604 0.0027844298)
(0.0027583922 -0.011545189 0.00036453123)
(0.0033140881 -0.012606001 7.0683911e-05)
(-0.0026178194 -0.012806992 0.0015691564)
(-0.0035080129 -0.013195102 0.002519958)
(0.0012064589 -0.0049926109 0.0013531668)
(0.0022156466 0.00099385616 0.0010451197)
(0.0016309046 0.00050791035 0.0010684565)
(0.0059406266 -0.012286036 -0.00033308529)
(0.0031380576 -0.014074955 -0.001571883)
(-0.0033162713 -0.012976662 -5.9988292e-05)
(-0.0033552734 -0.011539233 0.00018239849)
(0.00020849551 0.0037787229 0.00010932986)
(-0.0027287261 0.0029044451 -0.00089698158)
(0.0037751508 -0.014998608 -0.0021701709)
(0.00045989144 -0.013926633 -0.0012996932)
(0.0017640763 -0.012411615 -0.00028475115)
(-0.00028313294 -0.01347201 0.00058159391)
(-0.0018757717 -0.015495793 0.0016980202)
(-0.00065146076 -0.0023328606 0.0024372189)
(0.0013149463 -0.012594066 -0.0021261029)
(0.0021045586 -0.013398077 -0.00096979796)
(-0.0021760877 -0.013669652 -0.0010515366)
(-2.3657338e-05 0.0030932777 0.00060590916)
(-0.00010700883 -0.0098757525 0.00028007675)
(0.00032344116 -0.013645944 -0.0015325457)
(-0.0022830197 -0.012519324 -0.0010559325)
(-0.0012790645 -0.013632644 -0.0012513454)
(-0.0018538867 -0.012576246 -0.0027532975)
(-0.0015951616 -0.014214393 -0.0032478967)
(-0.00152656 -0.011707778 -0.0021356036)
(0.00077856456 0.0017679478 -0.0007596534)
(0.00022731028 0.00021566209 -0.0012696784)
(-0.0015398443 0.0032643755 -0.00067214488)
(-0.0029660397 0.0030049614 -7.7816878e-05)
(-0.0032323346 0.0050319642 0.0015651887)
(9.6000788e-07 0.0081436742 0.0017241876)
(0.0029425905 0.0072854347 0.0019002825)
(0.0044220709 0.0091306259 0.00089559973)
(0.0016454624 0.0063635946 0.0009943352)
(0.0013240755 0.0009826791 0.00042436414)
(-0.00081823875 0.010496734 0.0025387481)
(-0.0013499637 0.0085212619 0.0018807849)
(0.0020890497 0.007485068 -0.00021297583)
(0.0033018249 0.0098932299 -0.0018671209)
(-0.0027433356 0.0038821774 -0.0018736177)
(0.0011805605 -0.0033056422 0.00024468619)
(-0.00081242825 -0.00024042553 -0.0001563908)
(-0.0025074483 0.01108524 0.0016802758)
(-0.0039779299 0.0047171916 0.00041120033)
(-0.0002913682 -0.0020458245 -0.0018931156)
(0.000943098 0.00019954818 -0.00081854625)
(-0.0014933054 0.011191562 0.0014898721)
(-0.0019128253 0.0072541979 0.00044681528)
(0.0025418329 0.0095207332 -0.0015260353)
(-0.0016539322 0.0047443356 0.0002577991)
(-0.0002770372 -0.0028741336 -0.0017645665)
(-0.00084989815 -0.005052526 -0.00094837899)
(-0.00046129428 -0.00021760554 -0.0023173272)
(0.0019964853 0.009688017 -0.0045884868)
(0.0002365418 0.011489266 -0.0048600313)
(-0.00083845853 -0.0087625195 -0.0026924632)
(-0.0023421701 -0.0083018738 -0.0040684688)
(-0.0027985927 -0.0077858812 -0.0044232914)
(-0.0022311987 -0.008958204 -0.0041480535)
(-0.0029632785 -0.0087619741 -0.0024875517)
(-0.0022450303 -0.0054077762 -0.0014359834)
(8.9296612e-05 -0.0067361061 -0.002302191)
(1.9433673e-06 -0.0097049341 -0.0023301343)
(0.0018555037 -0.011150525 -0.0020921366)
(-0.0025930175 -0.0090661183 -0.0012268271)
(-0.0035741845 -0.0074946724 -0.00066221429)
(-0.00085224605 0.0013271735 0.001378958)
(0.001852119 0.00061085625 0.001177914)
(0.0036025327 -0.0018110197 0.00062630133)
(0.0050546405 -0.0059533573 0.00096238055)
(0.0023324929 -0.0093156654 -0.00075768805)
(-0.0033851068 -0.0084610919 -0.0031083177)
(-0.0023789223 -0.0090732602 -0.0023187429)
(0.0013738833 -0.0071992992 -0.0024618531)
(-0.0019897066 -0.010289211 -0.0032041601)
(-0.0058314591 -0.0083262384 -0.0026692088)
(-0.0045976756 -0.007551968 -0.0020060978)
(-0.0022008788 -0.0019563115 -0.0016835199)
(0.0016429503 -0.0050996861 -0.0027270652)
(0.0038326875 -0.0071898697 -0.0036238058)
(0.0038843896 -0.0086450963 -0.0040640826)
(-0.00090957021 -0.0096564596 -0.003167623)
(-0.0057109387 -0.0090358754 -0.0028950483)
(-0.0051190172 -0.0065331898 -0.0022275413)
(-0.0021526342 -0.0022482194 -0.0024415783)
(-0.0014399366 -0.015439388 0.00095999135)
(-0.0026001918 -0.012104348 0.0023106378)
(-0.00014640381 -0.013039767 0.00068688819)
(0.0033275248 -0.010825984 -0.00045333572)
(0.0040251639 -0.012013095 -0.00093959031)
(0.0016304374 -0.013707853 -0.00098258887)
(0.00034826769 -0.015461948 -0.00031379704)
(-9.3553957e-05 -0.015472881 0.00075355083)
(-0.0011813097 -0.015657097 0.0032695472)
(-0.00034629724 -0.015388442 0.0027658565)
(-0.0027338433 -0.015312649 0.00090819576)
(-0.00054704603 -0.011611219 0.00069934223)
(-0.00058698723 -0.015138555 -0.00013764709)
(-0.0043351066 -0.013637387 0.00035081719)
(-0.0019665765 -0.011257465 -0.0002201144)
(-0.00033005924 -0.01384084 -0.00033817775)
(0.001364263 -0.012221489 0.0015903357)
(0.0027977647 -0.015613446 0.0013759932)
(0.0020463984 -0.016765185 0.0010816825)
(-0.0016411229 -0.013892031 0.0017189846)
(-0.00068087401 -0.010000689 0.0026728611)
(0.00015831095 -0.018004245 0.0014047353)
(-0.00095597726 -0.017284251 0.0016316499)
(-0.0027576319 -0.015385428 0.0016526998)
(-0.0024745643 -0.01422139 0.0026941832)
(-0.001459266 -0.011837516 0.0025246052)
(0.0024094495 -0.010946607 0.0026802072)
(0.0030351858 -0.01234081 0.0024237461)
(0.00207545 -0.013674222 0.0014208288)
(0.00073430399 -0.015015803 0.0010634731)
(-0.0031649716 0.01634589 0.0033075805)
(-0.0030762534 0.0085840659 0.0036781162)
(0.00050547654 0.0002223083 0.0019684959)
(0.0016956922 -0.00048549953 -0.00057117746)
(0.0059173125 0.012710535 -0.0002563187)
(0.0037646979 0.015919912 -0.00062263808)
(0.0002059297 0.017253977 -0.0019822187)
(-0.0024214957 0.017269147 0.00093560585)
(-0.0018276706 0.016294921 0.0052048884)
(-0.0015834558 0.016496151 0.0037956608)
(-0.0035189542 0.016935648 0.00090028937)
(0.0023732348 0.0035891246 -0.0001160613)
(-0.00066395753 0.016515658 -0.00046964413)
(-0.0053733108 0.0136681 0.00021221242)
(-0.00080009522 -0.00039604479 -0.00060190291)
(0.001381653 0.010016541 -6.8502262e-05)
(0.0031767635 0.0024023617 0.0023104042)
(0.0071115251 0.013183816 0.0033293056)
(0.0049921721 0.0180802 0.0033140283)
(-0.0029270968 0.01521531 0.0046271147)
(0.00247677 0.0032809727 0.0015963896)
(0.0047151108 0.017448618 0.0021971044)
(0.0015293821 0.018898407 0.0029720339)
(-0.0072595935 0.016325752 0.0039993133)
(-0.0063377782 0.011376549 0.0037401601)
(-0.0044019438 0.0050941759 0.0028167566)
(-0.00054429304 0.0058084785 0.0031139012)
(0.0037794847 0.013542619 0.004835561)
(0.0034579903 0.01562876 0.0041755084)
(0.0019973285 0.016693421 0.0037919689)
(0.0016788709 -0.0050420408 0.0022100982)
(0.0052576488 -0.012436193 0.0017962867)
(0.0020429154 -0.013755871 0.0014869324)
(-0.0039467494 -0.013967127 -0.0014681756)
(-0.0045642404 -0.01187021 -0.00036821228)
(-0.00015893799 0.0012678832 -0.00029530077)
(-0.00064695877 0.0044960323 -0.0011465682)
(-0.0013025422 -0.00095379658 6.4325528e-05)
(-0.00096811609 -0.013597792 -0.0003687975)
(-0.0020384895 -0.0062411607 0.00077798463)
(0.0037336095 -0.014686157 -0.0010136626)
(0.00096647338 -0.01365839 -0.00052563612)
(-0.0029782702 0.00015221053 -0.00066167894)
(0.0040002196 -0.012928178 -0.0014051235)
(0.0012308141 -0.013705756 -0.0013577644)
(0.0027267897 -0.01330564 0.00060028993)
(-3.3004865e-05 -0.015254349 0.0019824674)
(-0.0041892418 -0.014860317 0.0020171441)
(0.0011593759 0.0033483466 0.0023985694)
(0.0010615209 -0.0078571015 0.00028266192)
(0.0025446202 -0.013657417 -0.00081415552)
(-0.0043640013 -0.013506358 0.0009700613)
(0.001367753 0.0063196679 0.0017981925)
(-0.0031878229 0.0025354044 0.00084214118)
(0.0022950339 -0.014162631 -0.0031858259)
(-0.0044717179 -0.013302329 -0.00097144555)
(-0.0040557946 -0.012680591 -0.0016166522)
(-0.0036964527 -0.010998638 -0.0021705333)
(-0.00050005314 -0.00034221702 0.00032107193)
(-0.00019541471 0.0033496139 0.0012959816)
(0.00053464565 0.0019495459 -0.00098261622)
(0.0034442932 0.0075534348 0.0028644387)
(-0.0018849419 0.010110568 0.0022897343)
(-0.0038930096 0.0092916342 0.00084303675)
(-0.0048919961 0.0080916232 0.00047056579)
(-0.0025728469 0.0070250871 0.00078846206)
(0.00023117347 0.0083622119 0.0015938229)
(0.0018607067 0.0074872417 0.0017993502)
(0.00037034607 0.01217358 0.0019564969)
(0.0011295127 0.0078265001 0.00098547086)
(0.002146947 0.01129381 -0.00078018806)
(-0.0036181502 0.0092593989 0.00051177679)
(-0.0012032807 0.0070188802 -0.00069425898)
(0.0026714106 0.0027375679 -0.0018773163)
(-0.0012778816 -0.0041140029 -0.0022650713)
(0.0012742693 0.0066212613 -0.0015575812)
(3.1332656e-07 0.010094782 0.001695272)
(-0.0039181231 0.01084239 -1.3666211e-05)
(-0.0014224689 0.0072775073 0.0019928652)
(0.0018875452 0.0030797277 -0.0028775009)
(0.0027068286 0.0038633409 -0.00063361055)
(-0.0037117692 0.012880482 -0.00057261649)
(-0.0017170123 0.0091594433 0.0016976886)
(0.0010139578 0.0079981624 -0.0013469992)
(0.0023770828 0.0093264754 -0.0022051151)
(-0.0044043168 0.0056835016 0.001497369)
(-0.0021398259 0.00053346466 -0.00079897247)
(-0.0042108468 0.0066741637 -0.0019535688)
(-0.0020091869 0.0074246516 -0.0023678276)
(-0.00068628564 0.0087492606 -0.00056038085)
(-0.0026769769 -0.0088296077 -0.0031576627)
(-0.003797989 -0.0074079252 -0.0035498691)
(-0.0027650945 -0.0027535099 -0.0028110018)
(-0.00086974439 -0.0057192928 -0.0040277985)
(-0.0011377374 -0.0087053027 -0.0026652951)
(-0.0026308758 -0.0018408366 -0.00093730768)
(0.00027760649 0.0020411524 -0.00036476817)
(0.00095098309 -0.0010735022 -0.0016729303)
(0.0019450793 -0.011252689 -0.00087236933)
(-0.0027651196 -0.0081642913 -0.00096985623)
(-0.00049601302 -0.00099236939 8.9906534e-05)
(0.0011390261 -0.0034689792 0.001290135)
(0.0031744123 -0.004189851 0.0013665481)
(0.0042237193 -0.0087875951 0.0015861887)
(-0.0030498077 -0.0098919253 -0.0025443856)
(-0.0051623122 -0.0091954825 -0.003489023)
(-0.0035942062 -0.0048952627 -0.0022517835)
(-0.0028400944 -0.0040002829 -0.0021996464)
(0.0015550391 -0.0019181318 -0.002268672)
(-0.0010108264 -0.010340881 -0.0036182002)
(-0.0061344155 -0.0069560267 -0.0029963385)
(-0.004673401 -0.0022686838 -0.0017362125)
(-0.001812394 0.0011894882 -0.000961087)
(0.0013132371 0.00082379647 -0.0030613658)
(0.0037374968 -0.0017824966 -0.0035001278)
(0.0046946408 -0.0059886679 -0.0044280565)
(0.0025718205 -0.0098847476 -0.0037375959)
(-0.0042062199 -0.0091602481 -0.001973835)
(-0.0031871498 -0.0025657109 -0.00086228637)
(-0.0017718236 0.00084463123 0.00045543256)
(-0.00057230655 -0.015170521 0.0017410566)
(-0.0033763683 -0.013451288 0.0020752848)
(7.1652941e-05 -0.011379342 0.0013303216)
(0.0034063732 -0.014605158 0.0014519972)
(0.0018554115 -0.015398022 -0.00015303066)
(0.00057564622 -0.014663809 -0.0018147986)
(0.00013420542 -0.01380645 -0.0030099548)
(0.00037145039 -0.014346664 -0.0033300041)
(0.00024495875 -0.014820665 -0.0011255767)
(0.00048701593 -0.014606283 -2.6069772e-06)
(3.810771e-05 -0.014207769 -0.0017430408)
(-0.00079724257 -0.014983261 0.00085192059)
(-0.00045777022 -0.013729858 -0.00026518317)
(-0.0037980437 -0.011020955 0.0012811767)
(-0.0031984366 -0.009900703 0.0011651032)
(-0.00025470392 -0.011854546 -0.00021763577)
(0.0019070961 -0.012053292 0.0022272696)
(0.0023157311 -0.0144463 0.0017863694)
(0.0010805985 -0.016530087 0.0018436768)
(0.00011385032 -0.016660431 0.0017126114)
(-0.001853052 -0.012596055 0.0025988659)
(-0.00099676334 -0.012114155 0.00045529743)
(0.00055144622 -0.016869215 0.00018944192)
(0.0003638632 -0.017983353 -0.0005421844)
(-0.0003288982 -0.014841534 -0.00040321504)
(-0.00043837518 -0.017309738 -0.001331975)
(0.0019659479 -0.012492184 -0.0019081845)
(0.0019806074 -0.013388612 -0.0013733294)
(0.00099556759 -0.016040371 -0.0011882419)
(0.00069574546 -0.016184209 0.00039258032)
(-0.0032571533 0.016700102 0.003855587)
(-0.0045892496 0.013999237 0.0039829617)
(0.0011274402 -0.00057714404 -5.0280631e-05)
(0.0055113081 0.013604707 0.0028295519)
(0.0036836799 0.016933091 0.00080983959)
(-0.0015767949 0.016110322 -0.0035011364)
(-0.0015221789 0.014458279 -0.005960815)
(0.00063090715 0.014459664 -0.0054487699)
(0.0016148308 0.016739279 -0.0010573202)
(0.0020281322 0.016612065 -0.00080542631)
(0.0018899355 0.016414142 -0.0017473663)
(-0.00025687912 0.016378591 0.0019412371)
(-0.003202334 0.015948175 0.00072873759)
(-0.004581047 0.013147146 0.0015782454)
(0.00049752097 0.0024149348 0.00068379367)
(0.0025903767 0.00086409719 1.194393e-05)
(0.0049782825 0.0067567572 0.0015611037)
(0.0070376359 0.015097518 0.0024748453)
(0.0044871485 0.017926563 0.0023176683)
(-0.0022000699 0.018056188 0.0037980767)
(-0.0023699289 0.014870695 0.0029801392)
(0.0030988415 0.006143994 0.0011679368)
(0.0056887089 0.016883473 0.00026157458)
(-0.0010940346 0.018771283 0.00090832552)
(-0.0055422319 0.016983111 0.0011039569)
(-0.0044822539 0.015708896 -0.00080538928)
(-0.0026579503 0.011606235 -0.0022934964)
(0.0025377068 0.015695929 -0.0022913299)
(0.00056909481 0.017572828 -0.0042033542)
(0.00056009732 0.017495516 -0.0030154175)
(-0.00074919621 0.0010113897 0.0019498394)
(0.0053081435 -0.012590786 -0.001843847)
(0.0013867879 -0.014614192 -0.0035620828)
(-0.0038525571 -0.011428931 -0.0049266302)
(0.0020343069 0.0025409854 -5.1310926e-05)
(-0.00038528379 0.00072460418 -0.00091041581)
(0.0023952267 -0.013648546 0.0047483547)
(-0.00068959042 -0.014789565 0.0056628506)
(-0.00017727319 -0.0047489995 0.0015320327)
(0.00034308743 -0.0016656714 -0.00052990659)
(0.00046549384 -0.00030778531 -0.0014185088)
(0.00061008489 0.00044852313 -0.00057931259)
(0.00081272858 -0.0015930666 -0.0012763509)
(0.0049088861 -0.011578877 -0.0006203686)
(0.005002148 -0.012883576 -0.00077929862)
(0.0023772428 -0.013883476 -0.0012685093)
(-0.0035045961 -0.012774683 -0.0034167317)
(-0.0018094817 -0.0045871516 -0.0021566246)
(0.0016684477 0.0057173041 0.0012122174)
(0.00013353208 0.0026754991 0.0036796139)
(0.0049909794 -0.011468919 0.0016152359)
(0.00051497031 -0.015115877 0.0019276554)
(-0.00085967835 0.00094881412 0.0012319437)
(0.00024854742 0.0070520282 0.00045733775)
(-0.0014857277 0.0014206845 -0.00038852835)
(0.0013168705 -0.017060697 0.00061204331)
(-0.0036495572 -0.013563176 -0.00059891939)
(-0.0022712848 -0.0042136702 -0.0038415992)
(-0.0020259696 0.0012011294 -0.0049337799)
(-0.0012230615 -0.0027004642 -0.0029929256)
(0.0022361621 0.0056777937 0.00033432053)
(0.0046957279 0.010035799 -0.0011522766)
(0.0016469119 0.010458466 -0.00063572612)
(-0.0031833125 0.01056126 -0.0042139815)
(-0.00086254086 0.0074286377 -8.7553821e-05)
(0.0023715197 0.0074822925 0.00094435126)
(0.0041935349 0.010610876 0.0030313927)
(-0.0016180494 0.010820745 0.0037935826)
(-0.0031697095 0.0081878909 0.0023636726)
(-0.0006581269 0.007747007 0.0012408653)
(0.00067115965 0.0074829141 -0.0020998136)
(0.00086078617 0.0080583182 -0.0016931311)
(0.0024033637 0.0071045951 -0.002125255)
(0.0042196333 0.0035830296 -0.0013359661)
(0.0014755778 -0.00055394597 -0.0012750195)
(0.00042515581 0.0085153097 -0.0023251736)
(-0.0034075502 0.0085266538 -0.0035879881)
(-0.0036859403 0.0075458546 -0.0035482273)
(-0.00078442212 0.0090975029 0.0010802054)
(0.0027165278 0.006542279 0.00087540353)
(0.0063111935 0.0098552102 0.001538614)
(-0.00038670692 0.0099804038 0.00011161718)
(-0.0035269567 0.0077508701 0.0034327639)
(0.00032230143 0.010936725 -0.00019824385)
(0.002631116 0.0068998097 -0.0019100252)
(0.0012056154 0.010826962 -0.00099505128)
(-0.0056831972 0.0076930635 -0.0004628176)
(-0.0033504236 0.0040508406 -0.0013506066)
(-0.0023220303 0.0076572666 -0.0034388937)
(-0.00031590873 0.0086916345 -0.0010412892)
(-0.0018296928 -0.007504179 -0.0031519886)
(-0.0025273796 -0.0067008582 -0.0024097039)
(-0.0013564248 -0.0019801061 -0.0019973242)
(-0.00054503448 -0.0010788089 -0.002991857)
(0.0010001481 -0.00079994784 -0.00018766588)
(0.00021064013 -0.0028215648 0.001684317)
(0.00061323857 -0.0029507392 0.0034436365)
(0.00077998707 -0.00082315933 0.00298994)
(0.0027158789 -0.0046667419 0.0029625893)
(0.00087866463 -0.0068961408 0.0027000301)
(-0.00083481724 -0.0029149121 0.0027991202)
(0.0010911279 -0.00072680038 0.0015494075)
(0.0025946574 -0.0035164967 0.00066842423)
(0.0041386782 -0.009217656 0.00056797853)
(-0.0030454959 -0.0088732482 -0.003460424)
(-0.0048394336 -0.007647107 -0.0038993996)
(-0.0039933232 -0.0049688235 -0.0030095029)
(-0.0034475996 -0.0023248558 -0.0028717935)
(0.00029405826 0.00194203 -9.3699505e-05)
(0.00016698887 -0.0089272609 -0.0026988913)
(-0.0048494702 -0.0082841508 -0.00050141899)
(-0.0036656285 -0.0024926751 0.00048303172)
(-0.003858068 0.0004902247 0.00091691355)
(0.00050924248 0.0048199585 -0.00086863807)
(0.0035176522 0.0004526875 -0.0017863178)
(0.0035959158 -0.0012793579 -0.0020040319)
(0.0051356079 -0.0074231063 -0.0021482291)
(0.000448344 -0.010106749 0.0003606914)
(-0.0033895708 -0.0037769178 0.00029637298)
(-0.000944082 -0.00046189092 0.00026585006)
(3.7986487e-05 -0.014632549 0.0014320108)
(-0.0019590738 -0.01454179 0.00032437505)
(-0.0019954599 -0.01582976 -0.00099914916)
(-0.0027828408 -0.014768793 -0.0022053603)
(-0.0040284178 -0.014146185 -0.0027106042)
(-0.0038427326 -0.012717815 -0.0031954731)
(-0.0021425347 -0.011567461 -0.0022343736)
(0.0011360185 -0.012002128 -0.00067495576)
(0.0034426836 -0.013108678 -0.0023725989)
(0.003197507 -0.013496679 -0.0031715778)
(0.0020629041 -0.013065107 -0.0035824019)
(0.00013254011 -0.014182928 -0.0032719292)
(0.00050090683 -0.015246608 -0.0022313438)
(-0.0029467924 -0.011242643 -4.4578058e-05)
(-0.0027605045 -0.011097426 0.00036298658)
(-0.00042809643 -0.015601461 0.0011392816)
(-0.00070585535 -0.014534128 0.0011099131)
(-0.0011543183 -0.016484961 -0.00081897827)
(-0.0011821052 -0.015584363 -0.00029970024)
(-0.001557353 -0.014528709 -0.00010461333)
(-0.0029682655 -0.012890177 -0.00059072756)
(-0.0012420857 -0.011296168 0.0012380495)
(0.00077279339 -0.017439187 -0.002373428)
(-0.00035678025 -0.018169664 -0.0017520318)
(-0.0023230942 -0.01552784 -0.0019859776)
(-0.0016443746 -0.012556225 -0.0011772441)
(0.0010134049 -0.011560226 -0.0014678188)
(0.0027426279 -0.013194836 -0.0028494133)
(0.0011053818 -0.015281485 -0.002961846)
(0.00048403888 -0.017391022 -0.0013133678)
(-0.0013964636 0.016278077 0.0021200345)
(-0.0036268638 0.016772545 0.00066445748)
(-0.0027252147 0.017635602 -0.0016057269)
(-0.0037752403 0.017041939 -0.0030092962)
(-0.0056483144 0.01581721 -0.0039860983)
(-0.0038950847 0.010194387 -0.0034340349)
(-0.00074532596 0.00081103475 -0.001003905)
(-4.7870127e-05 -0.0020467327 0.0012107812)
(0.0031564811 0.010340382 -0.0019231948)
(0.004201825 0.014564946 -0.0043344539)
(0.0040366152 0.014734877 -0.0045615034)
(0.0034470721 0.016107572 -0.0034018659)
(0.00028094136 0.01696357 -0.0013012652)
(-0.0036857377 0.014158932 0.00057853189)
(0.0023756093 0.0063719782 0.00099008161)
(0.0040416584 0.012411205 0.0021359531)
(0.0055619596 0.015824865 0.0031498866)
(0.0022758648 0.017793908 0.00061453752)
(-0.0029709827 0.01741611 -0.0021684489)
(-0.0038427685 0.016797538 -0.0016284203)
(-0.0043275051 0.01516958 -0.0017764614)
(0.0032214715 0.0045126776 -0.00067858764)
(0.0060836825 0.016229955 -0.0031300842)
(0.0028458845 0.019261227 -0.0023585376)
(-0.0076527919 0.015521612 0.00011486633)
(-0.0032529672 0.0045266946 0.0010815596)
(-0.004041731 0.0017727492 0.00058816186)
(0.0028696933 0.013590822 -0.004304256)
(-0.0010210321 0.015394583 -0.0049824238)
(0.0010175783 0.018188458 -0.0031742287)
(0.00064272388 0.0017243494 0.0019562618)
(0.00041625134 -0.00032374043 0.00062499898)
(0.0003147612 -0.012105691 -0.0027651137)
(-0.0016564375 0.0021197172 -0.0029907757)
(0.0016237988 -0.0064882746 -0.0016732695)
(0.0033817857 -0.013400637 0.00088178848)
(0.002927827 -0.013772386 0.0014659103)
(-0.0021729871 -0.014479547 0.0034561995)
(-0.0048681546 -0.013791205 0.0029979432)
(-0.0033823751 -0.011738485 0.003128837)
(-0.0020374927 -0.010519255 0.0028062221)
(0.00068432186 -0.0013138353 1.2920033e-06)
(0.001452252 0.0012538846 -0.0012059781)
(0.0040235159 -0.006462144 -0.00036288164)
(0.004751609 -0.013143537 1.1469003e-07)
(-0.0015948603 -0.015273644 -0.0019853883)
(0.00060497404 -0.0002926565 0.0011592453)
(-0.0002552987 0.0054709192 -0.00082630847)
(-0.00046499792 0.0042080283 -0.00018990361)
(-0.0010403608 0.00057242245 0.00095287345)
(0.0032958537 -0.011569869 0.0013637661)
(0.0035659832 -0.014807004 0.00015664533)
(-0.0029634923 -0.012747963 0.0058014701)
(0.0030129943 0.0080813576 -0.0012690348)
(-0.0021138564 -0.00071046244 0.00013109607)
(0.0046519858 -0.013909316 0.0022291154)
(-0.0065732437 -0.014925407 0.0040540821)
(-0.0050242656 -0.014013513 0.0041942955)
(-0.0026356132 -0.014379175 0.0039271204)
(0.00033296536 -0.01679982 -0.00054168945)
(0.00075639002 0.0081743215 0.001559624)
(0.0035597279 0.0076555886 0.00092291986)
(0.0026270625 0.011802072 -4.9985843e-05)
(-0.0003260436 0.0076386782 -0.0035597637)
(0.0044303131 0.0078522632 -0.00065380962)
(0.0029135662 0.0070620148 8.8131804e-05)
(0.0029923546 0.0076351823 -0.00078563282)
(0.0024231249 0.0095928767 -0.00082197961)
(-0.0025442235 0.0096752034 0.0021885587)
(-0.0017064818 0.0051685431 0.0032740154)
(-0.0027219745 0.0038519868 0.0035081204)
(-0.0024551054 0.0042976302 0.0029933155)
(0.0015304473 0.0050569295 -0.00024354412)
(0.0045091736 0.0065004866 0.00072033012)
(0.0054250908 0.008922494 0.0016725348)
(-0.0012728394 0.010051199 0.00055468057)
(-0.0030533586 0.006723965 -0.00062369265)
(-0.0011360723 0.009485155 -0.0014697943)
(0.00012131677 0.0088381894 0.0020362019)
(0.0028095901 0.0066860041 0.0030549632)
(0.0036467224 0.0044419244 0.0026502261)
(0.0048361541 0.0082171589 0.0025352269)
(-0.0035521491 0.011457851 0.0037709334)
(0.0011202928 0.01042298 -0.00033800204)
(0.0019746203 0.0070050384 -0.00010327291)
(0.0044913628 0.0094110803 7.8313015e-05)
(-0.0015049965 0.010373814 3.6617409e-05)
(0.002378903 -0.0012353106 0.0023510048)
(3.2130081e-05 -0.00065253007 0.0027220173)
(0.001988451 0.011096463 -0.0026898022)
(0.0017789691 0.000477016 0.00013025908)
(0.0012542419 -0.0051706374 -0.00060910134)
(0.002168893 -0.0046155976 0.0018136523)
(0.0033243316 -0.0028233127 0.0019882785)
(0.0034501525 -0.0071399309 0.0028592946)
(0.0023574676 -0.0092492316 0.0040730005)
(-0.00021941332 -0.0091433536 0.0059068263)
(0.00066172317 -0.0029986027 0.00405503)
(0.0022746838 -0.0053290996 0.0037954712)
(0.0021316067 -0.0094102849 0.0042383158)
(-0.00083697715 -0.0092312966 0.0047317762)
(-0.00083473169 -0.0085026747 0.0030628824)
(-0.0018285602 -0.0088343171 0.00094802156)
(-0.0033039424 -0.0088497448 0.00031579866)
(-0.0032788916 -0.0045356578 -0.001125609)
(-0.0033620186 -0.002832087 -0.0014537472)
(-0.0030345086 -0.0011990593 -0.0013276029)
(-0.0016382193 0.0029744802 -0.001327102)
(0.0013485899 0.002096918 0.0026915948)
(0.0040892155 -0.0038187167 0.0015054887)
(-0.0024049589 -0.010233953 0.0034698187)
(-0.0045571788 -0.0058016682 0.0030602401)
(-0.0037584739 -0.00065971256 0.0028814557)
(0.0017079975 0.0036115381 0.0012003628)
(0.0036756524 -0.0016711922 0.00074950295)
(0.0051449306 -0.0051941761 0.00093052223)
(0.0063235222 -0.0081194324 0.0010020692)
(0.0058646989 -0.010318853 0.0021284363)
(-0.001063634 -0.01063195 0.0038205803)
(-0.0018919854 -0.008692358 0.0025102172)
(0.00071396656 -0.014027467 -0.00093849381)
(-0.0030392331 -0.013010245 -0.0011360789)
(-0.001294593 -0.012547662 -0.002729144)
(-0.0022178046 -0.014802385 -0.0024317173)
(-0.0046605648 -0.013906209 -0.0028731946)
(-0.0033281104 -0.011404759 -0.0030290868)
(-0.0018278547 -0.012661423 -0.0019414858)
(-0.00049329113 -0.013308754 -0.00030630803)
(0.00037387189 -0.012530347 -0.00180442)
(0.0010598214 -0.011399338 -0.0016070564)
(0.0025218244 -0.01039207 -0.0013248716)
(0.0027854657 -0.013604174 -0.002404102)
(0.0010304358 -0.01483871 -0.0021277968)
(-0.00077192655 -0.015047942 -0.0031610306)
(-0.0019336449 -0.013766532 -0.0034518622)
(-0.0026196217 -0.014184437 -0.003285353)
(-0.0016174332 -0.014037494 -0.0033088248)
(-0.002360002 -0.015663303 -0.0013340328)
(-0.0011223308 -0.011323733 -0.0016336389)
(0.0010349442 -0.020060648 -0.00051704318)
(-0.00247225 -0.016861364 -0.00047401897)
(-0.003043685 -0.013860866 -0.00078131969)
(-0.0020834495 -0.012200487 -0.0010219004)
(-0.00043918892 -0.011448308 -0.0023863788)
(0.0002397506 -0.010737697 0.00038497009)
(0.0028593909 -0.015181917 -0.00062618644)
(-0.0025948195 0.016020245 -0.0010420868)
(-0.0049040227 0.014783024 -0.0012212887)
(0.0012253247 0.0068387558 -8.0787506e-05)
(-0.0026598953 0.016613309 -0.0034772765)
(-0.0062435548 0.013716016 -0.003610251)
(-0.0027471363 0.0019296757 -0.0033098696)
(-0.0017588673 0.0049404645 -0.0019835293)
(0.00065256174 0.0053608282 -5.8699557e-05)
(0.00067566187 0.0039912345 -0.0002736336)
(0.0019324953 0.0014008871 0.00073346471)
(0.0025193313 0.00059453234 0.00082720528)
(0.004514554 0.012380892 -0.00042330616)
(0.0035304366 0.01643766 -0.0010731335)
(-0.0031741917 0.017054492 -0.0042389778)
(-0.0040187801 0.015640641 -0.0047060247)
(-0.0036327234 0.014423266 -0.0041039389)
(-0.0019735236 0.012928228 -0.0033391584)
(-0.0011212418 0.016829827 -0.0036319606)
(0.0019064971 0.0025823019 -9.2968987e-05)
(0.0055695335 0.018358783 -0.0022577477)
(-0.007543381 0.017414693 0.00054546606)
(-0.0068997873 0.0097170827 0.0011587843)
(-0.0048359412 0.0021730926 0.00040279181)
(-0.0015325559 0.0029650479 -0.0003483684)
(-0.0020171523 -0.00078133604 0.00070506915)
(0.0034039018 0.01615426 -6.1374708e-05)
(-0.00084698435 0.0018124038 0.00086892415)
(0.0040619806 -0.01360108 0.0026303759)
(0.0012474885 -0.013960776 0.0031104723)
(-0.0020200591 0.00046148923 -0.0028820983)
(0.0033856264 -0.013474457 -0.0020454139)
(0.00049769181 -0.013542699 -0.0021750814)
(0.00055126403 -0.012757625 -0.0016003996)
(0.0017010617 -0.012789752 -0.0019320693)
(-0.00066998263 -0.013036929 0.00086982284)
(-0.00045526008 -0.012942451 0.0027150992)
(-0.0012982601 -0.013385558 0.0019217465)
(-0.0032908401 -0.013869014 0.0029404266)
(0.00079811956 -0.00090370156 -0.00085304124)
(-0.0012634129 0.003726843 -0.0014491289)
(0.00048979316 -0.0080475307 0.0032715695)
(-0.00078108969 -0.015115442 0.0041797713)
(-0.00062076371 -0.013802973 0.0032581262)
(0.0056974724 -0.015942268 0.00092781691)
(-0.00086062607 -0.015471647 0.0040154747)
(0.0011930954 -0.0011554437 -0.00014517341)
(-0.0027030439 0.0057251247 0.00022247576)
(0.0033855892 -0.013579884 -0.00439187)
(-0.0034868247 -0.014608127 0.00021588625)
(-0.0030219623 -0.012915932 0.0015705309)
(-0.0041290537 -0.01383671 0.00053890362)
(-0.0034082643 -0.011853411 -0.0010149775)
(0.0021908001 0.0074501182 0.00073122819)
(0.0042154307 0.010899456 0.0029057558)
(-0.0015043554 0.0084237579 0.00063458436)
(0.001176434 0.0044055805 -1.8483033e-06)
(0.0026037308 0.0051033162 0.00038998018)
(0.0013244768 0.00055966048 -0.00029146653)
(0.0022442631 -0.00074771177 0.00063106651)
(0.0016502246 0.0042449318 0.00091643596)