/*--------------------------------*- C++ -*----------------------------------*\
| =========                 |                                                 |
| \\      /  F ield         | OpenFOAM: The Open Source CFD Toolbox           |
|  \\    /   O peration     | Version:  v2012                                 |
|   \\  /    A nd           | Website:  www.openfoam.com                      |
|    \\/     M anipulation  |                                                 |
\*---------------------------------------------------------------------------*/
FoamFile
{
    version     2.0;
    format      ascii;
    class       surfaceScalarField;
    location    "10/topAir";
    object      phi;
}
// * * * * * * * * * * * * * * * * * * * * * * * * * * * * * * * * * * * * * //

dimensions      [1 0 -1 0 0 0 0];
oriented        oriented;


internalField   nonuniform List<scalar> 
3140
(
9.1285952e-06
5.970812e-08
8.0984293e-08
8.9693988e-06
5.7787419e-08
1.0203033e-07
8.8205753e-06
4.3605551e-08
1.0612161e-07
8.6753933e-06
3.9798085e-08
1.0654894e-07
8.5312919e-06
4.1222944e-08
1.0428471e-07
8.3900811e-06
4.3953356e-08
9.888582e-08
8.2533514e-06
4.7863728e-08
9.0698969e-08
8.1217981e-06
5.3298555e-08
8.0277006e-08
7.9957154e-06
6.0370232e-08
6.7911106e-08
7.8753848e-06
6.9158614e-08
5.3535621e-08
7.7610288e-06
7.9792652e-08
3.7082189e-08
7.6525126e-06
9.2390314e-08
1.8790127e-08
7.5485674e-06
1.0731921e-07
-5.7481528e-10
7.4572539e-06
1.2525036e-07
-3.1022339e-08
7.3773153e-06
1.4665565e-07
-6.369593e-08
7.3091274e-06
1.7178738e-07
-1.0048066e-07
7.2532475e-06
2.0115421e-07
-1.420664e-07
7.2094297e-06
2.3568647e-07
-1.8858109e-07
7.1764833e-06
2.7635811e-07
-2.4005505e-07
7.1521125e-06
3.2421397e-07
-2.964307e-07
7.1322941e-06
3.8059806e-07
-3.573269e-07
7.1101398e-06
4.4735443e-07
-4.2172555e-07
7.0739784e-06
5.271513e-07
-4.8751357e-07
7.0045768e-06
6.2361765e-07
-5.5076022e-07
6.868506e-06
7.4441204e-07
-6.0492889e-07
6.608208e-06
9.0294165e-07
-6.3929837e-07
6.1236527e-06
1.1239415e-06
-6.361273e-07
5.2323946e-06
1.4581178e-06
-5.6368367e-07
3.6062843e-06
1.9951817e-06
-3.658826e-07
3.0214225e-06
-1.3472091e-07
9.2763814e-06
-3.1375413e-08
8.3671001e-08
9.2783217e-06
-5.1353412e-08
1.0722129e-07
9.2678151e-06
-6.0460396e-08
1.1461092e-07
9.2532544e-06
-6.5219115e-08
1.1963832e-07
9.2374941e-06
-6.598271e-08
1.2305317e-07
9.2204189e-06
-6.3364026e-08
1.2451196e-07
9.2020303e-06
-5.8138872e-08
1.2454809e-07
9.1824976e-06
-5.0691961e-08
1.2372327e-07
9.1618664e-06
-4.1047945e-08
1.2229925e-07
9.1400296e-06
-2.903558e-08
1.2033756e-07
9.1167903e-06
-1.4404349e-08
1.178077e-07
9.0924868e-06
2.5007208e-09
1.146383e-07
9.0656691e-06
2.3955256e-08
1.1071042e-07
9.0363292e-06
4.9027675e-08
1.0618556e-07
9.0040223e-06
7.8989892e-08
1.0070157e-07
8.9682584e-06
1.1444726e-07
9.3952535e-08
8.9289561e-06
1.5577152e-07
8.5668287e-08
8.8852289e-06
2.0501157e-07
7.5537269e-08
8.8357629e-06
2.6374951e-07
6.338061e-08
8.7786907e-06
3.3351027e-07
4.9272451e-08
8.7108083e-06
4.1652783e-07
3.3659323e-08
8.6263442e-06
5.1609111e-07
1.7661313e-08
8.5147885e-06
6.3722541e-07
3.6549147e-09
8.3583027e-06
7.8821515e-07
-5.7344287e-09
8.1251707e-06
9.8324844e-07
-3.1139156e-09
7.7599661e-06
1.2461309e-06
2.483155e-08
7.1711036e-06
1.6205967e-06
9.5188208e-08
6.2102368e-06
2.186979e-06
2.3506783e-07
4.6161234e-06
3.0807644e-06
5.1161525e-07
4.4774691e-06
1.0045531e-06
9.283211e-06
-1.2957596e-07
8.3942908e-08
9.2716001e-06
-1.4746943e-07
1.0772743e-07
9.2402337e-06
-1.4452398e-07
1.1543128e-07
9.1976362e-06
-1.4348053e-07
1.2086159e-07
9.1478976e-06
-1.411086e-07
1.2486888e-07
9.0930479e-06
-1.3570266e-07
1.2719519e-07
9.0347714e-06
-1.2836803e-07
1.2851566e-07
8.9744856e-06
-1.1997589e-07
1.2958385e-07
8.9132994e-06
-1.1073729e-07
1.3089468e-07
8.8521636e-06
-1.0064301e-07
1.3276851e-07
8.7920623e-06
-8.9704594e-08
1.354343e-07
8.7335311e-06
-7.795915e-08
1.3903303e-07
8.6783324e-06
-6.4648217e-08
1.4385721e-07
8.6268317e-06
-4.9451932e-08
1.5005413e-07
8.5792416e-06
-3.1206846e-08
1.5788639e-07
8.5326629e-06
-6.7129999e-09
1.6787454e-07
8.4864705e-06
2.1325082e-08
1.8082142e-07
8.43823e-06
5.680571e-08
1.9669208e-07
8.3867452e-06
9.9729328e-08
2.1583405e-07
8.3306302e-06
1.5096997e-07
2.3909313e-07
8.2673468e-06
2.126165e-07
2.6777214e-07
8.1925844e-06
2.876529e-07
3.039538e-07
8.0990113e-06
3.806162e-07
3.5115115e-07
7.9741058e-06
4.9896229e-07
4.1538296e-07
7.7962763e-06
6.5580492e-07
5.0679477e-07
7.5274075e-06
8.7526142e-07
6.4158858e-07
7.1033284e-06
1.2042115e-06
8.4264421e-07
6.4174811e-06
1.7327713e-06
1.1425205e-06
5.2877049e-06
2.6414351e-06
1.5717146e-06
4.1346277e-06
2.1772929e-06
9.05741e-06
8.1958794e-08
8.805101e-06
1.048395e-07
8.5489927e-06
1.1158429e-07
8.2899603e-06
1.155519e-07
8.0309918e-06
1.1786008e-07
7.7769645e-06
1.1832499e-07
7.5309775e-06
1.1761952e-07
7.2944499e-06
1.1655267e-07
7.0680071e-06
1.1570704e-07
6.8518629e-06
1.1550343e-07
6.645846e-06
1.1631555e-07
6.4493456e-06
1.1854571e-07
6.2620047e-06
1.22699e-07
6.0832881e-06
1.2927314e-07
5.9133585e-06
1.3873468e-07
5.7553576e-06
1.5130434e-07
5.6094572e-06
1.6725056e-07
5.4778826e-06
1.8841899e-07
5.360697e-06
2.1697547e-07
5.256424e-06
2.5533688e-07
5.1624676e-06
3.067178e-07
5.0746671e-06
3.7567403e-07
4.9867569e-06
4.688581e-07
4.8898587e-06
5.9635074e-07
4.7725028e-06
7.7387455e-07
4.6224415e-06
1.026345e-06
4.4352267e-06
1.3928697e-06
4.2581939e-06
1.9118176e-06
4.3292347e-06
2.5731333e-06
3.2159511e-06
9.2523011e-06
6.1635376e-08
3.6334416e-08
9.2309814e-06
5.9707973e-08
6.4257587e-08
9.2167346e-06
4.3834465e-08
7.7424007e-08
9.2033268e-06
3.7626023e-08
8.3473372e-08
9.1872403e-06
3.55456e-08
8.6200686e-08
9.1686358e-06
3.2878482e-08
8.6200275e-08
9.1480058e-06
2.9394328e-08
8.3718416e-08
9.1257373e-06
2.5320043e-08
7.9188768e-08
9.1022032e-06
2.0612008e-08
7.296294e-08
9.0777244e-06
1.5088824e-08
6.5211302e-08
9.0526532e-06
8.6789795e-09
5.5906148e-08
9.0274528e-06
1.66855e-09
4.4889064e-08
9.0048529e-06
-7.124917e-09
3.181536e-08
8.9808076e-06
-1.9044343e-08
1.4807451e-08
8.9589148e-06
-3.2884673e-08
-6.1165524e-09
8.938144e-06
-4.9354576e-08
-2.7504705e-08
8.9201132e-06
-6.864161e-08
-5.250928e-08
8.9051688e-06
-9.1039902e-08
-7.96942e-08
8.8934009e-06
-1.1699608e-07
-1.0838903e-07
8.88464e-06
-1.4687748e-07
-1.379134e-07
8.8780598e-06
-1.8069439e-07
-1.6722358e-07
8.8716956e-06
-2.1775358e-07
-1.9485994e-07
8.8614643e-06
-2.5589458e-07
-2.1875366e-07
8.8388394e-06
-2.8965285e-07
-2.3598866e-07
8.7876222e-06
-3.0930425e-07
-2.4208673e-07
8.679442e-06
-2.9600008e-07
-2.3299862e-07
8.466637e-06
-2.1722236e-07
-2.0417152e-07
8.0830699e-06
-2.5167838e-08
-1.530794e-07
7.3170365e-06
4.750252e-07
-7.2830738e-08
1.7558292e-06
2.0368305e-09
9.407953e-06
-3.1548551e-08
3.7870822e-08
9.5586228e-06
-5.1927849e-08
6.8207805e-08
9.6949908e-06
-6.1844334e-08
8.3958965e-08
9.8275569e-06
-6.8240098e-08
9.2995392e-08
9.9586958e-06
-7.1770339e-08
9.9310457e-08
1.0086106e-05
-7.3461853e-08
1.0354869e-07
1.020863e-05
-7.4472473e-08
1.0602384e-07
1.0326173e-05
-7.5568772e-08
1.0723252e-07
1.0438919e-05
-7.7221124e-08
1.0757852e-07
1.054707e-05
-7.9798983e-08
1.0729507e-07
1.0650896e-05
-8.3624187e-08
1.0653283e-07
1.0751031e-05
-8.8981171e-08
1.0542785e-07
1.084725e-05
-9.6243131e-08
1.0392893e-07
1.093853e-05
-1.0587391e-07
1.0209658e-07
1.1025302e-05
-1.1843101e-07
9.987963e-08
1.1107506e-05
-1.3416278e-07
9.6997692e-08
1.1185226e-05
-1.5359107e-07
9.3374646e-08
1.1258391e-05
-1.7714688e-07
8.8987828e-08
1.1326711e-05
-2.0532794e-07
8.3924401e-08
1.1389639e-05
-2.3853358e-07
7.8549436e-08
1.1446253e-05
-2.7673398e-07
7.3637854e-08
1.1495176e-05
-3.1896381e-07
7.0494529e-08
1.1534659e-05
-3.6235024e-07
7.1151784e-08
1.1561579e-05
-4.0031075e-07
7.8511055e-08
1.157071e-05
-4.1843192e-07
9.7341806e-08
1.1550977e-05
-3.8517476e-07
1.3410088e-07
1.1478683e-05
-2.4641169e-07
1.9695625e-07
1.1312161e-05
8.0010979e-08
2.9666914e-07
1.1032487e-05
8.1384847e-07
4.5278352e-07
2.0308064e-06
6.2153157e-07
9.4149122e-06
-1.3157309e-07
3.8008505e-08
9.5519386e-06
-1.4975503e-07
6.8528751e-08
9.6678186e-06
-1.4687913e-07
8.4587339e-08
9.7731191e-06
-1.4672229e-07
9.4045756e-08
9.8711603e-06
-1.4584285e-07
1.009041e-07
9.9615554e-06
-1.4251207e-07
1.0585636e-07
1.0044387e-05
-1.380557e-07
1.0927587e-07
1.0120233e-05
-1.3355832e-07
1.117386e-07
1.0189603e-05
-1.2943532e-07
1.1375446e-07
1.0252805e-05
-1.2589849e-07
1.1568543e-07
1.0309984e-05
-1.231574e-07
1.1781132e-07
1.036112e-05
-1.2144576e-07
1.2039016e-07
1.0406057e-05
-1.2098798e-07
1.2369942e-07
1.0444258e-05
-1.2205435e-07
1.2807447e-07
1.0474855e-05
-1.2486761e-07
1.3377406e-07
1.0496945e-05
-1.2941353e-07
1.410929e-07
1.050958e-05
-1.3582225e-07
1.5048616e-07
1.0511368e-05
-1.4469906e-07
1.6253678e-07
1.0500707e-05
-1.5662687e-07
1.7788856e-07
1.0475854e-05
-1.7198362e-07
1.9751017e-07
1.0435056e-05
-1.9093077e-07
2.2290418e-07
1.0377055e-05
-2.1319092e-07
2.5635035e-07
1.0302017e-05
-2.372667e-07
3.0131424e-07
1.0213514e-05
-2.5931082e-07
3.6315359e-07
1.012189e-05
-2.6986673e-07
4.5020456e-07
1.0048581e-05
-2.4509445e-07
5.7529579e-07
1.0010176e-05
-1.2272574e-07
7.5803522e-07
1.003038e-05
1.7943746e-07
1.02378e-06
1.0247802e-05
7.9504537e-07
1.3742864e-06
1.7869897e-06
1.7753399e-06
9.182523e-06
3.6807414e-08
9.0717122e-06
6.5895219e-08
8.9557212e-06
8.0696182e-08
8.8356792e-06
8.887161e-08
8.7133511e-06
9.434549e-08
8.5913281e-06
9.7836203e-08
8.4711522e-06
9.9740221e-08
8.3534731e-06
1.0067414e-07
8.2385346e-06
1.0121142e-07
8.1263477e-06
1.0179345e-07
8.0167083e-06
1.0279983e-07
7.909188e-06
1.0462338e-07
7.8031886e-06
1.0771448e-07
7.6978328e-06
1.125798e-07
7.591961e-06
1.1974557e-07
7.4841213e-06
1.2973919e-07
7.3723371e-06
1.4322366e-07
7.2547524e-06
1.6131921e-07
7.1293062e-06
1.8581438e-07
6.9935452e-06
2.1914155e-07
6.8447115e-06
2.6466038e-07
6.6800106e-06
3.2724418e-07
6.497515e-06
4.1418214e-07
6.29816e-06
5.3655059e-07
6.0911143e-06
7.1131583e-07
5.90888e-06
9.6393547e-07
5.8509046e-06
1.3289025e-06
6.100582e-06
1.8429101e-06
6.9668909e-06
2.5040517e-06
3.1845003e-06
9.2246421e-06
6.1388727e-08
1.9589852e-08
9.1936242e-06
5.954183e-08
3.6350026e-08
9.1811617e-06
4.3898783e-08
4.6880209e-08
9.1745304e-06
3.8384106e-08
5.2866666e-08
9.1685053e-06
3.7300527e-08
5.6304833e-08
9.1623838e-06
3.5896233e-08
5.8019402e-08
9.1556765e-06
3.3921505e-08
5.8294097e-08
9.1478636e-06
3.1567686e-08
5.7402979e-08
9.1385859e-06
2.8744757e-08
5.5631573e-08
9.1276178e-06
2.5293041e-08
5.3179009e-08
9.1147264e-06
2.110658e-08
5.013012e-08
9.0995117e-06
1.621342e-08
4.6465711e-08
9.0812947e-06
1.0772693e-08
4.1961227e-08
9.0617571e-06
1.664178e-09
3.548403e-08
9.0419928e-06
-1.0273088e-08
2.6790124e-08
9.0249811e-06
-2.4094141e-08
1.6525343e-08
9.0111716e-06
-4.0383032e-08
4.6507888e-09
9.0006207e-06
-5.9673857e-08
-6.4730525e-09
8.9934957e-06
-8.2311003e-08
-1.5943677e-08
8.9903189e-06
-1.0840701e-07
-2.3325783e-08
8.9912211e-06
-1.379012e-07
-2.7249354e-08
8.9958504e-06
-1.7016074e-07
-2.6410078e-08
9.0027796e-06
-2.0334392e-07
-1.950907e-08
9.0095075e-06
-2.3338958e-07
-6.6195587e-09
9.000352e-06
-2.5276213e-07
2.2382328e-08
8.9501664e-06
-2.4338711e-07
6.2938342e-08
8.8096586e-06
-1.7204073e-07
1.1056228e-07
8.492755e-06
1.3282443e-08
1.5285161e-07
7.7506749e-06
5.0679166e-07
1.6492029e-07
1.7599149e-06
1.4024282e-07
9.3793192e-06
-3.1412083e-08
2.0321318e-08
9.5205016e-06
-5.1644722e-08
3.823244e-08
9.6594752e-06
-6.1160891e-08
5.008253e-08
9.8002742e-06
-6.6900197e-08
5.7538348e-08
9.9438628e-06
-6.9555034e-08
6.2658889e-08
1.0087283e-05
-7.0147486e-08
6.6280344e-08
1.0228509e-05
-6.981625e-08
6.8673711e-08
1.0366709e-05
-6.9320111e-08
7.008826e-08
1.0501566e-05
-6.9118771e-08
7.0786269e-08
1.0632962e-05
-6.955094e-08
7.0975808e-08
1.0760973e-05
-7.0920663e-08
7.0812543e-08
1.0885998e-05
-7.354302e-08
7.0453685e-08
1.1008715e-05
-7.7871843e-08
7.017734e-08
1.1127155e-05
-8.4907518e-08
7.0572685e-08
1.1240761e-05
-9.4996811e-08
7.1382768e-08
1.134958e-05
-1.0788648e-07
7.2393535e-08
1.1453565e-05
-1.2385957e-07
7.3322887e-08
1.1552744e-05
-1.4338527e-07
7.4007263e-08
1.1647141e-05
-1.6690317e-07
7.4631721e-08
1.1736846e-05
-1.9472929e-07
7.5698431e-08
1.182208e-05
-2.2688182e-07
7.792786e-08
1.1903438e-05
-2.6273599e-07
8.2257622e-08
1.1982381e-05
-3.0029353e-07
8.969504e-08
1.2061711e-05
-3.3476637e-07
1.0107247e-07
1.2145726e-05
-3.5553731e-07
1.1657952e-07
1.2240813e-05
-3.4008125e-07
1.3612958e-07
1.2352024e-05
-2.4593562e-07
1.5998347e-07
1.2493849e-05
-1.8830317e-08
1.8697508e-07
1.2674706e-05
5.735216e-07
2.0514208e-07
1.5757283e-06
1.8857506e-07
9.3864849e-06
-1.3131807e-07
2.0382841e-08
9.5142336e-06
-1.4922921e-07
3.8365076e-08
9.6330207e-06
-1.4571949e-07
5.0360111e-08
9.7471062e-06
-1.4497097e-07
5.8033486e-08
9.8585842e-06
-1.4355691e-07
6.3432048e-08
9.9665557e-06
-1.3964988e-07
6.7393297e-08
1.0070394e-05
-1.3456717e-07
7.0196766e-08
1.0170121e-05
-1.2940392e-07
7.210742e-08
1.0265928e-05
-1.2456241e-07
7.3406622e-08
1.0357978e-05
-1.2021936e-07
7.4323194e-08
1.0446397e-05
-1.1654192e-07
7.5036932e-08
1.0531279e-05
-1.1372668e-07
7.5720704e-08
1.0612571e-05
-1.1202584e-07
7.6595255e-08
1.0689587e-05
-1.11806e-07
7.7995688e-08
1.0761561e-05
-1.1339281e-07
8.0241961e-08
1.0827983e-05
-1.1677171e-07
8.36074e-08
1.0888305e-05
-1.2203497e-07
8.8397904e-08
1.0941969e-05
-1.2946576e-07
9.5018875e-08
1.0988433e-05
-1.3945659e-07
1.0405105e-07
1.1027329e-05
-1.5240723e-07
1.1637191e-07
1.105883e-05
-1.6863955e-07
1.3324909e-07
1.1084387e-05
-1.8827558e-07
1.5642805e-07
1.110825e-05
-2.1095105e-07
1.882113e-07
1.1140424e-05
-2.3515187e-07
2.3147714e-07
1.1202044e-05
-2.5630026e-07
2.8947292e-07
1.1336589e-05
-2.6242295e-07
3.6323871e-07
1.1621209e-05
-2.234866e-07
4.5115433e-07
1.2132464e-05
-6.0027037e-08
5.5394373e-07
1.309492e-05
3.1011846e-07
6.7545765e-07
9.2556171e-07
7.8956888e-07
9.1546415e-06
1.9792564e-08
9.0342261e-06
3.7081378e-08
8.9208419e-06
4.8360861e-08
8.8094889e-06
5.5253738e-08
8.7004949e-06
5.9782696e-08
8.5958748e-06
6.2806598e-08
8.4964114e-06
6.4636995e-08
8.402105e-06
6.5577388e-08
8.312796e-06
6.59591e-08
8.2283016e-06
6.6070184e-08
8.1484027e-06
6.6159043e-08
8.0728242e-06
6.6478133e-08
8.0011908e-06
6.7325871e-08
7.9328966e-06
6.9072806e-08
7.8671084e-06
7.2146952e-08
7.8030738e-06
7.7009505e-08
7.7400503e-06
8.4221242e-08
7.6773179e-06
9.4596644e-08
7.61431e-06
1.0937879e-07
7.5507046e-06
1.3035545e-07
7.4866924e-06
1.6005238e-07
7.423631e-06
2.0205436e-07
7.3654212e-06
2.614736e-07
7.3212412e-06
3.4562652e-07
7.3112718e-06
4.6506284e-07
7.3780917e-06
6.3483514e-07
7.6129172e-06
8.7087522e-07
8.2129642e-06
1.1834232e-06
9.4604298e-06
1.5678388e-06
1.9972462e-06
9.2189605e-06
6.156002e-08
8.3560273e-09
9.1798105e-06
6.0050945e-08
1.6066616e-08
9.1611293e-06
4.482812e-08
2.1627905e-08
9.150066e-06
3.9892774e-08
2.5186396e-08
9.1407759e-06
3.9601294e-08
2.7376774e-08
9.1324744e-06
3.9271551e-08
2.8646229e-08
9.12465e-06
3.8697011e-08
2.9213587e-08
9.1166058e-06
3.8177871e-08
2.9241603e-08
9.1077337e-06
3.7757009e-08
2.888752e-08
9.0975298e-06
3.7416629e-08
2.8264629e-08
9.0854111e-06
3.7266246e-08
2.7427073e-08
9.0703317e-06
3.7762408e-08
2.6363011e-08
9.0502587e-06
3.9869183e-08
2.487165e-08
9.0295595e-06
3.723901e-08
2.1756533e-08
9.008552e-06
3.4193685e-08
1.6515731e-08
8.9880508e-06
3.0136746e-08
9.8954992e-09
8.9673857e-06
2.519148e-08
3.2190119e-09
8.9472738e-06
2.0189745e-08
-3.372686e-09
8.9283749e-06
1.5361394e-08
-9.1483407e-09
8.9106091e-06
1.0639818e-08
-1.2865961e-08
8.8945691e-06
6.3047791e-09
-1.4107606e-08
8.8807056e-06
3.0764526e-09
-1.2149473e-08
8.8671523e-06
3.2972067e-09
-5.7195133e-09
8.8469562e-06
1.1601214e-08
5.5625724e-09
8.8151708e-06
3.6177115e-08
2.1623279e-08
8.7465169e-06
9.1528194e-08
4.3731709e-08
8.5826167e-06
2.0900535e-07
6.914535e-08
8.1897027e-06
4.5667353e-07
9.2799205e-08
7.254503e-06
9.9747059e-07
1.0638665e-07
2.2757849e-06
1.0466042e-07
9.3735011e-06
-3.1323133e-08
8.6722267e-09
9.5063008e-06
-5.1434775e-08
1.6939154e-08
9.6388001e-06
-6.0710866e-08
2.3159897e-08
9.7748782e-06
-6.603148e-08
2.7443008e-08
9.9148424e-06
-6.804604e-08
3.0424984e-08
1.0055666e-05
-6.770508e-08
3.2543792e-08
1.0195255e-05
-6.6065688e-08
3.3989889e-08
1.0332586e-05
-6.3783103e-08
3.4893477e-08
1.0467122e-05
-6.1177541e-08
3.5394814e-08
1.0598547e-05
-5.8413067e-08
3.5629246e-08
1.0726771e-05
-5.5572697e-08
3.5714649e-08
1.0852202e-05
-5.2680036e-08
3.5792928e-08
1.0976338e-05
-4.9895425e-08
3.617544e-08
1.1095601e-05
-4.8562975e-08
3.7521201e-08
1.121114e-05
-4.9123787e-08
3.9611402e-08
1.1323126e-05
-5.098858e-08
4.2022668e-08
1.1431887e-05
-5.4164719e-08
4.4444667e-08
1.1538299e-05
-5.8530717e-08
4.6876673e-08
1.1643289e-05
-6.388174e-08
4.9476546e-08
1.1747749e-05
-6.9983234e-08
5.2479242e-08
1.1852547e-05
-7.6245154e-08
5.6316104e-08
1.1958054e-05
-8.1153255e-08
6.1625594e-08
1.2063977e-05
-8.1216526e-08
6.8927541e-08
1.2167944e-05
-6.9200575e-08
7.8537265e-08
1.2264426e-05
-3.4050625e-08
9.0935204e-08
1.2339739e-05
4.7361746e-08
1.0560472e-07
1.2364449e-05
2.2471827e-07
1.2022445e-07
1.2303484e-05
5.7342229e-07
1.3196624e-07
1.2138108e-05
1.2350174e-06
1.34016e-07
2.3474819e-06
1.1229924e-07
9.3807326e-06
-1.3140907e-07
8.6894657e-09
9.500168e-06
-1.4948382e-07
1.6979187e-08
9.6125374e-06
-1.4597195e-07
2.3253126e-08
9.7219881e-06
-1.4506874e-07
2.7622585e-08
9.8300479e-06
-1.4338541e-07
3.0715691e-08
9.9358367e-06
-1.3906013e-07
3.2965711e-08
1.0038786e-05
-1.3337168e-07
3.4562244e-08
1.0138872e-05
-1.2738336e-07
3.5633744e-08
1.0236251e-05
-1.2144836e-07
3.6313912e-08
1.0331125e-05
-1.1567045e-07
3.6727227e-08
1.0423752e-05
-1.1012138e-07
3.6983879e-08
1.0514499e-05
-1.048786e-07
3.7202818e-08
1.0603756e-05
-1.0008032e-07
3.7559793e-08
1.0690959e-05
-9.6073843e-08
3.8346202e-08
1.0775564e-05
-9.3246438e-08
3.9809991e-08
1.0857589e-05
-9.1406937e-08
4.2058652e-08
1.0937178e-05
-9.048573e-08
4.5195273e-08
1.101481e-05
-9.0483507e-08
4.9413616e-08
1.1091398e-05
-9.1379702e-08
5.5042696e-08
1.1168432e-05
-9.3124844e-08
6.256931e-08
1.1248364e-05
-9.5515785e-08
7.2684992e-08
1.1335334e-05
-9.7930839e-08
8.6341762e-08
1.1436535e-05
-9.8856338e-08
1.0476166e-07
1.1564578e-05
-9.4921966e-08
1.2927261e-07
1.1739454e-05
-7.8843203e-08
1.5951054e-07
1.1987449e-05
-3.2056952e-08
1.947431e-07
1.2353717e-05
7.5240635e-08
2.344181e-07
1.291644e-05
2.9201987e-07
2.7266936e-07
1.3831248e-05
6.9668334e-07
2.9909209e-07
1.3489895e-06
2.9894256e-07
9.1489017e-06
8.4265202e-09
9.0201429e-06
1.6356281e-08
8.9003011e-06
2.2230782e-08
8.7843399e-06
2.6146184e-08
8.6720081e-06
2.8729233e-08
8.5653246e-06
3.0430262e-08
8.4651301e-06
3.1460259e-08
8.3713551e-06
3.196984e-08
8.2837492e-06
3.2117769e-08
8.2020946e-06
3.2055967e-08
8.1262103e-06
3.1924312e-08
8.055942e-06
3.1870885e-08
7.9911106e-06
3.2080983e-08
7.9313157e-06
3.2798986e-08
7.8759168e-06
3.430571e-08
7.8246741e-06
3.6853119e-08
7.7777157e-06
4.0703415e-08
7.7356099e-06
4.6230249e-08
7.6995812e-06
5.4041203e-08
7.671791e-06
6.5036445e-08
7.6558459e-06
8.0499983e-08
7.6577397e-06
1.0225064e-07
7.6875215e-06
1.3285977e-07
7.7622741e-06
1.7598052e-07
7.9116387e-06
2.3689032e-07
8.1951111e-06
3.1935309e-07
8.7167971e-06
4.2449316e-07
9.6393948e-06
5.5296879e-07
1.1206301e-05
6.9789551e-07
8.4637698e-07
9.2160901e-06
6.1551778e-08
3.8392901e-13
9.172706e-06
6.0067499e-08
1.5194706e-13
9.1503829e-06
4.4845045e-08
1.8150705e-13
9.1367638e-06
3.9954432e-08
1.6231964e-13
9.1257365e-06
3.9786714e-08
1.0783061e-13
9.1162998e-06
3.967887e-08
5.3713251e-14
9.1078442e-06
3.9460376e-08
5.4342154e-15
9.099567e-06
3.949144e-08
-4.0690803e-14
9.0907337e-06
3.9862656e-08
-7.4031563e-14
9.0807333e-06
4.0563748e-08
-1.1643343e-13
9.0688226e-06
4.1782432e-08
-1.5609979e-13
9.0535152e-06
4.4251098e-08
-2.0198706e-13
9.0316805e-06
4.9414552e-08
-2.4460676e-13
9.0100164e-06
4.6242278e-08
-2.4771879e-13
8.9888766e-06
4.0585565e-08
-2.2046614e-13
8.9690641e-06
3.2739931e-08
-1.6894462e-13
8.9509746e-06
2.4434679e-08
-1.1356295e-13
8.9341674e-06
1.6647066e-08
-5.7152636e-14
8.9187199e-06
9.5924591e-09
-8.9540828e-15
8.9053686e-06
3.8560545e-09
1.1682239e-14
8.8946176e-06
9.5513136e-11
4.5638755e-14
8.88713e-06
-1.1287028e-09
1.2519481e-13
8.881722e-06
3.2877655e-09
1.4245341e-13
8.8736042e-06
1.7343107e-08
1.1221597e-13
8.8493913e-06
4.9560824e-08
-5.9181039e-14
8.7808141e-06
1.1609293e-07
-2.9095312e-13
8.6049742e-06
2.4882567e-07
-4.9893121e-13
8.1842784e-06
5.1739064e-07
-8.9094034e-13
7.2135252e-06
1.0810948e-06
-1.5209812e-12
2.3711972e-06
-2.5186522e-12
9.3704984e-06
-3.1305968e-08
3.8651766e-13
9.4989273e-06
-5.1401765e-08
1.4581032e-13
9.6275976e-06
-6.0627729e-08
1.6905352e-13
9.7608891e-06
-6.5835804e-08
1.3671122e-13
9.8988399e-06
-6.7656245e-08
6.833561e-14
1.0038192e-05
-6.7018333e-08
-1.183244e-14
1.0176731e-05
-6.4946157e-08
-9.1941557e-14
1.0313339e-05
-6.2047016e-08
-1.5819623e-13
1.0447394e-05
-5.8584914e-08
-2.2176597e-13
1.0578506e-05
-5.4667634e-08
-2.9103869e-13
1.0706606e-05
-5.0310424e-08
-3.5964163e-13
1.0832434e-05
-4.5447731e-08
-4.4114849e-13
1.0958673e-05
-4.0266972e-08
-5.3510474e-13
1.1079889e-05
-3.7022535e-08
-6.7286529e-13
1.1197363e-05
-3.6801269e-08
-8.3578831e-13
1.1311224e-05
-3.8574971e-08
-1.0269782e-12
1.1422438e-05
-4.1764846e-08
-1.2324811e-12
1.1532242e-05
-4.5665271e-08
-1.4451516e-12
1.164168e-05
-4.970884e-08
-1.6644221e-12
1.1751943e-05
-5.3222708e-08
-1.8924661e-12
1.186409e-05
-5.4992737e-08
-2.2063091e-12
1.1978122e-05
-5.2755572e-08
-2.6239832e-12
1.2093277e-05
-4.2116094e-08
-2.9469285e-12
1.2206742e-05
-1.6715309e-08
-3.3721137e-12
1.2308579e-05
3.9585023e-08
-3.7888545e-12
1.237871e-05
1.5256723e-07
-4.3050839e-12
1.2383993e-05
3.6488673e-07
-4.8269686e-12
1.2277371e-05
7.5730158e-07
-5.431932e-12
1.2028783e-05
1.4653928e-06
-6.167454e-12
2.6181032e-06
-7.2061922e-12
9.3777472e-06
-1.3141084e-07
3.8438789e-13
9.4928347e-06
-1.4950964e-07
1.4673853e-13
9.6013947e-06
-1.4593347e-07
1.6860596e-13
9.7080757e-06
-1.4489186e-07
1.3666113e-13
9.8141641e-06
-1.4302496e-07
6.778778e-14
9.9185815e-06
-1.3846374e-07
-1.8702859e-14
1.0020679e-05
-1.3247267e-07
-9.35733e-14
1.0120378e-05
-1.2609978e-07
-1.5244169e-13
1.0217801e-05
-1.1967773e-07
-2.1161637e-13
1.0313165e-05
-1.1328373e-07
-2.7725313e-13
1.0406824e-05
-1.0695955e-07
-3.3774214e-13
1.0499367e-05
-1.0075643e-07
-4.1345065e-13
1.0591529e-05
-9.4831743e-08
-4.9641988e-13
1.068261e-05
-8.9711907e-08
-6.074404e-13
1.0771754e-05
-8.6083127e-08
-7.452335e-13
1.0858954e-05
-8.3654386e-08
-9.151679e-13
1.0944566e-05
-8.21125e-08
-1.1223449e-12
1.1029549e-05
-8.1154944e-08
-1.3675479e-12
1.1115477e-05
-8.0504369e-08
-1.6546606e-12
1.1204753e-05
-7.9829882e-08
-1.9805689e-12
1.1301071e-05
-7.8515532e-08
-2.3572699e-12
1.1410123e-05
-7.5344753e-08
-2.7877932e-12
1.1540775e-05
-6.7874556e-08
-3.2597253e-12
1.1704374e-05
-5.0899795e-08
-3.8088871e-12
1.1914281e-05
-1.0662084e-08
-4.5497658e-12
1.2189383e-05
7.2370313e-08
-5.3611838e-12
1.256454e-05
2.2434374e-07
-6.2951408e-12
1.3104245e-05
4.9054138e-07
-7.3322881e-12
1.392373e-05
9.4546617e-07
-8.4457655e-12
1.6635011e-06
-9.5253767e-12
9.14596e-06
3.9179657e-13
9.0128064e-06
1.6336516e-13
8.8891035e-06
1.9171215e-13
8.7703577e-06
1.8644844e-13
8.6560619e-06
1.465349e-13
8.5480287e-06
1.0267155e-13
8.4470167e-06
7.0155527e-14
8.3528875e-06
4.9481999e-14
8.2653287e-06
3.1436734e-14
8.1841026e-06
1.703752e-14
8.1090697e-06
8.5927873e-16
8.0401872e-06
-2.4807243e-14
7.9774406e-06
-5.4369243e-14
7.920533e-06
-1.055084e-13
7.8687623e-06
-1.7226412e-13
7.8219693e-06
-2.5876886e-13
7.7805704e-06
-3.7671983e-13
7.745658e-06
-5.1991414e-13
7.7192095e-06
-7.017355e-13
7.7044333e-06
-9.1909659e-13
7.706438e-06
-1.1832335e-12
7.7333674e-06
-1.5037075e-12
7.7983795e-06
-1.8964407e-12
7.9234909e-06
-2.3833069e-12
8.1497538e-06
-2.9798123e-12
8.5415134e-06
-3.7862302e-12
9.190391e-06
-4.8935581e-12
1.0233958e-05
-6.2841129e-12
1.1877431e-05
-7.8246985e-12
-9.1524689e-12
9.2160901e-06
6.1551788e-08
-8.355282e-09
9.172706e-06
6.0067498e-08
-1.6066318e-08
9.150383e-06
4.4845045e-08
-2.1627566e-08
9.1367639e-06
3.9954435e-08
-2.5186087e-08
9.1257365e-06
3.9786722e-08
-2.7376561e-08
9.1162998e-06
3.9678874e-08
-2.8646128e-08
9.1078443e-06
3.9460373e-08
-2.9213586e-08
9.0995671e-06
3.949145e-08
-2.9241683e-08
9.0907338e-06
3.9862667e-08
-2.8887673e-08
9.0807334e-06
4.0563757e-08
-2.826486e-08
9.0688227e-06
4.1782439e-08
-2.7427383e-08
9.0535153e-06
4.4251093e-08
-2.6363412e-08
9.0316807e-06
4.9414517e-08
-2.4872162e-08
9.0100167e-06
4.624236e-08
-2.1757187e-08
8.9888769e-06
4.0585844e-08
-1.6516546e-08
8.9690645e-06
3.2740478e-08
-9.8964477e-09
8.9509748e-06
2.4435578e-08
-3.2199598e-09
8.9341676e-06
1.6648327e-08
3.3712961e-09
8.91872e-06
9.5940319e-09
9.1468385e-09
8.9053686e-06
3.8578673e-09
1.2864231e-08
8.8946173e-06
9.7945976e-11
1.4105567e-08
8.8871289e-06
-1.125289e-09
1.2147022e-08
8.8817214e-06
3.2905941e-09
5.716522e-09
8.8736032e-06
1.7346343e-08
-5.5651785e-09
8.8493902e-06
4.9564653e-08
-2.1627101e-08
8.7808125e-06
1.1609724e-07
-4.3736171e-08
8.6049719e-06
2.4883065e-07
-6.9150574e-08
8.1842746e-06
5.1739612e-07
-9.2804968e-08
7.2135187e-06
1.0811007e-06
-1.0639285e-07
2.3712025e-06
-1.0466673e-07
9.3704984e-06
-3.1305963e-08
-8.6714788e-09
9.4989274e-06
-5.1401764e-08
-1.6938869e-08
9.6275976e-06
-6.062773e-08
-2.3159573e-08
9.7608892e-06
-6.5835803e-08
-2.7442745e-08
9.89884e-06
-6.765624e-08
-3.0424854e-08
1.0038192e-05
-6.7018334e-08
-3.2543818e-08
1.0176731e-05
-6.4946155e-08
-3.3990059e-08
1.0313339e-05
-6.2047018e-08
-3.489378e-08
1.0447394e-05
-5.8584921e-08
-3.5395241e-08
1.0578506e-05
-5.4667642e-08
-3.5629794e-08
1.0706606e-05
-5.0310427e-08
-3.5715332e-08
1.0832434e-05
-4.5447736e-08
-3.5793757e-08
1.0958673e-05
-4.026697e-08
-3.6176429e-08
1.1079888e-05
-3.7022493e-08
-3.7522364e-08
1.1197363e-05
-3.6801113e-08
-3.9612775e-08
1.1311223e-05
-3.8574624e-08
-4.2024296e-08
1.1422437e-05
-4.1764242e-08
-4.4446605e-08
1.1532241e-05
-4.5664356e-08
-4.6878969e-08
1.1641679e-05
-4.9707588e-08
-4.9479277e-08
1.1751941e-05
-5.3221073e-08
-5.2482476e-08
1.1864088e-05
-5.4990731e-08
-5.6319858e-08
1.197812e-05
-5.2753125e-08
-6.1629898e-08
1.2093274e-05
-4.2113293e-08
-6.8932569e-08
1.2206739e-05
-1.6712308e-08
-7.8543037e-08
1.2308574e-05
3.9589164e-08
-9.0941864e-08
1.2378704e-05
1.5257185e-07
-1.0561221e-07
1.2383985e-05
3.6489216e-07
-1.2023274e-07
1.227736e-05
7.5730785e-07
-1.3197516e-07
1.2028768e-05
1.4654003e-06
-1.3402517e-07
2.6181128e-06
-1.1230825e-07
9.3777472e-06
-1.3141084e-07
-8.6887156e-09
9.4928347e-06
-1.4950965e-07
-1.6978908e-08
9.6013947e-06
-1.4593348e-07
-2.3252816e-08
9.7080757e-06
-1.4489187e-07
-2.7622339e-08
9.8141642e-06
-1.4302496e-07
-3.0715573e-08
9.9185816e-06
-1.3846373e-07
-3.2965742e-08
1.0020679e-05
-1.3247267e-07
-3.4562414e-08
1.0120378e-05
-1.2609978e-07
-3.5634042e-08
1.0217801e-05
-1.1967775e-07
-3.631432e-08
1.0313165e-05
-1.1328374e-07
-3.6727749e-08
1.0406824e-05
-1.0695957e-07
-3.6984524e-08
1.0499367e-05
-1.0075645e-07
-3.7203594e-08
1.0591529e-05
-9.4831757e-08
-3.7560725e-08
1.068261e-05
-8.9711905e-08
-3.8347299e-08
1.0771754e-05
-8.6083085e-08
-3.9811279e-08
1.0858953e-05
-8.3654272e-08
-4.2060173e-08
1.0944566e-05
-8.2112289e-08
-4.5197072e-08
1.1029549e-05
-8.1154604e-08
-4.9415744e-08
1.1115477e-05
-8.0503884e-08
-5.5045217e-08
1.1204753e-05
-7.9829246e-08
-6.2572305e-08
1.1301071e-05
-7.8514728e-08
-7.2688543e-08
1.1410123e-05
-7.5343781e-08
-8.6345962e-08
1.1540775e-05
-6.787342e-08
-1.0476662e-07
1.1704374e-05
-5.0898448e-08
-1.2927843e-07
1.191428e-05
-1.0660179e-08
-1.5951724e-07
1.2189382e-05
7.2372808e-08
-1.9475087e-07
1.2564537e-05
2.2434683e-07
-2.3442697e-07
1.310424e-05
4.9054531e-07
-2.7267931e-07
1.392372e-05
9.4547155e-07
-2.9910269e-07
1.6635091e-06
-2.9895322e-07
9.14596e-06
-8.4257549e-09
9.0128065e-06
-1.6355962e-08
8.8891036e-06
-2.2230405e-08
8.7703578e-06
-2.614583e-08
8.656062e-06
-2.8728958e-08
8.5480287e-06
-3.0430065e-08
8.4470167e-06
-3.1460125e-08
8.3528875e-06
-3.1969743e-08
8.2653287e-06
-3.2117701e-08
8.1841026e-06
-3.2055925e-08
8.1090697e-06
-3.1924299e-08
8.0401873e-06
-3.1870911e-08
7.9774406e-06
-3.2081059e-08
7.9205329e-06
-3.2799119e-08
7.8687621e-06
-3.4305916e-08
7.821969e-06
-3.6853419e-08
7.78057e-06
-4.0703841e-08
7.7456575e-06
-4.6230836e-08
7.7192088e-06
-5.4041998e-08
7.7044326e-06
-6.5037514e-08
7.7064371e-06
-8.0501394e-08
7.7333663e-06
-1.022525e-07
7.7983782e-06
-1.3286219e-07
7.9234893e-06
-1.7598367e-07
8.1497522e-06
-2.3689437e-07
8.5415119e-06
-3.1935825e-07
9.1903892e-06
-4.244996e-07
1.0233956e-05
-5.5297679e-07
1.1877428e-05
-6.9790514e-07
-8.4638808e-07
9.2189605e-06
6.1560038e-08
-1.9589174e-08
9.1798106e-06
6.0050946e-08
-3.634977e-08
9.1611295e-06
4.4828123e-08
-4.6879921e-08
9.1500662e-06
3.989278e-08
-5.286641e-08
9.1407761e-06
3.9601301e-08
-5.6304666e-08
9.1324746e-06
3.9271561e-08
-5.8019328e-08
9.1246503e-06
3.8697022e-08
-5.8294108e-08
9.1166061e-06
3.8177885e-08
-5.7403065e-08
9.1077339e-06
3.7757031e-08
-5.5631723e-08
9.09753e-06
3.7416659e-08
-5.3179221e-08
9.0854112e-06
3.726627e-08
-5.0130409e-08
9.0703318e-06
3.7762422e-08
-4.6466074e-08
9.0502588e-06
3.9869161e-08
-4.1961696e-08
9.0295596e-06
3.7239025e-08
-3.5484643e-08
9.008552e-06
3.4193768e-08
-2.6790931e-08
8.9880507e-06
3.013696e-08
-1.6526413e-08
8.9673858e-06
2.5191888e-08
-4.6523289e-09
8.9472736e-06
2.0190193e-08
6.4715195e-09
8.9283745e-06
1.5361997e-08
1.5941726e-08
8.9106086e-06
1.0640552e-08
2.3323465e-08
8.8945684e-06
6.3056481e-09
2.7246635e-08
8.8807046e-06
3.0775164e-09
2.6406873e-08
8.8671508e-06
3.2984003e-09
1.9505459e-08
8.8469537e-06
1.1602561e-08
6.6165091e-09
8.815169e-06
3.6178894e-08
-2.2388516e-08
8.7465149e-06
9.1530293e-08
-6.2944757e-08
8.5826147e-06
2.0900728e-07
-1.1056943e-07
8.1897008e-06
4.5667551e-07
-1.5285947e-07
7.2545017e-06
9.9747222e-07
-1.6492869e-07
2.2757857e-06
-1.4025108e-07
9.3735012e-06
-3.1323124e-08
-2.032064e-08
9.5063009e-06
-5.1434767e-08
-3.8232189e-08
9.6388003e-06
-6.071087e-08
-5.0082263e-08