/*--------------------------------*- C++ -*----------------------------------*\
| =========                 |                                                 |
| \\      /  F ield         | OpenFOAM: The Open Source CFD Toolbox           |
|  \\    /   O peration     | Version:  v2012                                 |
|   \\  /    A nd           | Website:  www.openfoam.com                      |
|    \\/     M anipulation  |                                                 |
\*---------------------------------------------------------------------------*/
FoamFile
{
    version     2.0;
    format      ascii;
    class       volScalarField;
    location    "10/topAir";
    object      rho;
}
// * * * * * * * * * * * * * * * * * * * * * * * * * * * * * * * * * * * * * //

dimensions      [1 -3 0 0 0 0 0];


internalField   nonuniform List<scalar> 
1200
(
1.1524688
1.1465317
1.1409727
1.1357808
1.1309337
1.1264078
1.1221806
1.1182314
1.1145416
1.1110939
1.1078719
1.104861
1.1020519
1.0995069
1.0971412
1.0949462
1.0929144
1.0910265
1.0892823
1.0876859
1.086239
1.0849417
1.0837895
1.0827692
1.0818494
1.0809659
1.0799948
1.0787115
1.0768677
1.0746736
1.1584482
1.1581175
1.1576746
1.1571258
1.1564749
1.1557296
1.1548959
1.1539759
1.1529699
1.1518757
1.150689
1.1494065
1.1480352
1.1465704
1.145003
1.1433236
1.1415221
1.1395855
1.1374993
1.1352489
1.1328191
1.1301933
1.1273515
1.1242703
1.1208889
1.1171153
1.1127717
1.1074976
1.1006682
1.0917674
1.1586153
1.1586044
1.1585844
1.1585536
1.1585103
1.1584529
1.1583801
1.1582904
1.1581827
1.1580555
1.1579072
1.1577335
1.1575139
1.1572381
1.1568928
1.1564608
1.1559267
1.1552687
1.1544575
1.1534584
1.1522292
1.1507174
1.1488566
1.1465575
1.143691
1.1400605
1.1353415
1.1289765
1.1200515
1.1079202
1.158618
1.1586176
1.1586168
1.1586152
1.1586125
1.1586083
1.1586022
1.1585937
1.1585821
1.158567
1.1585476
1.158523
1.158492
1.1584525
1.1584024
1.1583385
1.1582498
1.1581222
1.1579395
1.1576789
1.1573089
1.1567845
1.1560409
1.1549805
1.1534496
1.1511918
1.147758
1.1423666
1.1338273
1.1218415
1.1524743
1.1466175
1.1411988
1.1361821
1.1315336
1.127227
1.1232325
1.1195214
1.1160686
1.1128519
1.1098531
1.1070576
1.1044865
1.102265
1.1002475
1.0984292
1.0968057
1.0953647
1.0941134
1.0930663
1.0922307
1.0916053
1.0911729
1.0908877
1.0906554
1.0902942
1.0894745
1.0876703
1.085717
1.0836151
1.1584474
1.1581216
1.157696
1.1571824
1.1565909
1.1559375
1.155237
1.1545016
1.1537424
1.1529699
1.1521939
1.1514221
1.1506415
1.1498534
1.1490635
1.1482778
1.1475026
1.1467447
1.1460116
1.1453116
1.1446525
1.1440391
1.1434686
1.1429181
1.1423447
1.1416226
1.1405167
1.138645
1.1337484
1.1235519
1.1586153
1.1586046
1.1585857
1.1585572
1.1585183
1.1584683
1.1584068
1.1583338
1.1582492
1.1581532
1.158046
1.1579279
1.1577985
1.157657
1.1575024
1.1573333
1.1571477
1.1569429
1.1567147
1.1564573
1.1561616
1.1558134
1.1553893
1.154849
1.1541193
1.153064
1.1514284
1.1487202
1.1437433
1.1353725
1.158618
1.1586177
1.1586169
1.1586154
1.1586131
1.1586095
1.1586045
1.1585977
1.1585889
1.1585776
1.1585637
1.1585467
1.1585264
1.1585021
1.1584735
1.1584397
1.1583996
1.158351
1.1582907
1.1582134
1.1581103
1.157966
1.1577532
1.1574228
1.1568822
1.155954
1.1542944
1.1512434
1.1459121
1.1381878
1.1524782
1.146606
1.1411689
1.1361405
1.1314939
1.1271987
1.1232237
1.1195401
1.1161187
1.1129332
1.1099646
1.1071983
1.1046318
1.1025444
1.1006369
1.0988924
1.0972887
1.0958127
1.0944859
1.0933338
1.0923753
1.0916176
1.0910494
1.0906362
1.0903033
1.0898866
1.0890722
1.0874206
1.0857857
1.0840523
1.1584476
1.1581207
1.1576932
1.1571767
1.1565814
1.1559231
1.1552168
1.1544746
1.1537077
1.1529267
1.1521413
1.1513608
1.1505932
1.1498642
1.1491499
1.1484473
1.1477614
1.1470971
1.1464601
1.1458564
1.1452921
1.144772
1.1442973
1.1438623
1.1434464
1.1429996
1.1424136
1.141383
1.1380562
1.1304584
1.1586153
1.1586046
1.1585855
1.1585569
1.1585179
1.158468
1.1584068
1.1583343
1.1582508
1.1581566
1.1580521
1.1579381
1.1578151
1.1576844
1.1575466
1.1574022
1.1572516
1.1570955
1.1569343
1.1567681
1.156597
1.15642
1.1562342
1.1560328
1.1558003
1.155501
1.1550551
1.1542768
1.1522496
1.1480612
1.158618
1.1586177
1.1586169
1.1586154
1.158613
1.1586095
1.1586046
1.1585979
1.1585893
1.1585785
1.1585653
1.1585494
1.1585307
1.1585089
1.1584839
1.1584555
1.1584235
1.1583877
1.1583475
1.1583022
1.1582504
1.1581892
1.1581128
1.1580083
1.1578469
1.1575621
1.1570008
1.1558299
1.1534649
1.1496431
1.1524773
1.1465992
1.1411514
1.1361127
1.1314591
1.1271594
1.1231816
1.1194932
1.1160643
1.1128729
1.109904
1.1071439
1.1045957
1.1028314
1.1011866
1.0995946
1.0979836
1.0963266
1.0946588
1.0930229
1.0914529
1.0899711
1.088584
1.0872864
1.0860763
1.0849497
1.0838849
1.0828278
1.0816952
1.0803638
1.1584475
1.1581196
1.1576895
1.1571682
1.1565653
1.1558956
1.1551725
1.1544067
1.1536066
1.1527798
1.1519321
1.1510666
1.1501835
1.1493219
1.1484862
1.147681
1.1469089
1.1461684
1.1454583
1.1447782
1.1441265
1.1434966
1.142868
1.1421921
1.1413735
1.1402844
1.138702
1.1361125
1.1314833
1.1232373
1.1586153
1.1586045
1.1585854
1.1585566
1.1585172
1.1584665
1.1584044
1.1583305
1.1582451
1.1581481
1.1580399
1.1579207
1.1577908
1.1576512
1.1575031
1.1573474
1.1571852
1.1570176
1.1568455
1.1566697
1.1564909
1.1563097
1.1561258
1.1559372
1.1557359
1.1554441
1.1548865
1.1537948
1.1515671
1.1472769
1.158618
1.1586177
1.1586169
1.1586154
1.158613
1.1586094
1.1586044
1.1585977
1.1585889
1.158578
1.1585645
1.1585482
1.158529
1.1585067
1.1584811
1.1584521
1.1584195
1.1583834
1.1583438
1.1583005
1.1582536
1.1582028
1.1581477
1.1580866
1.158015
1.1579169
1.157727
1.1572992
1.1563455
1.1545148
1.1524785
1.1466003
1.1411501
1.1361069
1.1314501
1.1271476
1.1231653
1.1194689
1.1160306
1.1128354
1.1098715
1.1071233
1.1046048
1.1032938
1.1021742
1.1010394
1.0996696
1.0980504
1.0963191
1.0945694
1.0928601
1.0912357
1.0897014
1.0882607
1.0869003
1.0856051
1.0843553
1.0831219
1.0818284
1.0803585
1.1584475
1.1581195
1.1576889
1.1571667
1.156562
1.1558894
1.1551617
1.1543886
1.1535774
1.1527345
1.1518642
1.1509668
1.1500387
1.1491448
1.1482988
1.1475072
1.1467644
1.1460615
1.145392
1.1447489
1.1441217
1.1434911
1.1428359
1.1420936
1.1411939
1.1400053
1.1382496
1.135395
1.1304527
1.1219866
1.1586153
1.1586045
1.1585853
1.1585565
1.1585169
1.1584661
1.1584036
1.1583292
1.158243
1.1581448
1.158035
1.1579135
1.1577805
1.1576371
1.157485
1.1573258
1.1571606
1.1569907
1.1568168
1.1566395
1.1564594
1.1562761
1.1560886
1.1558928
1.1556339
1.1552211
1.1545082
1.153195
1.1506705
1.146017
1.158618
1.1586177
1.1586169
1.1586154
1.158613
1.1586094
1.1586044
1.1585976
1.1585888
1.1585777
1.158564
1.1585476
1.1585281
1.1585054
1.1584793
1.1584498
1.1584167
1.15838
1.1583399
1.1582962
1.1582492
1.1581989
1.1581455
1.1580889
1.1580268
1.1579319
1.1577606
1.1574194
1.1566933
1.1552261
1.1524785
1.1466003
1.1411501
1.1361069
1.1314501
1.1271476
1.1231653
1.1194689
1.1160306
1.1128354
1.1098715
1.1071233
1.1046048
1.1032938
1.1021742
1.1010394
1.0996695
1.0980503
1.096319
1.0945693
1.09286
1.0912356
1.0897013
1.0882606
1.0869002
1.085605
1.0843553
1.0831219
1.0818283
1.0803584
1.1584475
1.1581195
1.1576889
1.1571667
1.156562
1.1558894
1.1551617
1.1543886
1.1535774
1.1527345
1.1518642
1.1509668
1.1500387
1.1491448
1.1482988
1.1475072
1.1467644
1.1460615
1.145392
1.1447489
1.1441216
1.1434911
1.1428359
1.1420935
1.1411939
1.1400052
1.1382495
1.1353948
1.1304525
1.1219865
1.1586153
1.1586045
1.1585853
1.1585565
1.1585169
1.1584661
1.1584036
1.1583292
1.158243
1.1581448
1.158035
1.1579135
1.1577805
1.1576371
1.157485
1.1573258
1.1571606
1.1569907
1.1568168
1.1566395
1.1564594
1.1562761
1.1560886
1.1558928
1.1556339
1.1552211
1.1545082
1.153195
1.1506704
1.1460169
1.158618
1.1586177
1.1586169
1.1586154
1.158613
1.1586094
1.1586044
1.1585976
1.1585888
1.1585777
1.158564
1.1585476
1.1585281
1.1585054
1.1584793
1.1584498
1.1584167
1.15838
1.1583399
1.1582962
1.1582492
1.1581989
1.1581455
1.1580889
1.1580268
1.1579319
1.1577606
1.1574194
1.1566933
1.1552261
1.1524773
1.1465992
1.1411514
1.1361127
1.1314591
1.1271594
1.1231816
1.1194932
1.1160643
1.1128729
1.109904
1.1071439
1.1045957
1.1028314
1.1011865
1.0995946
1.0979835
1.0963266
1.0946587
1.0930228
1.0914529
1.0899711
1.088584
1.0872864
1.0860763
1.0849497
1.0838849
1.0828278
1.0816952
1.0803638
1.1584475
1.1581196
1.1576895
1.1571682
1.1565653
1.1558956
1.1551725
1.1544067
1.1536066
1.1527798
1.1519321
1.1510666
1.1501835
1.1493219
1.1484862
1.147681
1.1469088
1.1461684
1.1454583
1.1447782
1.1441264
1.1434966
1.142868
1.142192
1.1413735
1.1402844
1.138702
1.1361125
1.1314832
1.1232373
1.1586153
1.1586045
1.1585854
1.1585566
1.1585172
1.1584665
1.1584044
1.1583305
1.1582451
1.1581481
1.1580399
1.1579207
1.1577908
1.1576512
1.1575031
1.1573474
1.1571852
1.1570176
1.1568455
1.1566697
1.1564909
1.1563097
1.1561258
1.1559372
1.1557359
1.1554441
1.1548865
1.1537948
1.1515671
1.1472768
1.158618
1.1586177
1.1586169
1.1586154
1.158613
1.1586094
1.1586044
1.1585977
1.1585889
1.158578
1.1585645
1.1585482
1.158529
1.1585067
1.1584811
1.1584521
1.1584195
1.1583834
1.1583438
1.1583005
1.1582536
1.1582028
1.1581477
1.1580866
1.158015
1.1579169
1.157727
1.1572992
1.1563455
1.1545148
1.1524782
1.146606
1.1411689
1.1361405
1.1314939
1.1271987
1.1232237
1.1195401
1.1161187
1.1129332
1.1099646
1.1071983
1.1046318
1.1025444
1.1006369
1.0988924
1.0972887
1.0958127
1.0944859
1.0933338
1.0923753
1.0916176
1.0910494
1.0906362
1.0903033
1.0898866
1.0890722
1.0874206
1.0857857
1.0840523
1.1584476
1.1581207
1.1576932
1.1571767
1.1565814
1.1559231
1.1552168
1.1544746
1.1537077
1.1529267
1.1521413
1.1513608
1.1505932
1.1498642
1.1491499
1.1484473
1.1477614
1.1470971
1.1464601
1.1458564
1.1452921
1.144772
1.1442973
1.1438623
1.1434464
1.1429996
1.1424136
1.141383
1.1380562
1.1304584
1.1586153
1.1586046
1.1585855
1.1585569
1.1585179
1.158468
1.1584068
1.1583343
1.1582508
1.1581566
1.1580521
1.1579381
1.1578151
1.1576844
1.1575466
1.1574022
1.1572516
1.1570955
1.1569343
1.1567681
1.156597
1.15642
1.1562342
1.1560328
1.1558003
1.155501
1.1550551
1.1542768
1.1522496
1.1480612
1.158618
1.1586177
1.1586169
1.1586154
1.158613
1.1586095
1.1586046
1.1585979
1.1585893
1.1585785
1.1585653
1.1585494
1.1585307
1.1585089
1.1584839
1.1584555
1.1584235
1.1583877
1.1583475
1.1583022
1.1582504
1.1581892
1.1581128
1.1580083
1.1578469
1.1575621
1.1570008
1.1558299
1.1534649
1.1496431
1.1524743
1.1466175
1.1411988
1.1361821
1.1315336
1.127227
1.1232325
1.1195214
1.1160686
1.1128519
1.1098531
1.1070576
1.1044865
1.102265
1.1002475
1.0984292
1.0968057
1.0953647
1.0941134
1.0930663
1.0922307
1.0916053
1.0911729
1.0908877
1.0906554
1.0902942
1.0894744
1.0876702
1.0857169
1.083615
1.1584474
1.1581216
1.157696
1.1571824
1.1565909
1.1559375
1.155237
1.1545016
1.1537424
1.1529699
1.1521939
1.1514221
1.1506415
1.1498534
1.1490635
1.1482778
1.1475026
1.1467447
1.1460116
1.1453116
1.1446524
1.144039
1.1434685
1.1429181
1.1423447
1.1416226
1.1405167
1.1386449
1.1337483
1.1235518
1.1586153
1.1586046
1.1585857
1.1585572
1.1585183
1.1584683
1.1584068
1.1583338
1.1582492
1.1581532
1.158046
1.1579279
1.1577985
1.157657
1.1575024
1.1573333
1.1571477
1.1569429
1.1567147
1.1564573
1.1561616
1.1558134
1.1553893
1.154849
1.1541193
1.153064
1.1514284
1.1487202
1.1437433
1.1353724
1.158618
1.1586177
1.1586169
1.1586154
1.1586131
1.1586095
1.1586045
1.1585977
1.1585889
1.1585776
1.1585637
1.1585467
1.1585264
1.1585021
1.1584735
1.1584397
1.1583996
1.158351
1.1582907
1.1582134
1.1581103
1.157966
1.1577532
1.1574228
1.1568822
1.155954
1.1542944
1.1512434
1.1459121
1.1381877
1.1524688
1.1465317
1.1409728
1.1357808
1.1309337
1.1264078
1.1221806
1.1182314
1.1145416
1.1110939
1.1078719
1.104861
1.1020519
1.099507
1.0971413
1.0949463
1.0929144
1.0910265
1.0892823
1.0876859
1.086239
1.0849417
1.0837895
1.0827692
1.0818494
1.0809659
1.0799947
1.0787115
1.0768676
1.0746736
1.1584482
1.1581175
1.1576746
1.1571258
1.1564749
1.1557296
1.1548959
1.1539759
1.1529699
1.1518757
1.150689
1.1494065
1.1480352
1.1465704
1.145003
1.1433236
1.1415222
1.1395855
1.1374994
1.135249
1.1328192
1.1301934
1.1273515
1.1242704
1.120889
1.1171154
1.1127717
1.1074976
1.1006682
1.0917673
1.1586153
1.1586044
1.1585844
1.1585536
1.1585103
1.1584529
1.1583801
1.1582904
1.1581827
1.1580555
1.1579072
1.1577335
1.1575139
1.1572381
1.1568928
1.1564608
1.1559267
1.1552687
1.1544575
1.1534585
1.1522292
1.1507174
1.1488566
1.1465575
1.143691
1.1400606
1.1353416
1.1289766
1.1200515
1.1079202
1.158618
1.1586176
1.1586168
1.1586152
1.1586125
1.1586083
1.1586022
1.1585937
1.1585821
1.158567
1.1585476
1.158523
1.158492
1.1584525
1.1584024
1.1583385
1.1582498
1.1581222
1.1579395
1.1576789
1.1573089
1.1567845
1.1560409
1.1549805
1.1534497
1.1511918
1.1477581
1.1423666
1.1338273
1.1218414
)
;

boundaryField
{
    maxY
    {
        type            calculated;
        value           nonuniform List<scalar> 
300
(
1.1586175
1.1586175
1.1586175
1.1586175
1.1586175
1.1586175
1.1586175
1.1586175
1.1586175
1.1586175
1.1586171
1.1586171
1.1586171
1.1586171
1.1586171
1.1586171
1.1586171
1.1586171
1.1586171
1.1586171
1.1586163
1.1586163
1.1586163
1.1586163
1.1586163
1.1586163
1.1586163
1.1586163
1.1586163
1.1586163
1.1586147
1.1586149
1.1586149
1.1586149
1.1586149
1.1586149
1.1586149
1.1586149
1.1586149
1.1586147
1.158612
1.1586125
1.1586125
1.1586125
1.1586125
1.1586125
1.1586125
1.1586125
1.1586125
1.158612
1.1586078
1.158609
1.158609
1.1586089
1.1586089
1.1586089
1.1586089
1.158609
1.158609
1.1586078
1.1586017
1.158604
1.158604
1.1586039
1.1586038
1.1586038
1.1586039
1.158604
1.158604
1.1586017
1.1585932
1.1585972
1.1585974
1.1585972
1.158597
1.158597
1.1585972
1.1585974
1.1585972
1.1585932
1.1585816
1.1585883
1.1585888
1.1585884
1.1585882
1.1585882
1.1585884
1.1585888
1.1585883
1.1585816
1.1585665
1.1585771
1.158578
1.1585774
1.1585771
1.1585771
1.1585774
1.158578
1.1585771
1.1585665
1.158547
1.1585632
1.1585648
1.1585639
1.1585635
1.1585635
1.1585639
1.1585648
1.1585632
1.158547
1.1585225
1.1585462
1.1585489
1.1585477
1.1585471
1.1585471
1.1585477
1.1585489
1.1585462
1.1585225
1.1584914
1.1585258
1.1585301
1.1585285
1.1585276
1.1585276
1.1585285
1.1585301
1.1585258
1.1584914
1.158452
1.1585016
1.1585083
1.1585062
1.1585049
1.1585049
1.1585062
1.1585083
1.1585016
1.158452
1.1584019
1.158473
1.1584834
1.1584806
1.1584788
1.1584788
1.1584806
1.1584834
1.158473
1.1584019
1.158338
1.1584392
1.158455
1.1584515
1.1584492
1.1584492
1.1584515
1.158455
1.1584392
1.158338
1.1582493
1.158399
1.158423
1.158419
1.1584161
1.1584161
1.158419
1.158423
1.158399
1.1582493
1.1581217
1.1583504
1.1583871
1.1583829
1.1583795
1.1583795
1.1583829
1.1583871
1.1583504
1.1581217
1.1579389
1.1582902
1.1583469
1.1583433
1.1583394
1.1583394
1.1583433
1.1583469
1.1582902
1.1579389
1.1576784
1.1582129
1.1583016
1.1583
1.1582957
1.1582957
1.1583
1.1583016
1.1582129
1.1576784
1.1573083
1.1581098
1.1582498
1.158253
1.1582487
1.1582487
1.158253
1.1582498
1.1581098
1.1573083
1.156784
1.1579654
1.1581887
1.1582023
1.1581984
1.1581984
1.1582023
1.1581887
1.1579654
1.156784
1.1560403
1.1577527
1.1581123
1.1581472
1.158145
1.158145
1.1581472
1.1581123
1.1577527
1.1560404
1.15498
1.1574222
1.1580078
1.1580861
1.1580884
1.1580884
1.1580861
1.1580078
1.1574222
1.15498
1.1534491
1.1568816
1.1578464
1.1580145
1.1580263
1.1580263
1.1580145
1.1578464
1.1568817
1.1534492
1.1511913
1.1559535
1.1575616
1.1579164
1.1579314
1.1579314
1.1579164
1.1575616
1.1559535
1.1511913
1.1477575
1.1542939
1.1570002
1.1577265
1.1577601
1.15776
1.1577265
1.1570003
1.1542939
1.1477575
1.142366
1.1512429
1.1558294
1.1572987
1.1574188
1.1574188
1.1572987
1.1558294
1.1512429
1.1423661
1.1338268
1.1459116
1.1534644
1.1563449
1.1566928
1.1566927
1.1563449
1.1534644
1.1459115
1.1338268
1.121841
1.1381873
1.1496426
1.1545143
1.1552256
1.1552255
1.1545143
1.1496426
1.1381872
1.1218409
)
;
    }
    minX
    {
        type            calculated;
        value           nonuniform List<scalar> 
40
(
1.1586213
1.1586202
1.1586192
1.1586181
1.1586213
1.1586202
1.1586192
1.1586181
1.1586213
1.1586202
1.1586191
1.1586181
1.1586213
1.1586202
1.1586191
1.1586181
1.1586213
1.1586202
1.1586191
1.1586181
1.1586213
1.1586202
1.1586191
1.1586181
1.1586213
1.1586202
1.1586191
1.1586181
1.1586213
1.1586202
1.1586191
1.1586181
1.1586213
1.1586202
1.1586192
1.1586181
1.1586213
1.1586202
1.1586192
1.1586181
)
;
    }
    maxX
    {
        type            calculated;
        value           nonuniform List<scalar> 
40
(
1.0749264
1.0919338
1.1080304
1.1219845
1.0837111
1.1235785
1.135436
1.1383183
1.0841604
1.130464
1.1480751
1.1497212
1.0805203
1.1233042
1.1472906
1.154538
1.0805248
1.1220829
1.1460524
1.1552358
1.0805248
1.1220827
1.1460524
1.1552358
1.0805203
1.1233041
1.1472906
1.154538
1.0841604
1.130464
1.1480752
1.1497212
1.0837111
1.1235784
1.1354359
1.1383182
1.0749264
1.0919337
1.1080303
1.1219844
)
;
    }
    minZ
    {
        type            calculated;
        value           nonuniform List<scalar> 
120
(
1.1524688
1.1584482
1.1586153
1.158618
1.1465317
1.1581175
1.1586044
1.1586176
1.1409727
1.1576746
1.1585844
1.1586168
1.1357808
1.1571258
1.1585536
1.1586152
1.1309337
1.1564749
1.1585103
1.1586125
1.1264078
1.1557296
1.1584529
1.1586083
1.1221806
1.1548959
1.1583801
1.1586022
1.1182314
1.1539759
1.1582904
1.1585937
1.1145416
1.1529699
1.1581827
1.1585821
1.1110939
1.1518757
1.1580555
1.158567
1.1078719
1.150689
1.1579072
1.1585476
1.104861
1.1494065
1.1577335
1.158523
1.1020519
1.1480352
1.1575139
1.158492
1.0995069
1.1465704
1.1572381
1.1584525
1.0971412
1.145003
1.1568928
1.1584024
1.0949462
1.1433236
1.1564608
1.1583385
1.0929144
1.1415221
1.1559267
1.1582498
1.0910265
1.1395855
1.1552687
1.1581222
1.0892823
1.1374993
1.1544575
1.1579395
1.0876859
1.1352489
1.1534584
1.1576789
1.086239
1.1328191
1.1522292
1.1573089
1.0849417
1.1301933
1.1507174
1.1567845
1.0837895
1.1273515
1.1488566
1.1560409
1.0827692
1.1242703
1.1465575
1.1549805
1.0818494
1.1208889
1.143691
1.1534496
1.0809659
1.1171153
1.1400605
1.1511918
1.0799948
1.1127717
1.1353415
1.147758
1.0787115
1.1074976
1.1289765
1.1423666
1.0768677
1.1006682
1.1200515
1.1338273
1.0746736
1.0917674
1.1079202
1.1218415
)
;
    }
    maxZ
    {
        type            calculated;
        value           nonuniform List<scalar> 
120
(
1.1524688
1.1584482
1.1586153
1.158618
1.1465317
1.1581175
1.1586044
1.1586176
1.1409728
1.1576746
1.1585844
1.1586168
1.1357808
1.1571258
1.1585536
1.1586152
1.1309337
1.1564749
1.1585103
1.1586125
1.1264078
1.1557296
1.1584529
1.1586083
1.1221806
1.1548959
1.1583801
1.1586022
1.1182314
1.1539759
1.1582904
1.1585937
1.1145416
1.1529699
1.1581827
1.1585821
1.1110939
1.1518757
1.1580555
1.158567
1.1078719
1.150689
1.1579072
1.1585476
1.104861
1.1494065
1.1577335
1.158523
1.1020519
1.1480352
1.1575139
1.158492
1.099507
1.1465704
1.1572381
1.1584525
1.0971413
1.145003
1.1568928
1.1584024
1.0949463
1.1433236
1.1564608
1.1583385
1.0929144
1.1415222
1.1559267
1.1582498
1.0910265
1.1395855
1.1552687
1.1581222
1.0892823
1.1374994
1.1544575
1.1579395
1.0876859
1.135249
1.1534585
1.1576789
1.086239
1.1328192
1.1522292
1.1573089
1.0849417
1.1301934
1.1507174
1.1567845
1.0837895
1.1273515
1.1488566
1.1560409
1.0827692
1.1242704
1.1465575
1.1549805
1.0818494
1.120889
1.143691
1.1534497
1.0809659
1.1171154
1.1400606
1.1511918
1.0799947
1.1127717
1.1353416
1.1477581
1.0787115
1.1074976
1.1289766
1.1423666
1.0768676
1.1006682
1.1200515
1.1338273
1.0746736
1.0917673
1.1079202
1.1218414
)
;
    }
    topAir_to_rightSolid
    {
        type            calculated;
        value           nonuniform List<scalar> 
130
(
1.0280149
1.0277426
1.0275694
1.0274567
1.0273844
1.0273301
1.0272729
1.0271912
1.0270806
1.0269606
1.0268572
1.026906
1.0269924
1.0284854
1.0279731
1.0276737
1.0274929
1.0273865
1.0272988
1.0271992
1.0270742
1.0269584
1.026981
1.0270321
1.0270774
1.0270631
1.0299732
1.0288233
1.0280727
1.027658
1.027456
1.0273033
1.0271432
1.027008
1.0268899
1.0268424
1.0269284
1.0270588
1.02715
1.0332136
1.0307381
1.0290776
1.0281146
1.0276671
1.0274685
1.027303
1.0271171
1.0269366
1.0268127
1.0268606
1.0270096
1.0271335
1.037258
1.0328324
1.0301254
1.028536
1.0277677
1.0275105
1.027378
1.0272041
1.0270028
1.0268389
1.0268998
1.0270467
1.0271591
1.0372578
1.0328323
1.0301254
1.028536
1.0277677
1.0275105
1.027378
1.027204
1.0270028
1.0268389
1.0268998
1.0270467
1.0271591
1.0332135
1.030738
1.0290776
1.0281146
1.0276671
1.0274685
1.027303
1.0271171
1.0269366
1.0268127
1.0268606
1.0270096
1.0271335
1.0299731
1.0288232
1.0280727
1.027658
1.027456
1.0273033
1.0271432
1.027008
1.0268899
1.0268424
1.0269285
1.0270588
1.02715
1.0284853
1.0279731
1.0276737
1.0274929
1.0273865
1.0272988
1.0271992
1.0270742
1.0269584
1.026981
1.0270321
1.0270774
1.0270631
1.0280145
1.0277424
1.0275693
1.0274567
1.0273844
1.0273301
1.0272729
1.0271912
1.0270806
1.0269606
1.0268572
1.026906
1.0269924
)
;
    }
    topAir_to_heater
    {
        type            calculated;
        value           nonuniform List<scalar> 
40
(
1.0284612
1.0284368
1.0283899
1.0283261
1.0296178
1.0295272
1.0293377
1.029056
1.0330605
1.0329621
1.0324193
1.0313939
1.0398041
1.0399018
1.0388023
1.0363037
1.0492469
1.0517766
1.0503029
1.0441298
1.0492466
1.0517762
1.0503024
1.0441293
1.039804
1.0399017
1.0388021
1.0363035
1.0330604
1.032962
1.0324193
1.0313939
1.0296181
1.0295273
1.0293377
1.0290558
1.0284623
1.0284372
1.0283897
1.0283254
)
;
    }
    topAir_to_leftSolid
    {
        type            calculated;
        value           nonuniform List<scalar> 
130
(
1.0270759
1.026984
1.0269284
1.0270242
1.0271353
1.0272343
1.0272979
1.0273241
1.0273245
1.0273059
1.0272759
1.0272441
1.0272504
1.0271411
1.0271501
1.0270978
1.0270384
1.0270057
1.0271065
1.0272051
1.0272554
1.0272522
1.0271996
1.0271234
1.0270446
1.0270588
1.0272267
1.0271301
1.0269925
1.0268971
1.0269313
1.0270263
1.0271164
1.027186
1.027164
1.0270488
1.0269308
1.0268613
1.0268678
1.027211
1.0270817
1.0269252
1.0268665
1.0269728
1.0271188
1.0272328
1.0272483
1.0271478
1.0270335
1.0270126
1.0270777
1.0271877
1.0272361
1.0271181
1.0269632
1.0268902
1.0270328
1.0271907
1.0272711
1.0272042
1.0270541
1.0270349
1.0271843
1.0273907
1.0276366
1.0272361
1.0271181
1.0269632
1.0268902
1.0270328
1.0271907
1.0272711
1.0272042
1.0270541
1.0270349
1.0271843
1.0273907
1.0276366
1.027211
1.0270817
1.0269252
1.0268665
1.0269728
1.0271188
1.0272328
1.0272483
1.0271478
1.0270335
1.0270126
1.0270777
1.0271877
1.0272267
1.0271301
1.0269925
1.0268971
1.0269313
1.0270263
1.0271164
1.027186
1.027164
1.0270488
1.0269308
1.0268613
1.0268678
1.0271412
1.0271501
1.0270978
1.0270384
1.0270057
1.0271065
1.0272051
1.0272554
1.0272522
1.0271996
1.0271234
1.0270446
1.0270588
1.0270759
1.026984
1.0269284
1.0270242
1.0271353
1.0272343
1.0272979
1.0273241
1.0273245
1.0273059
1.0272759
1.0272441
1.0272504
)
;
    }
}


// ************************************************************************* //
