/*--------------------------------*- C++ -*----------------------------------*\
| =========                 |                                                 |
| \\      /  F ield         | OpenFOAM: The Open Source CFD Toolbox           |
|  \\    /   O peration     | Version:  v2012                                 |
|   \\  /    A nd           | Website:  www.openfoam.com                      |
|    \\/     M anipulation  |                                                 |
\*---------------------------------------------------------------------------*/
FoamFile
{
    version     2.0;
    format      ascii;
    class       volScalarField;
    location    "10/topAir";
    object      T;
}
// * * * * * * * * * * * * * * * * * * * * * * * * * * * * * * * * * * * * * //

dimensions      [0 0 0 1 0 0 0];


internalField   nonuniform List<scalar> 
1200
(
301.60155
303.16334
304.64038
306.03296
307.3446
308.57951
309.74192
310.83581
311.86486
312.83259
313.74237
314.59738
315.39926
316.1293
316.81095
317.44606
318.03621
318.58654
319.09666
319.56501
319.99066
320.3733
320.71389
321.0161
321.28901
321.55162
321.84076
322.22364
322.77536
323.43434
300.04454
300.13021
300.24505
300.38745
300.55652
300.75032
300.96745
301.20737
301.47019
301.75657
302.06776
302.40481
302.76603
303.15282
303.56782
304.0137
304.49348
305.01094
305.57033
306.17606
306.83278
307.54565
308.32092
309.16589
310.09856
311.14607
312.36062
313.84812
315.79547
318.37006
300.00099
300.00383
300.00899
300.01696
300.02818
300.04305
300.06192
300.08513
300.11305
300.14602
300.18445
300.22948
300.28645
300.358
300.44766
300.5599
300.69876
300.87005
301.08144
301.34222
301.66372
302.06003
302.54928
303.15597
303.91578
304.88359
306.15081
307.87685
310.33014
313.72812
300.00002
300.00012
300.00033
300.00075
300.00144
300.00252
300.00411
300.00632
300.00931
300.01323
300.01826
300.02461
300.03266
300.04288
300.05585
300.0724
300.09539
300.12844
300.17581
300.24338
300.33937
300.47551
300.6688
300.94484
301.34425
301.93528
302.83859
304.26785
306.5594
309.83471
301.60012
303.14066
304.58004
305.92489
307.18166
308.35524
309.45185
310.47764
311.43818
312.33838
313.18231
313.97315
314.70404
315.33828
315.91653
316.43948
316.90787
317.32478
317.68769
317.992
318.23528
318.41761
318.54378
318.62706
318.69492
318.8005
319.04037
319.56959
320.14452
320.76551
300.04475
300.12917
300.2395
300.37275
300.52636
300.69623
300.87858
301.07023
301.26833
301.47018
301.67322
301.87544
302.08023
302.28728
302.49507
302.70205
302.90654
303.10674
303.30063
303.486
303.66077
303.82358
303.97516
304.12157
304.27421
304.46668
304.7619
305.26287
306.58129
309.36357
300.001
300.00376
300.00867
300.01604
300.02612
300.03906
300.05498
300.0739
300.09582
300.1207
300.14847
300.17907
300.21263
300.24933
300.28943
300.33331
300.38147
300.43466
300.49391
300.56079
300.63767
300.72824
300.83862
300.97938
301.16966
301.4453
301.87352
302.58519
303.90186
306.14244
300.00002
300.00011
300.00032
300.00069
300.0013
300.00222
300.00352
300.00527
300.00757
300.01048
300.01409
300.01848
300.02375
300.03002
300.03743
300.04618
300.05659
300.06918
300.08479
300.1048
300.13152
300.16894
300.2241
300.30981
300.45014
300.69139
301.1237
301.92173
303.32642
305.38493
301.5991
303.14369
304.58803
305.93608
307.19243
308.36301
309.45427
310.47245
311.4242
312.31557
313.15086
313.93324
314.66263
315.25838
315.80475
316.30608
316.76838
317.19503
317.57955
317.91421
318.19316
318.41401
318.57984
318.70053
318.79786
318.91974
319.15822
319.64296
320.12426
320.63615
300.0447
300.12938
300.24022
300.37423
300.52885
300.69997
300.88384
301.07727
301.27739
301.48149
301.68699
301.89152
302.09292
302.28442
302.47233
302.65738
302.83824
303.01361
303.18198
303.3417
303.49116
303.62907
303.75502
303.87054
303.98105
304.09988
304.25587
304.5306
305.4208
307.47353
300.001
300.00377
300.00871
300.01611
300.02621
300.03915
300.055
300.07377
300.0954
300.11982
300.14689
300.17645
300.20833
300.24222
300.27796
300.31543
300.35449
300.39502
300.43689
300.48004
300.52449
300.57049
300.61879
300.67115
300.73164
300.80954
300.92567
301.12857
301.65837
302.75887
300.00002
300.00011
300.00032
300.00069
300.00131
300.00222
300.0035
300.00522
300.00744
300.01024
300.01367
300.01778
300.02264
300.02828
300.03475
300.0421
300.05038
300.05967
300.07008
300.08181
300.09524
300.11108
300.13088
300.15796
300.19979
300.27366
300.41934
300.72366
301.34024
302.342
301.59932
303.14549
304.59269
305.94358
307.2019
308.37374
309.46587
310.48546
311.43936
312.33248
313.16796
313.94868
314.67293
315.17632
315.64711
316.1041
316.5679
317.04636
317.52941
318.00465
318.46207
318.895
319.30134
319.68242
320.0386
320.37093
320.68565
320.99872
321.33482
321.73083
300.04474
300.12968
300.24119
300.37642
300.53303
300.70715
300.89537
301.09499
301.30379
301.5199
301.74179
301.96866
302.20051
302.42706
302.64714
302.85947
303.06336
303.25913
303.44713
303.62741
303.80037
303.96771
304.1349
304.31488
304.53313
304.82399
305.24758
305.94332
307.19503
309.45022
300.001
300.00378
300.00874
300.0162
300.02641
300.03951
300.05562
300.07474
300.09689
300.12201
300.15006
300.18095
300.21463
300.25082
300.28926
300.32965
300.37173
300.41524
300.45994
300.50562
300.55207
300.59916
300.64698
300.69604
300.74839
300.82436
300.96958
301.25437
301.83715
302.96585
300.00002
300.00011
300.00032
300.0007
300.00132
300.00224
300.00354
300.00528
300.00754
300.01039
300.01388
300.01809
300.02305
300.02884
300.03547
300.04299
300.05141
300.06076
300.07103
300.08224
300.0944
300.10756
300.12184
300.13766
300.15623
300.18165
300.23089
300.34186
300.58959
301.06621
301.59901
303.14521
304.59303
305.94514
307.20434
308.37698
309.47037
310.49222
311.44879
312.343
313.17711
313.95452
314.67032
315.04425
315.36426
315.68929
316.08255
316.54863
317.04854
317.55534
318.05201
318.52547
318.97394
319.39622
319.79598
320.17753
320.54654
320.91156
321.29527
321.73242
300.04473
300.1297
300.24133
300.37683
300.53389
300.70876
300.89818
301.0997
301.31142
301.53175
301.75958
301.99486
302.23857
302.47368
302.69652
302.90534
303.10154
303.28744
303.46469
303.63519
303.80165
303.96916
304.14344
304.34111
304.58104
304.89861
305.36892
306.13667
307.47509
309.79517
300.001
300.00378
300.00875
300.01623
300.02647
300.03963
300.05582
300.07509
300.09744
300.12286
300.15132
300.18281
300.21731
300.25448
300.29393
300.33526
300.37812
300.42224
300.46741
300.51344
300.56026
300.60791
300.65665
300.70758
300.77494
300.88242
301.06821
301.41106
302.07233
303.29892
300.00002
300.00012
300.00032
300.0007
300.00132
300.00225
300.00355
300.00531
300.00759
300.01046
300.014
300.01825
300.02329
300.02917
300.03593
300.04358
300.05215
300.06164
300.07205
300.08335
300.09553
300.10856
300.1224
300.13707
300.15316
300.17776
300.22218
300.31069
300.49919
300.88084
301.59901
303.14521
304.59303
305.94514
307.20434
308.37698
309.47037
310.49222
311.44879
312.343
313.17711
313.95452
314.67032
315.04425
315.36427
315.6893
316.08257
316.54866
317.04856
317.55536
318.05203
318.52549
318.97397
319.39624
319.796
320.17754
320.54656
320.91158
321.29529
321.73244
300.04473
300.1297
300.24133
300.37683
300.53389
300.70876
300.89818
301.0997
301.31142
301.53175
301.75958
301.99486
302.23857
302.47368
302.69652
302.90534
303.10154
303.28744
303.4647
303.63519
303.80166
303.96917
304.14345
304.34113
304.58106
304.89863
305.36895
306.13671
307.47513
309.7952
300.001
300.00378
300.00875
300.01623
300.02647
300.03963
300.05582
300.07509
300.09744
300.12286
300.15132
300.18281
300.21731
300.25448
300.29393
300.33526
300.37812
300.42224
300.46741
300.51344
300.56026
300.60791
300.65665
300.70758
300.77494
300.88242
301.06822
301.41107
302.07235
303.29894
300.00002
300.00012
300.00032
300.0007
300.00132
300.00225
300.00355
300.00531
300.00759
300.01046
300.014
300.01825
300.02329
300.02917
300.03593
300.04358
300.05215
300.06164
300.07205
300.08335
300.09553
300.10856
300.1224
300.13707
300.15316
300.17776
300.22218
300.31069
300.4992
300.88085
301.59932
303.14549
304.59269
305.94358
307.2019
308.37374
309.46587
310.48546
311.43936
312.33248
313.16796
313.94868
314.67293
315.17633
315.64712
316.10411
316.56791
317.04637
317.52942
318.00466
318.46208
318.89501
319.30135
319.68243
320.0386
320.37093
320.68566
320.99873
321.33483
321.73083
300.04474
300.12968
300.24119
300.37642
300.53303
300.70715
300.89537
301.09499
301.30379
301.5199
301.74179
301.96866
302.20051
302.42706
302.64714
302.85947
303.06336
303.25913
303.44713
303.62741
303.80038
303.96772
304.1349
304.31489
304.53314
304.824
305.2476
305.94333
307.19504
309.45023
300.001
300.00378
300.00874
300.0162
300.02641
300.03951
300.05562
300.07474
300.09689
300.12201
300.15006
300.18095
300.21463
300.25082
300.28926
300.32965
300.37173
300.41524
300.45994
300.50562
300.55207
300.59916
300.64698
300.69604
300.74839
300.82437
300.96959
301.25437
301.83715
302.96585
300.00002
300.00011
300.00032
300.0007
300.00132
300.00224
300.00354
300.00528
300.00754
300.01039
300.01388
300.01809
300.02305
300.02884
300.03547
300.04299
300.05141
300.06076
300.07103
300.08224
300.0944
300.10756
300.12184
300.13766
300.15623
300.18165
300.23089
300.34186
300.58958
301.06621
301.5991
303.14369
304.58803
305.93608
307.19243
308.36301
309.45427
310.47245
311.4242
312.31557
313.15086
313.93324
314.66263
315.25838
315.80475
316.30608
316.76838
317.19503
317.57955
317.91422
318.19316
318.41402
318.57985
318.70053
318.79786
318.91974
319.15822
319.64296
320.12426
320.63615
300.0447
300.12938
300.24022
300.37423
300.52885
300.69997
300.88384
301.07727
301.27739
301.48149
301.68699
301.89152
302.09292
302.28442
302.47233
302.65738
302.83824
303.01361
303.18198
303.3417
303.49116
303.62907
303.75502
303.87054
303.98106
304.09988
304.25587
304.53059
305.4208
307.47353
300.001
300.00377
300.00871
300.01611
300.02621
300.03915
300.055
300.07377
300.0954
300.11982
300.14689
300.17645
300.20833
300.24222
300.27796
300.31543
300.35449
300.39502
300.43689
300.48004
300.52449
300.57049
300.61879
300.67115
300.73164
300.80954
300.92567
301.12857
301.65836
302.75887
300.00002
300.00011
300.00032
300.00069
300.00131
300.00222
300.0035
300.00522
300.00744
300.01024
300.01367
300.01778
300.02264
300.02828
300.03475
300.0421
300.05038
300.05967
300.07008
300.08181
300.09524
300.11108
300.13088
300.15796
300.19979
300.27366
300.41934
300.72366
301.34024
302.34201
301.60012
303.14066
304.58004
305.92489
307.18166
308.35524
309.45185
310.47764
311.43818
312.33838
313.18231
313.97315
314.70404
315.33828
315.91653
316.43948
316.90787
317.32478
317.6877
317.99201
318.23529
318.41762
318.54379
318.62707
318.69493
318.80051
319.04039
319.5696
320.14453
320.76553
300.04475
300.12917
300.2395
300.37275
300.52636
300.69623
300.87858
301.07023
301.26833
301.47018
301.67322
301.87544
302.08023
302.28728
302.49507
302.70205
302.90654
303.10674
303.30063
303.48601
303.66077
303.82359
303.97517
304.12158
304.27422
304.46668
304.76191
305.26288
306.58132
309.3636
300.001
300.00376
300.00867
300.01604
300.02612
300.03906
300.05498
300.0739
300.09582
300.1207
300.14847
300.17907
300.21263
300.24933
300.28943
300.33331
300.38147
300.43466
300.49391
300.56079
300.63767
300.72824
300.83862
300.97938
301.16966
301.4453
301.87352
302.5852
303.90188
306.14246
300.00002
300.00011
300.00032
300.00069
300.0013
300.00222
300.00352
300.00527
300.00757
300.01048
300.01409
300.01848
300.02375
300.03002
300.03743
300.04618
300.05659
300.06918
300.08479
300.1048
300.13152
300.16894
300.22409
300.30981
300.45014
300.69139
301.1237
301.92174
303.32643
305.38496
301.60155
303.16334
304.64038
306.03296
307.3446
308.57951
309.74192
310.83581
311.86486
312.83258
313.74237
314.59738
315.39926
316.12928
316.81093
317.44604
318.03621
318.58654
319.09666
319.56501
319.99067
320.3733
320.71389
321.0161
321.28902
321.55162
321.84077
322.22365
322.77538
323.43434
300.04454
300.13021
300.24505
300.38744
300.55652
300.75032
300.96745
301.20737
301.47019
301.75657
302.06776
302.40481
302.76603
303.15282
303.56781
304.0137
304.49347
305.01093
305.57032
306.17605
306.83277
307.54564
308.32091
309.16588
310.09855
311.14606
312.36061
313.84812
315.79548
318.37008
300.00099
300.00383
300.00899
300.01696
300.02818
300.04305
300.06192
300.08513
300.11305
300.14602
300.18445
300.22948
300.28645
300.358
300.44766
300.5599
300.69876
300.87004
301.08144
301.34222
301.66371
302.06002
302.54927
303.15595
303.91576
304.88357
306.15079
307.87684
310.33014
313.72814
300.00002
300.00012
300.00033
300.00075
300.00144
300.00252
300.00411
300.00632
300.00931
300.01323
300.01826
300.02461
300.03266
300.04288
300.05585
300.0724
300.09539
300.12844
300.17581
300.24338
300.33937
300.47551
300.66879
300.94483
301.34424
301.93527
302.83858
304.26785
306.55941
309.83473
)
;

boundaryField
{
    maxY
    {
        type            zeroGradient;
    }
    minX
    {
        type            fixedValue;
        value           uniform 300;
    }
    maxX
    {
        type            inletOutlet;
        inletValue      uniform 300;
        value           nonuniform List<scalar> 
40
(
323.35827
318.32155
313.69693
309.79521
320.73709
309.35625
306.12531
305.34992
320.60419
307.47199
302.75518
302.32145
321.68424
309.43179
302.96221
301.06015
321.68289
309.76859
303.28952
300.8783
321.68291
309.76863
303.28954
300.87831
321.68424
309.4318
302.96221
301.06014
320.60419
307.47199
302.75518
302.32146
320.7371
309.35629
306.12534
305.34995
323.35828
318.32157
313.69695
309.79523
)
;
    }
    minZ
    {
        type            zeroGradient;
    }
    maxZ
    {
        type            zeroGradient;
    }
    topAir_to_rightSolid
    {
        type            compressible::turbulentTemperatureCoupledBaffleMixed;
        refValue        nonuniform List<scalar> 
130
(
338.12057
338.21001
338.26689
338.30386
338.32753
338.34533
338.36407
338.39088
338.42726
338.46672
338.50068
338.48444
338.45573
337.96624
338.13458
338.23304
338.29249
338.32748
338.35634
338.38912
338.43027
338.46842
338.4609
338.44388
338.42877
338.4333
337.47794
337.85513
338.10174
338.23814
338.30458
338.35485
338.40754
338.45208
338.49097
338.50655
338.47803
338.4349
338.40467
336.41925
337.22732
337.77147
338.0878
338.23491
338.3002
338.35456
338.41573
338.4751
338.51588
338.49996
338.45075
338.40977
335.10728
336.54347
337.42793
337.94935
338.20193
338.28645
338.32997
338.38714
338.45336
338.50728
338.48706
338.43853
338.40135
335.10734
336.54349
337.42794
337.94936
338.20193
338.28645
338.32997
338.38714
338.45336
338.50728
338.48706
338.43853
338.40135
336.41928
337.22734
337.77148
338.0878
338.23491
338.3002
338.35456
338.41573
338.4751
338.51588
338.49996
338.45075
338.40977
337.47796
337.85514
338.10174
338.23815
338.30459
338.35485
338.40754
338.45208
338.49097
338.50655
338.47803
338.4349
338.40467
337.96628
338.1346
338.23305
338.29249
338.32748
338.35634
338.38912
338.43027
338.46842
338.4609
338.44388
338.42877
338.4333
338.12068
338.21006
338.26691
338.30386
338.32754
338.34533
338.36407
338.39088
338.42726
338.46671
338.50068
338.48444
338.45573
)
;
        refGradient     uniform 0;
        valueFraction   uniform 0.99967867;
        value           nonuniform List<scalar> 
130
(
338.11428
338.20386
338.26086
338.29796
338.32175
338.33965
338.35848
338.38537
338.42183
338.46136
338.49544
338.47938
338.45088
337.9596
338.128
338.22652
338.28603
338.32107
338.34996
338.38276
338.42392
338.46209
338.45465
338.43781
338.42289
338.42761
337.47141
337.8486
338.09524
338.23169
338.29818
338.34848
338.40119
338.44575
338.48467
338.50033
338.47197
338.429
338.39895
336.41301
337.22098
337.76511
338.08148
338.22869
338.29408
338.34855
338.40981
338.46927
338.51013
338.49432
338.44523
338.4044
335.10131
336.53719
337.42153
337.94295
338.19559
338.28023
338.32387
338.38115
338.44747
338.50149
338.48139
338.433
338.39598
335.10136
336.53721
337.42154
337.94295
338.19559
338.28023
338.32388
338.38116
338.44747
338.50149
338.48139
338.433
338.39598
336.41304
337.221
337.76511
338.08148
338.22869
338.29408
338.34855
338.40981
338.46927
338.51013
338.49433
338.44523
338.4044
337.47143
337.84861
338.09525
338.23169
338.29818
338.34848
338.40119
338.44575
338.48467
338.50033
338.47197
338.429
338.39895
337.95964
338.12802
338.22653
338.28604
338.32107
338.34996
338.38276
338.42392
338.46209
338.45465
338.43781
338.42289
338.42761
338.11439
338.20391
338.26088
338.29797
338.32175
338.33965
338.35848
338.38537
338.42183
338.46136
338.49544
338.47938
338.45088
)
;
        Tnbr            T;
        thicknessLayers List<scalar> 0();
        kappaLayers     List<scalar> 0();
        kappaMethod     fluidThermo;
        kappa           none;
        alphaAni        none;
        alpha           none;
        field           T;
    }
    topAir_to_heater
    {
        type            compressible::turbulentTemperatureCoupledBaffleMixed;
        refValue        nonuniform List<scalar> 
40
(
337.97456
337.98237
337.9976
338.01837
337.59505
337.6246
337.68659
337.77893
336.46972
336.5016
336.67839
337.01306
334.2869
334.25534
334.60908
335.41595
331.27758
330.48047
330.94423
332.9013
331.27768
330.4806
330.94438
332.90146
334.28695
334.25539
334.60915
335.416
336.46972
336.50162
336.67841
337.01307
337.59498
337.62457
337.6866
337.77897
337.97423
337.98226
337.99765
338.0186
)
;
        refGradient     uniform 0;
        valueFraction   uniform 0.99967867;
        value           nonuniform List<scalar> 
40
(
337.96753
337.97555
337.99099
338.01194
337.58789
337.61762
337.67975
337.77221
336.46289
336.49494
336.67184
337.00654
334.28075
334.24935
334.60312
335.40988
331.27236
330.4756
330.93931
332.89589
331.27246
330.47574
330.93947
332.89605
334.2808
334.2494
334.60319
335.40993
336.4629
336.49495
336.67185
337.00656
337.58782
337.61758
337.67977
337.77226
337.9672
337.97544
337.99104
338.01216
)
;
        Tnbr            T;
        thicknessLayers List<scalar> 0();
        kappaLayers     List<scalar> 0();
        kappaMethod     fluidThermo;
        kappa           none;
        alphaAni        none;
        alpha           none;
        field           T;
    }
    topAir_to_leftSolid
    {
        type            compressible::turbulentTemperatureCoupledBaffleMixed;
        refValue        nonuniform List<scalar> 
130
(
338.43526
338.46505
338.48291
338.45088
338.41381
338.38079
338.35947
338.35048
338.35003
338.35585
338.36544
338.37562
338.37331
338.41375
338.41031
338.42708
338.44621
338.45659
338.423
338.39016
338.37324
338.37399
338.39102
338.41588
338.44156
338.43665
338.38555
338.41688
338.46178
338.49279
338.48111
338.44941
338.41937
338.39611
338.40305
338.44071
338.47935
338.50201
338.49963
338.39073
338.43284
338.48398
338.50289
338.46744
338.41894
338.38101
338.37556
338.40837
338.44577
338.45239
338.43069
338.39418
338.38247
338.42083
338.47144
338.49508
338.44764
338.39522
338.36838
338.39009
338.43925
338.44532
338.39579
338.32755
338.24633
338.38247
338.42083
338.47144
338.49508
338.44764
338.39522
338.36838
338.39009
338.43925
338.44532
338.39579
338.32754
338.24632
338.39073
338.43284
338.48398
338.50289
338.46744
338.41894
338.38101
338.37556
338.40838
338.44577
338.45239
338.43068
338.39418
338.38555
338.41688
338.46178
338.49279
338.48111
338.44941
338.41937
338.39611
338.40305
338.44071
338.47935
338.50201
338.49963
338.41375
338.41031
338.42708
338.44621
338.45659
338.423
338.39016
338.37325
338.37399
338.39102
338.41587
338.44157
338.43665
338.43525
338.46504
338.48291
338.45088
338.41381
338.38079
338.35947
338.35048
338.35003
338.35585
338.36544
338.37562
338.37331
)
;
        refGradient     uniform 0;
        valueFraction   uniform 0.99967867;
        value           nonuniform List<scalar> 
130
(
338.42342
338.4537
338.47203
338.44046
338.40382
338.37121
338.35027
338.34163
338.34151
338.34764
338.35752
338.36797
338.36591
338.40192
338.39898
338.4162
338.43576
338.44654
338.41333
338.38085
338.36427
338.36533
338.38264
338.40776
338.43369
338.42902
338.37373
338.40554
338.45089
338.48232
338.47105
338.43974
338.41006
338.38713
338.39438
338.43231
338.47121
338.49411
338.49196
338.3789
338.4215
338.47309
338.49242
338.45739
338.40928
338.37171
338.36659
338.3997
338.43737
338.44426
338.42281
338.38655
338.37065
338.4095
338.46055
338.48462
338.4376
338.38557
338.35909
338.38112
338.43057
338.43692
338.38768
338.31971
338.23874
338.37065
338.4095
338.46055
338.48462
338.4376
338.38557
338.35909
338.38112
338.43057
338.43692
338.38768
338.3197
338.23874
338.3789
338.4215
338.47309
338.49242
338.45739
338.40928
338.37171
338.36659
338.3997
338.43737
338.44426
338.42281
338.38655
338.37373
338.40554
338.45089
338.48232
338.47105
338.43974
338.41006
338.38713
338.39438
338.43231
338.47121
338.49411
338.49196
338.40192
338.39897
338.4162
338.43576
338.44654
338.41333
338.38085
338.36427
338.36533
338.38264
338.40776
338.43369
338.42902
338.42342
338.4537
338.47203
338.44046
338.40382
338.37121
338.35027
338.34163
338.34151
338.34764
338.35752
338.36797
338.36591
)
;
        Tnbr            T;
        thicknessLayers List<scalar> 0();
        kappaLayers     List<scalar> 0();
        kappaMethod     fluidThermo;
        kappa           none;
        alphaAni        none;
        alpha           none;
        field           T;
    }
}


// ************************************************************************* //
