/*--------------------------------*- C++ -*----------------------------------*\
| =========                 |                                                 |
| \\      /  F ield         | OpenFOAM: The Open Source CFD Toolbox           |
|  \\    /   O peration     | Version:  v2012                                 |
|   \\  /    A nd           | Website:  www.openfoam.com                      |
|    \\/     M anipulation  |                                                 |
\*---------------------------------------------------------------------------*/
FoamFile
{
    version     2.0;
    format      ascii;
    class       volVectorField;
    location    "10/topAir";
    object      U;
}
// * * * * * * * * * * * * * * * * * * * * * * * * * * * * * * * * * * * * * //

dimensions      [0 1 -1 0 0 0 0];


internalField   nonuniform List<vector> 
1200
(
(0.09781727 0.00056503396 0.0008150002)
(0.098107594 0.00074759701 0.0012201431)
(0.097622327 0.00071111265 0.0013663243)
(0.096429682 0.00067484213 0.0014092924)
(0.095109997 0.00067479558 0.0013985974)
(0.093864102 0.00069413398 0.0013420786)
(0.092674666 0.00072525009 0.0012443966)
(0.091510304 0.0007687621 0.0011105531)
(0.090369406 0.00082598179 0.00094262961)
(0.089261996 0.00089766181 0.00073918743)
(0.088196362 0.00098436243 0.00049540948)
(0.087175361 0.0010862737 0.00020332437)
(0.086181588 0.0012068263 -0.00014700073)
(0.085271728 0.0013497371 -0.00054427507)
(0.084473575 0.0015187469 -0.0010009822)
(0.083795742 0.0017146994 -0.0015251432)
(0.083242087 0.0019402235 -0.0021253228)
(0.082815234 0.0022022581 -0.0028085132)
(0.082509566 0.0025069809 -0.0035810264)
(0.082306667 0.0028597495 -0.0044478246)
(0.082171607 0.003267569 -0.0054097692)
(0.082044212 0.003741394 -0.006459341)
(0.081822503 0.0042996268 -0.0075736592)
(0.081337151 0.0049724038 -0.0087031175)
(0.080301862 0.0058231307 -0.0097569471)
(0.078226936 0.0069804866 -0.01057635)
(0.074287171 0.0086991595 -0.010879486)
(0.067094369 0.011540573 -0.010139122)
(0.055849315 0.016522135 -0.0077418155)
(0.01338786 0.027543516 -0.0037720351)
(0.099274035 0.00036283694 0.00083850617)
(0.099851269 0.00042917591 0.0012721018)
(0.10018952 0.00034653849 0.0014595393)
(0.10013273 0.00029902718 0.0015592887)
(0.099959308 0.00030635469 0.0016195017)
(0.099813221 0.00034715877 0.0016494984)
(0.099693765 0.00041251627 0.0016561092)
(0.099574022 0.00050313588 0.001646516)
(0.099445141 0.00062166268 0.0016253306)
(0.099308788 0.00077124134 0.00159427)
(0.099166429 0.00095619564 0.0015530243)
(0.099019937 0.001181747 0.0014999613)
(0.098860554 0.0014487242 0.0014328059)
(0.098682271 0.0017690053 0.0013513366)
(0.098481748 0.0021533416 0.0012510966)
(0.098255491 0.0026074084 0.0011265605)
(0.098000656 0.0031348827 0.00097172803)
(0.097713214 0.0037538142 0.00077861708)
(0.097383195 0.0044856529 0.00053854932)
(0.096994287 0.0053530433 0.00024367219)
(0.096520406 0.0063840505 -0.00011158585)
(0.095915442 0.0076165609 -0.00052715218)
(0.095092773 0.0091052257 -0.00099000851)
(0.093912928 0.010929964 -0.00145696)
(0.092102341 0.013242282 -0.001848379)
(0.089213462 0.016288416 -0.0020195728)
(0.084483265 0.02052002 -0.0017161364)
(0.076644532 0.026802372 -0.00046219243)
(0.065939655 0.036669412 0.0028347176)
(0.028044919 0.052917382 0.010173314)
(0.099295464 -0.0012649409 0.00084268211)
(0.099826316 -0.0017916197 0.0012796003)
(0.099960429 -0.0019552715 0.0014698044)
(0.09958395 -0.0020147543 0.0015724572)
(0.099014236 -0.0020206899 0.0016371279)
(0.098417031 -0.0019799518 0.0016746095)
(0.097809308 -0.0019032418 0.0016937836)
(0.097179678 -0.0017994817 0.0017046144)
(0.096532101 -0.0016720859 0.0017152392)
(0.095879471 -0.0015208295 0.0017315426)
(0.095234199 -0.0013435479 0.0017577601)
(0.094604094 -0.0011360712 0.0017966614)
(0.094005563 -0.00089071461 0.0018513543)
(0.093448594 -0.00059921546 0.0019237657)
(0.092938071 -0.00024879114 0.0020160136)
(0.092480414 0.000180494 0.0021325074)
(0.092026309 0.00071174203 0.0022806616)
(0.091565589 0.0013555336 0.0024605805)
(0.091092165 0.0021233538 0.0026719979)
(0.090592317 0.0030359696 0.0029177976)
(0.090047404 0.0041247574 0.0032043824)
(0.08942614 0.0054349584 0.0035441701)
(0.088673136 0.0070353215 0.0039620279)
(0.087692457 0.009039458 0.0045074516)
(0.086317437 0.011639253 0.0052741092)
(0.08425635 0.015171243 0.0064282634)
(0.08101193 0.020261006 0.0082361344)
(0.075657718 0.028082216 0.011145033)
(0.068923524 0.040790097 0.01595751)
(0.041336489 0.06117525 0.024330245)
(0.097183789 -0.0010562456 0.00081595914)
(0.096002004 -0.001455028 0.0012234129)
(0.093846417 -0.0015291032 0.0013832822)
(0.090996127 -0.0015214909 0.0014539104)
(0.088059487 -0.0014829457 0.0014867857)
(0.08524454 -0.0014163969 0.001492465)
(0.082548441 -0.0013290335 0.0014793144)
(0.079950712 -0.0012294913 0.0014575423)
(0.077453422 -0.0011229724 0.0014359888)
(0.075064979 -0.0010120265 0.001421464)
(0.072788302 -0.00089857102 0.0014196511)
(0.070619407 -0.00078524351 0.0014361279)
(0.068552049 -0.00067033442 0.0014774008)
(0.066580801 -0.00055243499 0.0015501061)
(0.064702895 -0.00042527936 0.0016603928)
(0.062915592 -0.00026933832 0.0018118169)
(0.061273487 -5.1267604e-05 0.0020079555)
(0.059787568 0.00023231608 0.002267198)
(0.058454864 0.00058056342 0.0026148499)
(0.057272077 0.0010052717 0.0030793041)
(0.056221988 0.0015299528 0.003695526)
(0.055270273 0.0021905474 0.0045106754)
(0.054362934 0.0030428969 0.005591983)
(0.053421614 0.0041796921 0.0070409172)
(0.052341057 0.0057651661 0.0090185151)
(0.050999054 0.0081085344 0.011789914)
(0.049319269 0.011826769 0.015796943)
(0.047455902 0.018125613 0.021638926)
(0.04919715 0.02943539 0.029585002)
(0.055312247 0.048260695 0.038232568)
(0.099083886 0.00058717267 0.0010622399)
(0.10027961 0.00078690588 0.0016144787)
(0.10111208 0.00075595713 0.0018318433)
(0.1014354 0.00071244274 0.0019141728)
(0.10160626 0.00068836068 0.0019273736)
(0.1017696 0.00066521455 0.0018820699)
(0.10191605 0.00063423692 0.0017845756)
(0.10202053 0.00059470136 0.0016423698)
(0.10208046 0.00054649258 0.0014595897)
(0.10210414 0.00048870702 0.0012361567)
(0.10209938 0.00042045676 0.00096864219)
(0.10207009 0.00034170009 0.00065079701)
(0.10203737 0.00025528749 0.00027520755)
(0.10198041 0.00014234327 -0.00016202944)
(0.10190449 8.4696393e-06 -0.0006743128)
(0.10182658 -0.00014925974 -0.0012692195)
(0.10175451 -0.00033225636 -0.0019435311)
(0.10169767 -0.00054199417 -0.0026902155)
(0.10166004 -0.00078126794 -0.0035029391)
(0.1016404 -0.001052789 -0.0043742518)
(0.1016327 -0.0013566605 -0.0052907717)
(0.10162267 -0.0016871405 -0.0062291034)
(0.10158055 -0.0020261843 -0.0071502207)
(0.10144422 -0.0023291599 -0.00799113)
(0.10109241 -0.0025101635 -0.0086508864)
(0.10030486 -0.0024067019 -0.0089962877)
(0.098708842 -0.0017462552 -0.0088431376)
(0.095511406 -9.6338246e-05 -0.0079321287)
(0.090021857 0.0038644707 -0.0055724952)
(0.066485957 0.01577642 -0.0027269491)
(0.10059968 0.00037994151 0.001100054)
(0.10215559 0.00044714198 0.0016936196)
(0.1039072 0.00034762121 0.0019591448)
(0.10548554 0.00026630059 0.0021043819)
(0.10694904 0.00021943656 0.0021975105)
(0.10838677 0.00018152935 0.0022513314)
(0.10980353 0.00013912258 0.0022745438)
(0.11117776 8.7993374e-05 0.0022771936)
(0.11250016 2.543019e-05 0.0022664143)
(0.11377226 -5.1709117e-05 0.0022457973)
(0.11499772 -0.00014642487 0.0022169523)
(0.11618264 -0.00026105273 0.0021807973)
(0.1173275 -0.00039572996 0.0021358344)
(0.11842743 -0.00057185999 0.0020831971)
(0.11947813 -0.00078713718 0.0020195368)
(0.12047955 -0.0010482697 0.0019404878)
(0.12143188 -0.001362022 0.0018439806)
(0.12233467 -0.001735503 0.0017288771)
(0.12318542 -0.0021769815 0.0015964959)
(0.12397874 -0.0026939568 0.0014529671)
(0.1247058 -0.0032892681 0.0013118412)
(0.12535362 -0.003954926 0.0011983505)
(0.12590644 -0.0046598419 0.0011567177)
(0.12633272 -0.0053234469 0.0012626759)
(0.12660724 -0.0057876619 0.0016357424)
(0.12665245 -0.0057073871 0.0024407882)
(0.12636643 -0.0044532028 0.0038872433)
(0.12585827 -0.00090071732 0.0062892233)
(0.12541889 0.0073002319 0.010299311)
(0.12198416 0.024134323 0.015821949)
(0.10062092 -0.0012858434 0.001103259)
(0.10212932 -0.0018221509 0.0016999959)
(0.10367845 -0.0019922832 0.0019706771)
(0.1049429 -0.0020640941 0.0021231521)
(0.10601924 -0.0020922278 0.0022264405)
(0.10701602 -0.0020872428 0.0022945381)
(0.10795258 -0.0020637494 0.0023379504)
(0.10881835 -0.0020349721 0.0023691816)
(0.10961072 -0.0020092035 0.0023984466)
(0.11033444 -0.0019918676 0.0024328591)
(0.11099372 -0.0019873675 0.002477561)
(0.11158981 -0.0019997904 0.0025364967)
(0.11212164 -0.0020338667 0.0026149331)
(0.11258561 -0.0020955003 0.0027176094)
(0.11297436 -0.0021871879 0.0028494513)
(0.11327861 -0.0023115776 0.003018051)
(0.11348771 -0.0024722966 0.0032356164)
(0.11358962 -0.0026754359 0.0035096426)
(0.11356895 -0.0029275118 0.0038507041)
(0.11340792 -0.0032325728 0.0042771657)
(0.11308801 -0.0035893896 0.0048175591)
(0.11259316 -0.0039866064 0.0055159655)
(0.11191741 -0.0043927907 0.0064421103)
(0.11107946 -0.0047366424 0.0077082227)
(0.11014979 -0.0048566429 0.009494273)
(0.10929166 -0.0043981545 0.012077185)
(0.10889641 -0.0026088838 0.015843295)
(0.10907023 0.0019731111 0.02131609)
(0.11167864 0.011333715 0.028620252)
(0.11753168 0.026778619 0.037531001)
(0.098451183 -0.0010803924 0.0010723463)
(0.098188312 -0.00150064 0.0016475288)
(0.097378153 -0.0015939068 0.0018995096)
(0.096084968 -0.001606702 0.0020299152)
(0.094688673 -0.0015894979 0.0021076324)
(0.093337045 -0.0015462861 0.0021470615)
(0.092031005 -0.0014858627 0.0021591218)
(0.090752648 -0.001418256 0.0021572613)
(0.089499204 -0.0013499729 0.0021530207)
(0.088274216 -0.0012848398 0.0021551104)
(0.087078702 -0.0012256168 0.0021708598)
(0.085909606 -0.001174782 0.0022077233)
(0.084761062 -0.0011345973 0.0022744559)
(0.083624974 -0.001107318 0.0023803317)
(0.082490396 -0.0010944412 0.0025344396)
(0.081343082 -0.0010958685 0.002743501)
(0.080165899 -0.0011113228 0.0030151674)
(0.078937719 -0.0011440729 0.0033742332)
(0.077636618 -0.0011985611 0.003856359)
(0.076238958 -0.0012774498 0.0045060916)
(0.07471758 -0.0013798927 0.0053833356)
(0.073043063 -0.0014988737 0.0065735878)
(0.071189979 -0.001615437 0.008202866)
(0.069152215 -0.0016846731 0.010461491)
(0.066981766 -0.0016023723 0.01364136)
(0.064892657 -0.0011171708 0.018188395)
(0.063360418 0.00038756158 0.024748803)
(0.063942641 0.0040519724 0.033869304)
(0.070243275 0.011547716 0.045382221)
(0.09243855 0.023631158 0.05696014)
(0.098959327 0.00058186781 0.00040826691)
(0.099939651 0.00077798113 0.00070266253)
(0.1006845 0.00074659963 0.00087520675)
(0.10105461 0.00070741409 0.00097760364)
(0.10133418 0.00069159921 0.0010399599)
(0.10162952 0.00067974197 0.0010700965)
(0.10192267 0.00066264621 0.001071197)
(0.10218426 0.000639312 0.0010478776)
(0.10240449 0.00060971353 0.0010047734)
(0.10258406 0.00057340493 0.00094513878)
(0.10272411 0.00052993078 0.00087098735)
(0.10282252 0.00047978961 0.00078307052)
(0.10286816 0.00042509957 0.00068005604)
(0.10285312 0.00033824205 0.00053977786)
(0.10280438 0.00022908747 0.00035809031)
(0.10275213 0.00010127692 0.00013892954)
(0.10272104 -4.8785796e-05 -0.00010236482)
(0.10271804 -0.0002254744 -0.00035155311)
(0.10274125 -0.0004324585 -0.00059325848)
(0.1027903 -0.0006716164 -0.00080800651)
(0.10286731 -0.00094304295 -0.0009731019)
(0.10297214 -0.0012421091 -0.0010602241)
(0.10309791 -0.0015535853 -0.001032956)
(0.1032283 -0.0018420685 -0.0008504795)
(0.10328412 -0.0020377395 -0.00047615931)
(0.10307007 -0.0019801805 0.00013438919)
(0.10221322 -0.0013725158 0.00099207353)
(0.099805956 0.00031679661 0.0019789067)
(0.094808159 0.0047028848 0.0028031752)
(0.071602924 0.017391183 0.002952016)
(0.10047326 0.00037996707 0.00042068581)
(0.10181146 0.00045057554 0.00073316428)
(0.10347788 0.00035644393 0.00092667988)
(0.1051141 0.00028462573 0.0010546945)
(0.10670658 0.00025140928 0.0011487049)
(0.10830708 0.00023090271 0.0012172038)
(0.10991365 0.00020947506 0.001263824)
(0.11150226 0.00018280415 0.0012932699)
(0.11305855 0.00014839939 0.0013100009)
(0.11457898 0.00010364164 0.0013172067)
(0.11606393 4.5787837e-05 0.0013173022)
(0.11751559 -2.7437073e-05 0.0013128104)
(0.11893737 -0.00011825681 0.0013060357)
(0.12032823 -0.0002583981 0.0013024243)
(0.1216682 -0.00043968122 0.0012988214)
(0.12295322 -0.00065911482 0.0012908082)
(0.12418509 -0.00092226542 0.0012755945)
(0.12536396 -0.0012361274 0.0012520948)
(0.12648912 -0.0016067038 0.0012228402)
(0.12756006 -0.002037309 0.0011952974)
(0.12857739 -0.0025275142 0.0011823199)
(0.12954427 -0.0030681591 0.0012027285)
(0.13047036 -0.0036317884 0.0012811325)
(0.13137748 -0.0041556857 0.0014465646)
(0.13230465 -0.0045130016 0.0017350545)
(0.13331556 -0.0044252024 0.0021927916)
(0.13451708 -0.0033343461 0.0028755503)
(0.13640285 -0.00017747576 0.0038242984)
(0.13951392 0.0070962862 0.0051260596)
(0.14443834 0.022180712 0.0061845792)
(0.10049514 -0.001283877 0.00042202893)
(0.10178797 -0.001818896 0.00073610117)
(0.10325478 -0.0019830999 0.00093270235)
(0.10458139 -0.0020465107 0.001065237)
(0.10579416 -0.0020649633 0.0011651141)
(0.10696628 -0.0020487855 0.0012411059)
(0.10811203 -0.0020122917 0.0012972989)
(0.10922004 -0.0019685717 0.0013389876)
(0.11028451 -0.0019257122 0.0013713712)
(0.11130707 -0.001888754 0.0013985136)
(0.11229065 -0.0018617701 0.0014237083)
(0.11323701 -0.0018489083 0.0014502269)
(0.11414644 -0.0018558009 0.0014821261)
(0.11501536 -0.0018926088 0.0015247428)
(0.11583567 -0.0019608848 0.0015828621)
(0.11659961 -0.0020610669 0.0016609194)
(0.11730122 -0.0021964417 0.0017646301)
(0.11793474 -0.002371968 0.0019013349)
(0.11849422 -0.0025932382 0.0020817085)
(0.11897443 -0.0028653274 0.0023217681)
(0.11937357 -0.0031910148 0.0026450343)
(0.1196989 -0.0035672352 0.0030855565)
(0.11997825 -0.0039780094 0.0036921891)
(0.12028256 -0.0043803053 0.0045349981)
(0.12076884 -0.0046733814 0.0057138528)
(0.12176536 -0.0046299037 0.0073597209)
(0.12390054 -0.0037530721 0.0096461059)
(0.1282357 -0.00099930868 0.012776989)
(0.13644543 0.0053621039 0.016841641)
(0.15628331 0.016236226 0.021368472)
(0.098328048 -0.0010751523 0.00041037693)
(0.097849692 -0.0014894135 0.00071056385)
(0.096955067 -0.0015758775 0.00089262022)
(0.095721873 -0.0015829028 0.0010088988)
(0.094460937 -0.0015609859 0.0010910849)
(0.093283522 -0.0015135225 0.0011485152)
(0.092184433 -0.0014491138 0.0011857806)
(0.091144204 -0.0013777776 0.0012088891)
(0.090155953 -0.0013059094 0.0012240095)
(0.08921933 -0.0012370706 0.0012363668)
(0.088333745 -0.0011736238 0.0012506468)
(0.087496879 -0.0011175597 0.0012718274)
(0.086705149 -0.0010710022 0.0013058199)
(0.085953359 -0.001036622 0.0013596039)
(0.085233905 -0.0010158485 0.0014409466)
(0.084537977 -0.0010090583 0.0015581199)
(0.083857215 -0.0010171098 0.0017220453)
(0.083183789 -0.0010418729 0.0019499755)
(0.082510786 -0.0010863041 0.0022668871)
(0.081833372 -0.0011539375 0.0027076928)
(0.081150769 -0.0012481251 0.003322151)
(0.080470928 -0.0013709217 0.0041827843)
(0.079821018 -0.0015205961 0.0053971554)
(0.079268811 -0.0016855644 0.0071268049)
(0.078965973 -0.0018287149 0.0096166527)
(0.079237903 -0.0018426987 0.013234088)
(0.080751837 -0.0014364069 0.018473188)
(0.084691072 9.4960628e-05 0.025894934)
(0.0940053 0.0039756019 0.035472615)
(0.12147514 0.010649761 0.045804697)
(0.09893553 0.00058438713 0.00022494894)
(0.09984249 0.00078454385 0.00042279487)
(0.10050229 0.00075780541 0.0005691073)
(0.10080731 0.00072439199 0.00066850213)
(0.1010437 0.00071622343 0.00073381463)
(0.10131 0.00071422968 0.00077386975)
(0.10158489 0.00070961278 0.0007938658)
(0.10183852 0.00070225187 0.00079826326)
(0.10205968 0.00069324196 0.00079123103)
(0.10224607 0.0006833281 0.00077583185)
(0.10239491 0.00067389491 0.00075357855)
(0.10249832 0.00066920821 0.00072421968)
(0.10252868 0.00067872267 0.00068366318)
(0.10247847 0.00065686547 0.00061068457)
(0.10238706 0.00062250522 0.00049665008)
(0.10229225 0.00057835484 0.00035317868)
(0.1022058 0.00052628153 0.00019759464)
(0.10212711 0.00047311285 4.9384212e-05)
(0.10205849 0.00042393476 -7.2674625e-05)
(0.10200065 0.00038145396 -0.00015049638)
(0.10195338 0.00035007523 -0.00016445887)
(0.10192006 0.00033689018 -9.2390275e-05)
(0.10189474 0.00035366598 9.2902429e-05)
(0.10183325 0.00043046688 0.00041957588)
(0.10166764 0.00063610388 0.00089718157)
(0.10124212 0.0010889012 0.0015211207)
(0.10013338 0.0020551715 0.0022370574)
(0.09737442 0.0041679559 0.0028601381)
(0.09114186 0.0090599275 0.0030647618)
(0.062834358 0.022200233 0.002643832)
(0.1004497 0.00038099694 0.00023202976)
(0.10171309 0.00045473678 0.00044067142)
(0.10329178 0.00036558334 0.00059953345)
(0.10486093 0.00030129772 0.00071334553)
(0.10640877 0.00027919636 0.00079532941)
(0.10797858 0.00027427014 0.00085422629)
(0.10956463 0.00027391689 0.00089482998)
(0.11114213 0.00027547544 0.00092095086)
(0.11269552 0.0002786016 0.00093616548)
(0.11421943 0.00028319216 0.00094358622)
(0.1157126 0.00029000329 0.00094585163)
(0.11717695 0.00030247539 0.00094581116)
(0.11861873 0.00032694192 0.00094874034)
(0.12003335 0.00031338437 0.00096596809)
(0.1214022 0.00027800604 0.00099641882)
(0.12272609 0.00022371501 0.0010351466)
(0.12401065 0.00015171315 0.0010766482)
(0.12526259 6.8059653e-05 0.0011185478)
(0.12649143 -2.2786699e-05 0.001163132)
(0.12770769 -0.00011794842 0.0012166656)
(0.12892148 -0.000210098 0.001289215)
(0.13014124 -0.00028249929 0.0013943478)
(0.13137111 -0.00029891456 0.0015445115)
(0.1326057 -0.00017943681 0.001746784)
(0.13382324 0.00024304697 0.0020005793)
(0.13494593 0.0012446527 0.0022945066)
(0.13579362 0.0033320795 0.0026015576)
(0.13617258 0.0075477834 0.0028711678)
(0.13667072 0.015981755 0.0028319107)
(0.13397665 0.032172822 0.0020439898)
(0.10047181 -0.0012831472 0.00023259678)
(0.10169051 -0.0018181645 0.00044178508)
(0.10307021 -0.0019809252 0.00060182102)
(0.10433018 -0.0020407464 0.00071744381)
(0.10549917 -0.0020533794 0.00080173064)
(0.10664282 -0.0020286203 0.00086337343)
(0.10777266 -0.0019799713 0.00090716461)
(0.1088778 -0.001919515 0.00093693761)
(0.10995276 -0.0018540529 0.00095625374)
(0.11099918 -0.0017869587 0.00096814852)
(0.11202076 -0.0017201202 0.0009751982)
(0.11302132 -0.0016549264 0.0009799916)
(0.11400509 -0.0015944927 0.00098597202)
(0.11497201 -0.0015520674 0.00099856136)
(0.11591586 -0.0015271259 0.0010229506)
(0.11683233 -0.0015179233 0.0010629257)
(0.11772158 -0.0015242133 0.0011221366)
(0.11858707 -0.0015455878 0.0012055002)
(0.11943611 -0.0015819195 0.0013205776)
(0.12028116 -0.001632373 0.0014787665)
(0.12114258 -0.0016920584 0.0016963797)
(0.12205417 -0.0017465399 0.0019956206)
(0.12307395 -0.0017610324 0.0024047408)
(0.12430294 -0.0016623004 0.0029554943)
(0.12590408 -0.0013039171 0.0036637207)
(0.12819276 -0.00039527796 0.0045064955)
(0.13153325 0.0015945423 0.0054159378)
(0.13660676 0.0055802311 0.0062829417)
(0.14497219 0.013094532 0.0069918178)
(0.16315522 0.025459558 0.0071747769)
(0.098304507 -0.0010772482 0.00022589437)
(0.09775215 -0.0014943406 0.00042636621)
(0.096770399 -0.0015824615 0.00057680438)
(0.09547028 -0.0015897815 0.0006815611)
(0.094165845 -0.0015669892 0.00075367158)
(0.092960975 -0.0015173285 0.00080216616)
(0.091847518 -0.0014492099 0.00083227324)
(0.090806222 -0.0013725269 0.00084834624)
(0.089830095 -0.0012934959 0.00085458802)
(0.088918136 -0.0012153563 0.00085476463)
(0.088069544 -0.0011399731 0.00085226489)
(0.087282748 -0.0010686877 0.00085055131)
(0.086555886 -0.001003065 0.00085371998)
(0.085886028 -0.00094600953 0.00086693923)
(0.085267808 -0.00089859671 0.0008962196)
(0.084695881 -0.00086022084 0.00094758855)
(0.084168785 -0.00083047456 0.001028011)
(0.083690039 -0.00080918947 0.0011473118)
(0.083269117 -0.00079626374 0.0013202298)
(0.082923792 -0.0007913711 0.0015683847)
(0.082684314 -0.00079304638 0.0019227353)
(0.082600943 -0.00079697177 0.0024271435)
(0.08275755 -0.000792692 0.0031434229)
(0.083296003 -0.00075746563 0.0041585803)
(0.084458354 -0.00064186854 0.0055960211)
(0.086637246 -0.00031750557 0.0076003917)
(0.090781722 0.00047037001 0.010272073)
(0.098330085 0.0021488273 0.013617855)
(0.11128024 0.0054267182 0.017554623)
(0.14307484 0.01106569 0.02187747)
(0.098922468 0.00058418831 6.6620471e-05)
(0.099792501 0.00078412252 0.00012458168)
(0.10040645 0.00075692568 0.00016568148)
(0.10067362 0.00072330437 0.00019067884)
(0.10088493 0.00071556015 0.00020416529)
(0.10113572 0.000714872 0.00021002946)
(0.10140139 0.00071273951 0.0002106443)
(0.10165065 0.00070954094 0.00020771687)
(0.10187114 0.0007068362 0.00020267125)
(0.10205902 0.00070550932 0.00019646236)
(0.10220977 0.00070749295 0.00018948905)
(0.10231204 0.00071927269 0.0001815521)
(0.10232216 0.00075476005 0.00017075564)
(0.10222416 0.00073298999 0.00014616422)
(0.10207633 0.00067399821 0.00010022323)
(0.10193999 0.0005840889 3.4737611e-05)
(0.10184501 0.00047937583 -4.19213e-05)
(0.10179305 0.00037488762 -0.00011563302)
(0.10177086 0.0002774766 -0.00017633701)
(0.10176964 0.00019399968 -0.00022018086)
(0.10178928 0.00013272322 -0.00024311895)
(0.10183755 0.00010626285 -0.00024111819)
(0.10190679 0.0001301336 -0.00020939997)
(0.10197288 0.000232105 -0.00013909952)
(0.10194133 0.00047615403 -1.2922012e-05)
(0.101591 0.00099557597 0.00016507968)
(0.10044384 0.002067747 0.0003731564)
(0.09748968 0.0043426873 0.00057053413)
(0.090924124 0.0094368421 0.0006982729)
(0.062065613 0.02271111 0.00073599729)
(0.10043664 0.00038094947 6.865688e-05)
(0.10166229 0.00045513246 0.00012978037)
(0.10319343 0.00036669479 0.00017453167)
(0.10472305 0.00030381583 0.00020360941)
(0.10624406 0.00028418987 0.00022166786)
(0.10779606 0.00028322206 0.00023252334)
(0.10936967 0.00028887538 0.00023831969)
(0.11093858 0.00029932856 0.00024045144)
(0.11248661 0.00031510762 0.00024013794)
(0.11400789 0.00033672534 0.00023850798)
(0.11550105 0.00036606719 0.00023659555)
(0.11697 0.00040935001 0.00023569166)
(0.1184266 0.00047665108 0.00023863161)
(0.11986652 0.00048105026 0.00025152536)
(0.12126022 0.00043902604 0.00027437247)
(0.12260501 0.0003590693 0.00030382539)
(0.12390961 0.00025846164 0.00033602768)
(0.12518792 0.00015276382 0.00036969632)
(0.12645441 4.995986e-05 0.00040585037)
(0.12772233 -4.0345229e-05 0.0004465236)
(0.12900523 -0.00010329368 0.00049521413)
(0.13031054 -0.00011201207 0.00055730417)
(0.13164342 -1.8703144e-05 0.00063772281)
(0.13299388 0.00026683336 0.00073929912)
(0.13430841 0.00089436588 0.00086753817)
(0.13545531 0.0021415094 0.0010213661)
(0.13621213 0.0045511034 0.0011786492)
(0.13629009 0.0091712138 0.0013048248)
(0.1361524 0.01803717 0.0013323059)
(0.13165476 0.03450654 0.0011732828)
(0.1004588 -0.0012829115 6.8752869e-05)
(0.10163998 -0.0018180848 0.00012994782)
(0.10297242 -0.001980387 0.00017495979)
(0.10419305 -0.0020387413 0.00020452034)
(0.10533543 -0.0020489017 0.00022324153)
(0.1064618 -0.0020205586 0.00023491008)
(0.1075804 -0.0019669317 0.00024165813)
(0.10867915 -0.0018996939 0.00024485846)
(0.10975235 -0.0018251619 0.00024565427)
(0.1108017 -0.0017461729 0.00024503463)
(0.11183146 -0.0016639097 0.00024389104)
(0.11284708 -0.0015789798 0.00024323151)
(0.1138559 -0.0014950499 0.00024462247)
(0.11485964 -0.0014333976 0.0002507777)
(0.11584978 -0.0013944745 0.00026432296)
(0.11681945 -0.0013732565 0.00028683557)
(0.1177691 -0.0013640766 0.00031938296)
(0.1187059 -0.0013624162 0.00036340734)
(0.11964343 -0.0013647528 0.00042145378)
(0.12060269 -0.0013652073 0.00049751855)
(0.1216155 -0.0013519528 0.00059740859)
(0.12273067 -0.0013011677 0.00072921157)
(0.12402349 -0.001163324 0.00090342488)
(0.12559612 -0.00084053955 0.0011314114)
(0.1276435 -0.0001457941 0.0014080947)
(0.13028274 0.0012392331 0.0017224559)
(0.13384223 0.0038368163 0.0020660495)
(0.13893074 0.0085374642 0.0023885856)
(0.14683989 0.01682861 0.0025890848)
(0.16234237 0.030091802 0.0025262941)
(0.098291508 -0.0010771282 6.6793443e-05)
(0.097701744 -0.001494035 0.00012541281)
(0.09667262 -0.0015813083 0.00016756438)
(0.095332658 -0.0015871623 0.00019383864)
(0.094001304 -0.0015625242 0.00020882985)
(0.092779261 -0.0015106686 0.00021646534)
(0.091654919 -0.0014399277 0.00021905812)
(0.090607643 -0.0013601058 0.00021816759)
(0.089629983 -0.0012773156 0.00021514008)
(0.088720659 -0.0011946639 0.00021117613)
(0.087878947 -0.0011138559 0.00020738233)
(0.087104031 -0.0010361227 0.00020495866)
(0.08639555 -0.00096331712 0.00020546396)
(0.085752172 -0.00089982693 0.00021104138)
(0.085169001 -0.00084763456 0.0002242522)
(0.084640626 -0.00080563327 0.000247474)
(0.084167078 -0.00077208549 0.00028310651)
(0.083756 -0.0007451391 0.00033433957)
(0.08342369 -0.00072274473 0.00040603476)
(0.083197527 -0.00070197821 0.0005054857)
(0.083121139 -0.0006777336 0.00064325349)
(0.083263846 -0.00064041677 0.00083444302)
(0.083737038 -0.00057117698 0.0011005776)
(0.08472318 -0.00043065634 0.0014723994)
(0.086485459 -0.0001139435 0.0019940616)
(0.0896958 0.00054734148 0.0026890283)
(0.095169423 0.0017850919 0.0035402204)
(0.10412558 0.0039883681 0.0045017942)
(0.11839709 0.0077843803 0.0054741685)
(0.15037082 0.0140386 0.0063600956)
(0.098922468 0.00058418836 -6.6608074e-05)
(0.099792501 0.0007841225 -0.00012457666)
(0.10040645 0.00075692564 -0.00016567549)
(0.10067362 0.00072330434 -0.0001906734)
(0.10088494 0.00071556016 -0.00020416157)
(0.10113572 0.000714872 -0.00021002766)
(0.10140139 0.00071273947 -0.00021064418)
(0.10165065 0.000709541 -0.00020771822)
(0.10187114 0.00070683627 -0.00020267382)
(0.10205902 0.00070550937 -0.00019646626)
(0.10220977 0.00070749302 -0.00018949431)
(0.10231204 0.00071927267 -0.00018155892)
(0.10232216 0.00075475977 -0.00017076413)
(0.10222417 0.0007329905 -0.00014617378)
(0.10207634 0.0006740005 -0.00010023296)
(0.10194 0.00058409415 -3.474639e-05)
(0.10184502 0.00047938511 4.1914212e-05)
(0.10179306 0.00037490151 0.00011562828)
(0.10177086 0.00027749501 0.0001763337)
(0.10176965 0.00019402322 0.00022017787)
(0.10178928 0.00013275065 0.00024311643)
(0.10183754 0.00010629202 0.00024111698)
(0.10190679 0.00013016534 0.00020939906)
(0.10197288 0.00023213812 0.00013909656)
(0.10194133 0.00047619149 1.2912341e-05)
(0.10159099 0.00099561692 -0.00016509787)
(0.10044382 0.0020677946 -0.00037318284)
(0.097489653 0.0043427398 -0.00057057424)
(0.090924077 0.0094368998 -0.0006983297)
(0.0620655 0.022711163 -0.00073607463)
(0.10043664 0.00038094956 -6.8644485e-05)
(0.10166229 0.00045513244 -0.00012977562)
(0.10319343 0.00036669475 -0.00017452617)
(0.10472305 0.0003038158 -0.00020360492)
(0.10624406 0.00028418989 -0.00022166561)
(0.10779606 0.00028322202 -0.00023252374)
(0.10936967 0.00028887529 -0.00023832262)
(0.11093858 0.00029932853 -0.00024045655)
(0.11248662 0.00031510757 -0.00024014512)
(0.11400789 0.00033672523 -0.00023851733)
(0.11550106 0.00036606713 -0.00023660718)
(0.11697 0.0004093498 -0.00023570588)
(0.1184266 0.00047665071 -0.00023864878)
(0.11986652 0.00048105085 -0.0002515464)
(0.12126021 0.00043902883 -0.00027439823)
(0.122605 0.00035907573 -0.00030385685)
(0.12390961 0.00025847308 -0.00033606564)
(0.12518791 0.00015278111 -0.00036974127)
(0.1264544 4.9983156e-05 -0.00040590301)
(0.12772231 -4.0315148e-05 -0.00044658459)
(0.12900521 -0.00010325771 -0.00049528496)
(0.13031052 -0.00011197116 -0.00055738701)
(0.1316434 -1.8656261e-05 -0.0006378179)
(0.13299385 0.00026688681 -0.00073940803)
(0.13430837 0.00089442726 -0.00086766193)
(0.13545526 0.0021415788 -0.0010215061)
(0.13621207 0.0045511839 -0.0011788047)
(0.13629001 0.0091713042 -0.001304996)
(0.13615228 0.018037273 -0.0013324914)
(0.13165452 0.034506654 -0.0011734836)
(0.1004588 -0.0012829115 -6.8740496e-05)
(0.10163999 -0.0018180848 -0.00012994314)
(0.10297242 -0.001980387 -0.00017495444)
(0.10419305 -0.0020387413 -0.00020451601)
(0.10533543 -0.0020489018 -0.0002232394)
(0.1064618 -0.0020205586 -0.00023491062)
(0.1075804 -0.0019669318 -0.00024166108)
(0.10867915 -0.0018996941 -0.00024486341)
(0.10975235 -0.0018251622 -0.00024566109)
(0.1108017 -0.0017461732 -0.00024504347)
(0.11183146 -0.00166391 -0.0002439019)
(0.11284708 -0.0015789801 -0.00024324476)
(0.1138559 -0.0014950502 -0.00024463841)
(0.11485964 -0.0014333974 -0.00025079691)
(0.11584978 -0.0013944734 -0.0002643462)
(0.11681945 -0.0013732539 -0.0002868638)
(0.1177691 -0.0013640719 -0.00031941731)
(0.11870589 -0.0013624091 -0.000363449)
(0.11964343 -0.0013647429 -0.00042150409)
(0.12060268 -0.0013651943 -0.00049757901)
(0.1216155 -0.0013519367 -0.00059748082)
(0.12273066 -0.0013011477 -0.00072929742)
(0.12402349 -0.0011632999 -0.00090352607)
(0.12559612 -0.00084050983 -0.00113153)
(0.1276435 -0.0001457571 -0.0014082346)
(0.13028273 0.0012392792 -0.00172262)
(0.13384222 0.0038368727 -0.0020662408)
(0.13893071 0.0085375333 -0.0023888051)
(0.14683982 0.016828699 -0.0025893316)
(0.16234222 0.030091926 -0.0025265641)
(0.098291508 -0.0010771282 -6.6780822e-05)
(0.097701745 -0.001494035 -0.00012540753)
(0.096672621 -0.0015813084 -0.00016755807)
(0.095332659 -0.0015871623 -0.00019383256)
(0.094001304 -0.0015625242 -0.00020882511)
(0.092779262 -0.0015106686 -0.00021646197)
(0.09165492 -0.0014399277 -0.00021905582)
(0.090607644 -0.0013601058 -0.00021816598)
(0.089629983 -0.0012773157 -0.00021513903)
(0.088720659 -0.001194664 -0.00021117555)
(0.087878948 -0.001113856 -0.00020738232)
(0.087104032 -0.0010361228 -0.00020495939)
(0.08639555 -0.00096331716 -0.00020546563)
(0.085752171 -0.00089982686 -0.00021104442)
(0.085169 -0.00084763421 -0.00022425712)
(0.084640624 -0.00080563243 -0.00024748137)
(0.084167074 -0.00077208403 -0.00028311725)
(0.083755995 -0.00074513679 -0.00033435447)
(0.083423684 -0.00072274148 -0.00040605499)
(0.083197519 -0.0007019739 -0.00050551248)
(0.08312113 -0.00067772811 -0.00064328831)
(0.083263835 -0.00064041012 -0.00083448781)
(0.083737025 -0.0005711693 -0.0011006345)
(0.084723164 -0.00043064778 -0.0014724715)
(0.086485439 -0.0001139315 -0.0019941522)
(0.089695784 0.00054735818 -0.0026891428)
(0.095169406 0.001785114 -0.003540366)
(0.10412556 0.0039883984 -0.0045019776)