/*--------------------------------*- C++ -*----------------------------------*\
| =========                 |                                                 |
| \\      /  F ield         | OpenFOAM: The Open Source CFD Toolbox           |
|  \\    /   O peration     | Version:  v2012                                 |
|   \\  /    A nd           | Website:  www.openfoam.com                      |
|    \\/     M anipulation  |                                                 |
\*---------------------------------------------------------------------------*/
FoamFile
{
    version     2.0;
    format      ascii;
    class       volScalarField;
    location    "730/heater";
    object      T;
}
// * * * * * * * * * * * * * * * * * * * * * * * * * * * * * * * * * * * * * //

dimensions      [0 0 0 1 0 0 0];


internalField   nonuniform List<scalar> 
80
(
730.81038
732.91993
737.02399
742.84629
721.38204
723.84448
728.68206
735.60539
701.7553
704.87959
711.25237
720.66125
669.79273
673.71086
682.2669
696.09075
345.08735
342.44745
342.47031
345.08429
421.19717
417.95136
418.14114
421.55288
486.42133
483.68419
484.36963
487.98689
541.99715
540.33274
542.21939
546.63445
587.9921
588.25014
592.85562
600.36825
623.14049
626.75626
636.20351
655.26177
345.03868
342.41721
342.42961
345.04488
421.13004
417.92812
418.10193
421.51127
486.37529
483.68542
484.33825
487.91037
541.9734
540.35512
542.20302
546.55946
588.03465
588.30315
592.84925
600.29849
623.22339
626.83176
636.24046
655.25592
670.11941
674.03656
682.4428
696.13342
702.2143
705.32922
711.5895
720.84314
721.96576
724.36126
729.10208
735.90514
731.33063
733.38398
737.3985
743.12011
)
;

boundaryField
{
    minY
    {
        type            fixedValue;
        value           uniform 300;
    }
    minZ
    {
        type            zeroGradient;
    }
    maxZ
    {
        type            zeroGradient;
    }
    heater_to_topAir
    {
        type            compressible::turbulentTemperatureCoupledBaffleMixed;
        refValue        nonuniform List<scalar> 
40
(
519.97704
516.62892
510.83752
503.42585
482.78702
470.56342
457.74281
446.58442
493.37874
481.84456
469.67461
458.35702
508.00326
503.94915
502.30422
502.47383
505.65826
503.24675
503.99141
505.97448
505.69984
503.26985
504.01922
506.15119
508.28265
504.65513
503.41893
504.02318
493.50527
482.51113
470.86272
459.88439
482.82991
470.78137
458.02587
446.79585
519.72596
516.54671
510.93158
503.66098
)
;
        refGradient     uniform 0;
        valueFraction   nonuniform List<scalar> 
40
(
0.00032132529
0.00032132529
0.00032132529
0.00032132529
0.00032132529
0.00032132529
0.00032132529
0.00032132529
0.00032132529
0.00032132529
0.00032132529
0.00032132529
0.00032132529
0.00032132529
0.00032132529
0.00032132529
0.00032132529
0.00032132529
0.00032132529
0.00032132529
0.00032132529
0.00032132529
0.00032132529
0.00032132529
0.00032132529
0.00032132529
0.00032132529
0.00032132529
0.00032132529
0.00032132529
0.00032132529
0.00032132529
0.00032132529
0.00032132529
0.00032132529
0.00032132529
0.00032132529
0.00032132529
0.00032132529
0.00032132529
)
;
        value           nonuniform List<scalar> 
40
(
730.74303
732.85083
736.9517
742.76969
721.30576
723.76352
728.59544
735.51292
701.6886
704.80827
711.17515
720.57737
669.74113
673.6567
682.20946
696.02891
623.10314
626.71698
636.16143
655.21421
623.18603
626.79248
636.19842
655.20847
670.06786
673.98259
682.38575
696.07222
702.1477
705.25809
711.51262
720.75979
721.88939
724.28025
729.01545
735.81274
731.26313
733.31477
737.32621
743.04367
)
;
        Tnbr            T;
        thicknessLayers List<scalar> 0();
        kappaLayers     List<scalar> 0();
        kappaMethod     solidThermo;
        kappa           none;
        alphaAni        none;
        alpha           none;
        field           T;
    }
    heater_to_rightSolid
    {
        type            compressible::turbulentTemperatureCoupledBaffleMixed;
        refValue        nonuniform List<scalar> 10(749.98123 744.08416 732.35758 714.90845 694.30118 694.26186 714.87615 732.43532 744.25355 750.15947);
        refGradient     uniform 0;
        valueFraction   nonuniform List<scalar> 10(0.49999997 0.49999997 0.49999997 0.49999997 0.49999997 0.49999997 0.49999997 0.49999997 0.49999997 0.49999997);
        value           nonuniform List<scalar> 10(746.41393 739.84498 726.50962 705.49979 674.78168 674.75912 705.50505 726.63948 740.07959 746.64004);
        Tnbr            T;
        thicknessLayers List<scalar> 0();
        kappaLayers     List<scalar> 0();
        kappaMethod     solidThermo;
        kappa           none;
        alphaAni        none;
        alpha           none;
        field           T;
    }
    heater_to_leftSolid
    {
        type            compressible::turbulentTemperatureCoupledBaffleMixed;
        refValue        nonuniform List<scalar> 10(925.40695 925.35286 925.19468 924.71499 924.25144 924.06447 924.11996 924.28157 924.44739 924.54771);
        refGradient     uniform 0;
        valueFraction   nonuniform List<scalar> 10(2.0832898e-05 2.0832898e-05 2.0832898e-05 2.0832898e-05 2.0832898e-05 2.0832898e-05 2.0832898e-05 2.0832898e-05 2.0832898e-05 2.0832898e-05);
        value           nonuniform List<scalar> 10(730.81483 721.38668 701.76021 669.79843 623.14716 623.23006 670.12515 702.21939 721.97045 731.33515);
        Tnbr            T;
        thicknessLayers List<scalar> 1(0.001);
        kappaLayers     List<scalar> 1(0.0005);
        kappaMethod     solidThermo;
        kappa           none;
        alphaAni        none;
        alpha           none;
        field           T;
    }
    heater_to_bottomWater
    {
        type            compressible::turbulentTemperatureCoupledBaffleMixed;
        refValue        nonuniform List<scalar> 
92
(
932.73751
931.75721
931.62444
930.86719
923.41635
922.04986
920.97862
921.12591
931.98021
917.84587
916.82002
916.85022
923.85425
920.03454
919.26718
915.48829
920.9281
916.39201
915.70917
910.06387
924.42801
909.36814
912.74445
909.12419
928.57375
906.81327
906.97295
911.23492
920.18512
920.18512
903.0975
903.0975
906.77014
906.77014
912.90848
912.90848
913.38666
899.04137
917.84809
894.4213
918.51125
900.99153
920.74057
904.40321
919.07946
906.06303
909.83454
914.60255
913.47048
903.54981
900.36436
899.36936
910.06276
917.93806
920.09839
907.63254
896.04358
903.86316
913.40837
921.37759
921.33295
908.98413
893.80277
903.65363
916.29011
924.21461
921.68909
907.99516
897.38019
906.77624
920.59308
924.46888
922.0095
903.03148
899.68351
901.16139
924.46888
922.0095
903.03148
901.16139
930.64556
928.73035
923.62609
911.30835
937.18209
929.83492
928.58433
927.09739
934.40017
932.17713
929.76303
926.99003
)
;
        refGradient     uniform 0;
        valueFraction   nonuniform List<scalar> 
92
(
0.0075140686
0.0075140686
0.0075140686
0.0075140686
0.0075140686
0.0075140686
0.0075140686
0.0075140686
0.0075140686
0.0075140686
0.0075140686
0.0075140686
0.0075140686
0.0075140686
0.0075140686
0.0075140686
0.0075140686
0.0075140686
0.0075140686
0.0075140686
0.0075140686
0.0075140686
0.0075140686
0.0075140686
0.0075140686
0.0075140686
0.0075140686
0.0075140686
0.0075140686
0.0075140686
0.0075140686
0.0075140686
0.0075140686
0.0075140686
0.0075140686
0.0075140686
0.0075140679
0.0075140679
0.0075140679
0.0075140679
0.0075140679
0.0075140679
0.0075140679
0.0075140679
0.0075140679
0.0075140679
0.0075140679
0.0075140686
0.0075140686
0.0075140686
0.0075140679
0.0075140686
0.0075140679
0.0075140686
0.0075140686
0.0075140686
0.0075140679
0.0075140686
0.0075140679
0.0075140686
0.0075140686
0.0075140686
0.0075140679
0.0075140686
0.0075140679
0.0075140686
0.0075140686
0.0075140686
0.0075140679
0.0075140686
0.0075140679
0.0075140686
0.0075140686
0.0075140686
0.0075140679
0.0075140686
0.0075140686
0.0075140686
0.0075140686
0.0075140686
0.0075140686
0.0075140686
0.0075140686
0.0075140686
0.0075140686
0.0075140686
0.0075140686
0.0075140686
0.0075140686
0.0075140686
0.0075140686
0.0075140686
)
;
        value           nonuniform List<scalar> 
92
(
732.32807
734.4144
738.48662
744.25942
722.90052
725.33423
730.12742
736.9998
703.48548
706.48017
712.79742
722.13583
349.43639
346.78757
346.80447
349.37042
424.9524
421.69688
421.88009
425.22377
489.71279
486.88308
487.58872
491.1516
544.90227
543.08685
544.96051
549.3744
671.67458
590.48862
675.43487
590.61632
683.95422
595.21479
697.7203
602.71707
349.35773
349.24683
424.92926
425.10623
489.66833
491.09049
544.84341
549.32306
590.48031
602.66563
349.28272
349.31855
346.70823
346.64597
349.21766
349.21018
424.80416
424.86334
421.70168
421.7805
425.07712
425.13588
489.58435
489.64423
486.97423
487.52935
490.96055
491.03457
544.78638
544.84593
543.22083
544.95196
549.1959
549.26651
590.53388
590.56301
590.81102
595.18037
602.5485
602.55961
672.03106
675.9003
684.10079
697.67454
703.93121
707.00834
713.18323
722.27481
723.58338
725.90567
730.60147
737.34226
732.857
734.87819
738.84442
744.50222
)
;
        Tnbr            T;
        thicknessLayers List<scalar> 0();
        kappaLayers     List<scalar> 0();
        kappaMethod     solidThermo;
        kappa           none;
        alphaAni        none;
        alpha           none;
        field           T;
    }
}


// ************************************************************************* //
