/*--------------------------------*- C++ -*----------------------------------*\
| =========                 |                                                 |
| \\      /  F ield         | OpenFOAM: The Open Source CFD Toolbox           |
|  \\    /   O peration     | Version:  v2012                                 |
|   \\  /    A nd           | Website:  www.openfoam.com                      |
|    \\/     M anipulation  |                                                 |
\*---------------------------------------------------------------------------*/
FoamFile
{
    version     2.0;
    format      ascii;
    class       volScalarField;
    location    "430/rightSolid";
    object      T;
}
// * * * * * * * * * * * * * * * * * * * * * * * * * * * * * * * * * * * * * //

dimensions      [0 0 0 1 0 0 0];


internalField   nonuniform List<scalar> 
130
(
752.22447
760.22055
768.59811
776.91882
784.84864
792.15888
798.69753
804.37082
809.13621
812.9727
815.85442
817.77548
818.73689
746.36324
755.69817
765.24087
774.50035
783.14253
790.97215
797.8823
803.81643
808.75426
812.70295
815.66644
817.63859
818.62168
734.56817
746.97733
759.034
770.19209
780.20165
788.9872
796.54698
802.91895
808.15024
812.2937
815.38477
817.43219
818.4491
716.86838
735.08668
751.22012
765.09786
776.88533
786.82525
795.13369
801.99468
807.55227
811.91334
815.14323
817.27317
818.33235
695.91699
723.68794
744.64404
761.13252
774.42852
785.2671
794.13091
801.34756
807.14538
811.66914
814.9883
817.17127
818.25439
695.61797
723.43941
744.42362
760.91151
774.201
785.06426
793.96989
801.22433
807.04692
811.58784
814.9209
817.11493
818.20499
716.04034
734.33817
750.52934
764.44232
776.26892
786.25808
794.6425
801.59518
807.24334
811.67149
814.95105
817.11418
818.1908
733.38106
745.87845
758.01722
769.24022
779.31697
788.17779
795.82486
802.30458
807.66112
811.92105
815.09454
817.19455
818.2415
744.9394
754.36775
763.99837
773.33907
782.06808
789.99397
797.01099
803.07246
808.16481
812.24972
815.30429
817.33558
818.34799
750.65811
758.74841
767.20831
775.61382
783.64714
791.07909
797.75678
803.57862
808.50369
812.47406
815.45642
817.44662
818.44026
)
;

boundaryField
{
    maxX
    {
        type            zeroGradient;
    }
    minZ
    {
        type            zeroGradient;
    }
    maxZ
    {
        type            zeroGradient;
    }
    rightSolid_to_bottomWater
    {
        type            compressible::turbulentTemperatureCoupledBaffleMixed;
        refValue        nonuniform List<scalar> 
130
(
941.72528
936.26092
936.6537
937.27918
937.42813
938.09513
939.05993
938.69604
938.75891
941.10087
941.60409
941.57538
941.75165
941.20155
937.13616
935.77816
936.29648
936.38111
936.82095
938.43611
939.79869
939.67108
940.30455
942.2176
943.06528
942.74543
940.98661
938.15009
935.79211
936.10371
936.65996
938.15269
939.15208
940.00685
939.6729
939.86115
941.95281
942.52479
941.62656
935.19415
933.23037
933.75485
936.52444
937.3884
938.76917
939.07352
938.95343
938.77115
939.73148
942.62223
943.25595
943.63247
919.9564
920.95705
921.42714
926.15427
934.46979
937.37878
937.95969
937.38561
938.66415
943.51641
944.02216
944.6664
944.71102
907.98791
922.68307
925.55776
927.90085
930.13963
935.03284
939.12158
939.96897
940.16368
943.85816
944.01928
944.80393
945.22543
923.80326
929.6205
931.48879
932.78897
933.68175
932.77695
934.63813
936.72381
939.60644
940.18545
943.19556
943.92311
944.48262
935.05812
935.73533
936.273
935.93676
936.11745
937.05025
936.07448
935.75788
937.15336
940.94743
943.65507
944.05579
944.2811
936.7851
937.06412
937.39159
937.58418
937.14347
936.64578
935.71204
935.18842
939.46731
943.21562
943.62229
943.98412
943.35562
934.195
935.06493
934.81502
934.07745
933.97579
934.49812
936.60964
936.80076
940.84305
942.84003
943.12902
943.89475
943.69624
)
;
        refGradient     uniform 0;
        valueFraction   nonuniform List<scalar> 
130
(
0.0075140686
0.0075140686
0.0075140686
0.0075140686
0.0075140686
0.0075140686
0.0075140686
0.0075140686
0.0075140686
0.0075140686
0.0075140686
0.0075140686
0.0075140686
0.0075140686
0.0075140686
0.0075140686
0.0075140686
0.0075140686
0.0075140686
0.0075140686
0.0075140686
0.0075140686
0.0075140686
0.0075140686
0.0075140686
0.0075140686
0.0075140686
0.0075140686
0.0075140686
0.0075140686
0.0075140686
0.0075140686
0.0075140686
0.0075140686
0.0075140686
0.0075140686
0.0075140686
0.0075140686
0.0075140686
0.0075140686
0.0075140686
0.0075140686
0.0075140686
0.0075140686
0.0075140686
0.0075140686
0.0075140686
0.0075140686
0.0075140686
0.0075140686
0.0075140686
0.0075140686
0.0075140686
0.0075140686
0.0075140686
0.0075140686
0.0075140686
0.0075140686
0.0075140686
0.0075140686
0.0075140686
0.0075140686
0.0075140686
0.0075140686
0.0075140686
0.0075140686
0.0075140686
0.0075140686
0.0075140686
0.0075140686
0.0075140686
0.0075140686
0.0075140686
0.0075140686
0.0075140686
0.0075140686
0.0075140686
0.0075140686
0.0075140686
0.0075140686
0.0075140686
0.0075140686
0.0075140686
0.0075140686
0.0075140686
0.0075140686
0.0075140686
0.0075140686
0.0075140686
0.0075140686
0.0075140686
0.0075140686
0.0075140686
0.0075140686
0.0075140686
0.0075140686
0.0075140686
0.0075140686
0.0075140686
0.0075140686
0.0075140686
0.0075140686
0.0075140686
0.0075140686
0.0075140686
0.0075140686
0.0075140686
0.0075140686
0.0075140686
0.0075140686
0.0075140686
0.0075140686
0.0075140686
0.0075140686
0.0075140686
0.0075140686
0.0075140686
0.0075140686
0.0075140686
0.0075140686
0.0075140686
0.0075140686
0.0075140686
0.0075140686
0.0075140686
0.0075140686
0.0075140686
0.0075140686
0.0075140686
0.0075140686
)
;
        value           nonuniform List<scalar> 
130
(
753.64774
761.54277
769.86039
778.1233
785.99464
793.25493
799.75164
805.37952
810.10954
813.93476
816.79856
818.70494
819.66043
747.82663
757.06091
766.52178
775.7156
784.29346
792.06751
798.93782
804.83755
809.73727
813.66101
816.61658
818.58027
819.55355
736.1186
748.41319
760.36162
771.43825
781.37677
790.10749
797.6179
803.94836
809.13778
813.2515
816.33504
818.37135
819.37387
718.5083
736.57492
752.59114
766.38545
778.09083
787.96639
796.21462
803.02311
808.53754
812.87304
816.10034
818.21902
819.27307
697.59984
725.16957
745.97177
762.37197
775.6305
786.40945
795.21095
802.36904
808.1329
812.65909
815.95708
818.12847
819.20378
697.21316
724.93588
745.78401
762.16561
775.37203
786.1904
795.05982
802.26612
808.04642
812.58094
815.89013
818.07356
819.15858
717.60074
735.8048
751.88834
765.70653
777.45097
787.35827
795.69364
802.60979
808.23716
812.63636
815.91386
818.06618
819.13891
734.89562
747.3042
759.3558
770.49195
780.49434
789.29559
796.87787
803.30656
808.63336
812.88978
816.05976
818.14698
819.18776
746.38002
755.73963
765.30036
774.57232
783.23244
791.09505
798.05235
804.06437
809.15064
813.23303
816.26769
818.28643
819.2865
752.03629
760.07235
768.46681
776.80364
784.7759
792.15599
798.79938
804.57888
809.49729
813.45286
816.41497
818.39596
819.38063
)
;
        Tnbr            T;
        thicknessLayers List<scalar> 0();
        kappaLayers     List<scalar> 0();
        kappaMethod     solidThermo;
        kappa           none;
        alphaAni        none;
        alpha           none;
        field           T;
    }
    rightSolid_to_topAir
    {
        type            compressible::turbulentTemperatureCoupledBaffleMixed;
        refValue        nonuniform List<scalar> 
130
(
491.14624
484.61513
478.82419
474.08629
470.48504
467.98598
466.51903
466.02253
466.47126
467.92155
470.60014
475.05432
482.02134
437.94126
432.29328
428.71812
426.59714
425.45473
425.02976
425.24204
426.10278
427.66916
430.10263
433.8507
439.93881
449.14798
444.80171
435.50271
427.83245
421.72791
417.07602
413.82958
412.00188
411.58641
412.49084
414.57466
417.84778
423.08508
433.56842
494.53122
494.74128
494.14568
492.41359
489.5743
485.90909
481.8363
477.76258
474.26249
472.42194
474.46525
483.2111
493.3068
498.79661
503.16781
507.69442
512.0671
516.00496
519.26942
521.6901
523.20098
523.92874
524.36593
525.52564
528.91742
536.12126
502.31197
506.48316
510.9182
515.29572
519.32822
522.79179
525.54801
527.56449
528.99386
530.34303
532.56939
537.01594
545.51742
498.21378
499.76387
500.25269
499.34347
497.1799
494.23944
490.9965
487.79766
485.2459
484.8917
488.67031
494.68773
504.72424
445.26
437.12636
430.05287
424.03987
419.19429
415.7386
413.86517
413.60656
414.81823
417.32403
421.16108
427.51137
439.16634
435.56346
430.44622
427.30494
425.45183
424.43307
424.06348
424.33751
425.31608
427.08835
429.81015
433.86785
440.36124
450.68957
489.99638
483.53105
477.87511
473.29268
469.84527
467.50287
466.21393
465.93486
466.6535
468.42798
471.46857
476.32942
483.84324
)
;
        refGradient     uniform 0;
        valueFraction   nonuniform List<scalar> 
130
(
0.00032132529
0.00032132529
0.00032132529
0.00032132529
0.00032132529
0.00032132529
0.00032132529
0.00032132529
0.00032132529
0.00032132529
0.00032132529
0.00032132529
0.00032132529
0.00032132529
0.00032132529
0.00032132529
0.00032132529
0.00032132529
0.00032132529
0.00032132529
0.00032132529
0.00032132529
0.00032132529
0.00032132529
0.00032132529
0.00032132529
0.00032132529
0.00032132529
0.00032132529
0.00032132529
0.00032132529
0.00032132529
0.00032132529
0.00032132529
0.00032132529
0.00032132529
0.00032132529
0.00032132529
0.00032132529
0.00032132529
0.00032132529
0.00032132529
0.00032132529
0.00032132529
0.00032132529
0.00032132529
0.00032132529
0.00032132529
0.00032132529
0.00032132529
0.00032132529
0.00032132529
0.00032132529
0.00032132529
0.00032132529
0.00032132529
0.00032132529
0.00032132529
0.00032132529
0.00032132529
0.00032132529
0.00032132529
0.00032132529
0.00032132529
0.00032132529
0.00032132529
0.00032132529
0.00032132529
0.00032132529
0.00032132529
0.00032132529
0.00032132529
0.00032132529
0.00032132529
0.00032132529
0.00032132529
0.00032132529
0.00032132529
0.00032132529
0.00032132529
0.00032132529
0.00032132529
0.00032132529
0.00032132529
0.00032132529
0.00032132529
0.00032132529
0.00032132529
0.00032132529
0.00032132529
0.00032132529
0.00032132529
0.00032132529
0.00032132529
0.00032132529
0.00032132529
0.00032132529
0.00032132529
0.00032132529
0.00032132529
0.00032132529
0.00032132529
0.00032132529
0.00032132529
0.00032132529
0.00032132529
0.00032132529
0.00032132529
0.00032132529
0.00032132529
0.00032132529
0.00032132529
0.00032132529
0.00032132529
0.00032132529
0.00032132529
0.00032132529
0.00032132529
0.00032132529
0.00032132529
0.00032132529
0.00032132529
0.00032132529
0.00032132529
0.00032132529
0.00032132529
0.00032132529
0.00032132529
0.00032132529
0.00032132529
)
;
        value           nonuniform List<scalar> 
130
(
752.13992
760.13143
768.5045
776.82103
784.74713
792.05419
798.5902
804.26147
809.02543
812.86111
815.74272
817.66457
818.62789
746.2635
755.59365
765.13221
774.38806
783.02708
790.854
797.76194
803.69439
808.63109
812.57926
815.54298
817.51643
818.50215
734.47444
746.87662
758.92703
770.0796
780.08445
788.86609
796.42279
802.79252
808.02237
812.16515
815.25626
817.30468
818.32463
716.79634
735.00883
751.13696
765.00972
776.79247
786.72798
795.03237
801.88981
807.44445
811.80351
815.03298
817.16503
818.22711
695.85305
723.61642
744.56727
761.05195
774.3449
785.18099
794.04266
801.25746
807.05365
811.57606
814.8945
817.07784
818.16292
695.55528
723.36904
744.34792
760.83191
774.11839
784.97925
793.88289
801.13565
806.95682
811.49667
814.82935
817.02408
818.11651
715.9696
734.26206
750.44817
764.35637
776.17847
786.16348
794.54413
801.49358
807.1391
811.56569
814.84537
817.00972
818.08922
733.28762
745.77839
757.91098
769.12845
779.20041
788.05727
795.70129
802.17887
807.53411
811.79347
814.96716
817.06852
818.11888
744.83906
754.26275
763.88927
773.22638
781.95227
789.87551
796.89038
802.95026
808.04157
812.12605
815.18093
817.21365
818.22904
750.57342
758.65905
767.11442
775.51578
783.54548
790.97435
797.64949
803.46934
808.39303
812.36272
815.3451
817.3362
818.33193
)
;
        Tnbr            T;
        thicknessLayers List<scalar> 0();
        kappaLayers     List<scalar> 0();
        kappaMethod     solidThermo;
        kappa           none;
        alphaAni        none;
        alpha           none;
        field           T;
    }
    rightSolid_to_heater
    {
        type            compressible::turbulentTemperatureCoupledBaffleMixed;
        refValue        nonuniform List<scalar> 10(745.0729 737.86735 722.85209 698.00555 656.80812 656.54479 697.15401 721.6079 736.38234 743.45196);
        refGradient     uniform 0;
        valueFraction   nonuniform List<scalar> 10(0.50000003 0.50000003 0.50000003 0.50000003 0.50000003 0.50000003 0.50000003 0.50000003 0.50000003 0.50000003);
        value           nonuniform List<scalar> 10(748.64836 742.11498 728.70982 707.43666 676.36225 676.08109 706.5968 727.49405 740.66041 747.05457);
        Tnbr            T;
        thicknessLayers List<scalar> 0();
        kappaLayers     List<scalar> 0();
        kappaMethod     solidThermo;
        kappa           none;
        alphaAni        none;
        alpha           none;
        field           T;
    }
}


// ************************************************************************* //
