/*--------------------------------*- C++ -*----------------------------------*\
| =========                 |                                                 |
| \\      /  F ield         | OpenFOAM: The Open Source CFD Toolbox           |
|  \\    /   O peration     | Version:  v2012                                 |
|   \\  /    A nd           | Website:  www.openfoam.com                      |
|    \\/     M anipulation  |                                                 |
\*---------------------------------------------------------------------------*/
FoamFile
{
    version     2.0;
    format      ascii;
    class       volScalarField;
    location    "20";
    object      p;
}
// * * * * * * * * * * * * * * * * * * * * * * * * * * * * * * * * * * * * * //

dimensions      [0 2 -2 0 0 0 0];


internalField   nonuniform List<scalar> 
64000
(
6.44159e-22
-3.56816e-21
-2.24877e-21
-4.17989e-21
-6.80851e-21
-1.65404e-21
-2.888e-21
-2.31376e-21
-3.89282e-21
-3.70849e-21
-1.51665e-21
-4.61511e-21
-3.00978e-21
-5.43252e-21
-2.93823e-21
-4.44874e-21
-7.76492e-22
-3.48924e-22
1.45994e-21
5.59899e-22
-1.91656e-21
-3.60439e-21
-1.62493e-21
1.14171e-21
-4.69219e-21
-1.37004e-21
-4.98473e-22
-1.49918e-21
-1.66949e-21
-1.8563e-21
-3.14387e-21
-1.41442e-21
-1.22709e-22
2.56402e-22
-5.50216e-23
-4.10377e-21
-1.46207e-21
1.59706e-21
1.43571e-21
1.52508e-21
-6.38512e-21
-8.95478e-21
-9.37781e-21
-6.3624e-21
-8.19966e-21
-9.86878e-21
-6.04091e-21
-2.40578e-21
-4.12598e-21
-6.43259e-21
-3.58192e-21
-7.07972e-21
-2.95379e-21
-3.5828e-21
-5.38076e-21
-5.91346e-21
-4.06111e-21
1.70256e-21
-1.95168e-22
-8.29246e-23
7.53486e-22
-2.89168e-21
-5.6776e-21
-5.90273e-21
-5.84402e-21
-4.04758e-22
-3.45505e-22
-2.92985e-21
-2.12524e-21
-8.39152e-22
1.83275e-21
4.23404e-23
-4.05631e-21
-2.05303e-21
-1.25314e-22
-1.13712e-21
-1.02018e-21
2.11651e-21
5.1729e-22
8.91713e-22
-4.85429e-21
-5.64359e-21
-1.2873e-20
-8.82084e-21
-7.13422e-21
-9.5977e-21
-7.11472e-21
-6.33083e-21
-6.94673e-21
-6.02056e-21
-4.05772e-21
-6.4644e-21
-4.39258e-21
-3.95346e-21
-2.04814e-21
-2.15654e-21
-7.30118e-21
-2.59607e-21
-1.20811e-21
-8.14854e-22
-6.52751e-22
-2.72297e-21
-6.22563e-21
-4.31528e-21
-1.87983e-21
-2.24576e-21
-3.06982e-21
-3.22581e-21
-5.25408e-22
-2.02188e-21
3.28125e-22
-1.41077e-21
-4.14397e-21
-3.16311e-22
-4.59473e-22
-1.30734e-21
1.66735e-21
2.22964e-21
1.45303e-22
1.01711e-21
-8.34004e-21
-7.81749e-21
-8.99971e-21
-1.17297e-20
-1.10077e-20
-1.17574e-20
-7.2925e-21
-4.77058e-21
-7.39707e-21
-7.02124e-21
-6.2138e-21
-6.60974e-21
-6.29526e-21
-3.62172e-21
-3.01963e-21
-4.44072e-21
-4.53169e-21
-1.95903e-21
-1.61024e-21
-2.96259e-22
1.06584e-21
-2.6616e-21
-1.00472e-20
-5.85146e-21
-3.00506e-21
-3.77878e-21
-1.30829e-21
4.14837e-22
-1.69939e-21
-3.55726e-21
1.17347e-21
-1.90774e-22
-4.38358e-21
-4.96249e-22
-1.42689e-22
-3.12135e-22
1.7897e-21
4.94762e-22
-1.44862e-21
-3.05002e-22
-1.45599e-20
-8.54486e-21
-1.03648e-20
-9.21261e-21
-1.14109e-20
-1.23792e-20
-8.1281e-21
-2.5243e-21
-6.52714e-21
-8.84948e-21
-6.58459e-21
-6.67587e-21
-5.16934e-21
-1.70873e-21
-6.14275e-21
-8.46477e-21
-4.10707e-21
1.13639e-21
-8.79609e-22
-2.32501e-21
1.43629e-21
-4.64237e-21
-1.12249e-20
-6.46673e-21
-2.2381e-21
-2.13383e-21
-7.2103e-23
-9.18592e-22
-3.76866e-21
-6.06729e-22
3.05141e-22
5.18759e-22
-1.84412e-21
1.6062e-21
-1.57602e-21
-1.32736e-21
1.48997e-22
3.76092e-22
-2.62942e-21
-2.25329e-21
-1.05636e-20
-9.90476e-21
-9.76741e-21
-1.14853e-20
-1.06125e-20
-9.8632e-21
-6.94341e-21
-8.6628e-21
-8.91971e-21
-8.37614e-21
-5.53508e-21
-7.13963e-21
-6.8417e-21
-1.50238e-21
-4.41686e-21
-8.47213e-21
-3.86966e-21
1.86117e-21
1.09728e-21
-1.97433e-21
1.64185e-21
-4.25481e-21
-1.1057e-20
-7.32494e-21
-3.55076e-21
-1.6079e-21
-2.18928e-21
7.10356e-23
-1.11285e-21
-2.53726e-21
-2.80008e-21
-1.98542e-21
-9.3523e-22
7.95508e-22
-6.95086e-22
-4.33347e-22
-2.54324e-21
-2.30809e-21
-9.59683e-22
3.60354e-22
-1.20974e-20
-1.27064e-20
-8.0078e-21
-9.8306e-21
-1.08868e-20
-1.10315e-20
-7.34597e-21
-9.03379e-21
-9.5523e-21
-6.81696e-21
-6.08017e-21
-7.99737e-21
-6.01907e-21
-4.62104e-21
-5.4794e-21
-7.44344e-21
-2.69344e-21
2.34802e-21
2.15103e-21
2.88763e-22
-2.11189e-21
-5.26353e-21
-1.17589e-20
-7.96519e-21
-3.02531e-21
-2.21931e-21
-1.23897e-21
1.87153e-21
2.27804e-22
-1.70553e-21
-4.33326e-21
-2.90194e-21
5.21284e-22
-6.3713e-22
-1.20852e-21
-2.41035e-21
-2.67019e-21
-8.77079e-22
-1.92497e-21
-9.8873e-22
-1.32675e-20
-1.22581e-20
-1.00412e-20
-7.45567e-21
-1.17848e-20
-8.36808e-21
-6.33783e-21
-1.27741e-20
-1.05552e-20
-8.62061e-21
-7.29912e-21
-8.14803e-21
-8.22406e-21
-7.50334e-21
-5.13112e-21
-7.25054e-21
-2.06802e-21
1.12248e-21
2.93103e-21
5.01636e-23
-4.15451e-21
-6.42383e-21
-9.00412e-21
-4.5624e-21
-2.43289e-21
-4.24244e-21
-1.25068e-21
1.65896e-21
7.41216e-22
-9.70537e-22
-4.1533e-21
-2.45496e-21
1.00841e-22
-2.10529e-21
-3.77553e-21
-2.53316e-21
-4.22642e-21
-2.2573e-21
-1.33102e-22
-2.79782e-22
-1.87199e-20
-1.36754e-20
-1.11697e-20
-9.93639e-21
-9.24257e-21
-9.8762e-21
-9.43957e-21
-9.59332e-21
-1.07973e-20
-1.34323e-20
-5.75517e-21
-7.4469e-21
-5.43867e-21
-1.01261e-20
-7.26413e-21
-6.92182e-21
-2.33292e-21
3.04976e-21
-1.10226e-21
-1.75828e-21
-4.58636e-21
-6.03587e-21
-6.31414e-21
-6.5177e-21
5.73031e-22
-1.54598e-21
-3.55175e-21
-4.25418e-23
8.52611e-22
-1.4712e-22
1.01619e-22
-9.70277e-22
-3.95184e-21
-2.13239e-21
-5.62268e-21
-2.55073e-21
-2.14888e-21
-4.0493e-23
9.88419e-22
-1.40964e-21
-9.634e-21
-1.18183e-20
-1.22864e-20
-1.00004e-20
-9.68461e-21
-1.14887e-20
-9.33166e-21
-9.50254e-21
-1.05914e-20
-1.09992e-20
-7.4575e-21
-5.56515e-21
-5.55584e-21
-9.33232e-21
-9.11946e-21
-6.12845e-21
-3.60043e-21
-5.0076e-22
1.97369e-21
-1.25354e-21
-3.92645e-21
-3.89116e-21
-8.15259e-21
-4.94369e-21
-1.91439e-21
-2.30902e-21
-1.61453e-21
9.74944e-22
-1.25078e-22
-1.24916e-21
-1.36102e-21
-4.96044e-22
-1.53462e-21
-2.54387e-21
-6.18421e-21
-5.35768e-21
-1.5359e-21
1.04794e-21
1.74394e-21
-5.85861e-22
-7.3649e-21
-1.23079e-20
-1.32371e-20
-1.35928e-20
-9.21277e-21
-1.10678e-20
-1.34824e-20
-7.39317e-21
-9.95493e-21
-1.38486e-20
-8.75649e-21
-4.26573e-21
-4.87917e-21
-7.13169e-21
-8.62378e-21
-9.50931e-21
-6.22888e-21
1.97128e-21
4.42091e-21
4.88605e-22
-5.38438e-21
-1.01205e-20
-7.07036e-21
-5.462e-21
-2.96137e-21
-3.29447e-21
5.86379e-22
2.31496e-21
-8.23949e-22
-2.82632e-21
-1.78058e-21
4.80841e-22
-2.54023e-21
-1.56872e-21
-4.12002e-21
-5.55312e-21
-2.5272e-21
-1.18431e-21
-1.16024e-21
-2.64561e-22
-1.03287e-20
-1.39136e-20
-1.44495e-20
-1.11825e-20
-1.05211e-20
-1.45211e-20
-9.90615e-21
-9.42945e-21
-7.66246e-21
-1.11412e-20
-1.37094e-20
-6.22475e-21
-4.86167e-21
-8.05651e-21
-9.86477e-21
-7.04537e-21
-4.13904e-21
2.21853e-21
2.22926e-21
4.03289e-22
-4.75831e-21
-8.99804e-21
-7.21151e-21
-6.61325e-21
-5.88253e-21
1.50589e-22
2.68141e-21
3.23278e-22
-4.01043e-21
-7.56515e-22
2.9907e-22
-6.72396e-22
-1.35891e-21
-2.60038e-21
-3.67865e-21
-2.67641e-21
-1.3689e-21
-1.67646e-21
-2.42635e-21
-2.26676e-21
-1.55401e-20
-1.42648e-20
-1.39446e-20
-1.17128e-20
-1.24282e-20
-1.28802e-20
-1.2743e-20
-1.21892e-20
-1.21063e-20
-9.82866e-21
-9.51777e-21
-5.75721e-21
-6.59751e-21
-8.98843e-21
-6.53997e-21
-5.10244e-21
-2.85064e-21
-1.82571e-22
-2.24838e-21
-2.51684e-21
-3.29835e-21
-5.37385e-21
-6.41065e-21
-6.10905e-21
-3.19633e-21
-4.20317e-22
5.84525e-22
-6.41922e-22
-1.02951e-21
6.48393e-22
-3.10267e-21
-1.18965e-21
-3.16909e-22
-3.09166e-21
-3.59265e-21
-1.76495e-21
-2.0597e-21
-2.48556e-21
-2.08646e-21
-1.55374e-21
-1.74749e-20
-1.67558e-20
-1.31522e-20
-1.25606e-20
-1.04265e-20
-1.18408e-20
-1.25186e-20
-1.03561e-20
-1.07781e-20
-1.29051e-20
-8.1588e-21
-4.29594e-21
-8.77585e-21
-1.36342e-20
-7.48198e-21
-5.02993e-21
-1.37472e-21
2.02481e-21
-1.51337e-21
-3.01263e-21
-5.62721e-21
-6.96106e-21
-6.69948e-21
-8.98906e-21
-1.82407e-21
-6.98051e-22
-8.24371e-22
-1.01572e-21
1.23339e-21
3.06316e-21
-2.73137e-22
-2.83808e-21
-1.67671e-21
-1.65072e-21
-2.02361e-21
-2.90045e-21
-3.0482e-21
-2.9055e-21
-1.56204e-21
-1.81044e-21
-1.15132e-20
-1.84196e-20
-1.68771e-20
-1.10948e-20
-8.69497e-21
-1.16327e-20
-1.5914e-20
-1.52617e-20
-1.12558e-20
-8.99259e-21
-5.97434e-21
-7.1377e-21
-9.19413e-21
-1.08428e-20
-4.12537e-21
-4.81872e-21
-2.62456e-21
-2.39452e-21
-3.77121e-21
-2.21866e-21
-8.41337e-21
-4.35678e-21
-5.04717e-21
-8.48332e-21
-5.08273e-22
-1.33555e-21
-2.19416e-21
-9.21673e-22
1.68954e-21
2.31551e-21
5.27544e-22
-1.76627e-21
-1.80943e-21
-9.50306e-22
-1.55641e-21
-3.39815e-21
-3.69733e-21
-3.76595e-21
-2.10623e-21
1.70645e-22
-1.33458e-20
-1.33425e-20
-1.62308e-20
-1.23015e-20
-1.28351e-20
-1.07825e-20
-1.43748e-20
-1.52029e-20
-9.40754e-21
-5.95951e-21
-9.84123e-21
-9.4313e-21
-6.95051e-21
-7.63599e-21
-7.14299e-21
-5.97558e-21
-2.18982e-21
-2.93979e-21
-2.79908e-21
-5.01575e-21
-7.68036e-21
-5.10263e-21
-3.92464e-21
-3.62139e-21
-8.63359e-22
-2.67738e-21
-3.8549e-21
-2.65163e-21
2.82806e-21
2.27097e-21
-1.84024e-21
-4.52613e-21
1.73635e-21
9.61178e-24
-8.46505e-22
-1.81092e-21
-5.24666e-21
-4.24772e-21
-1.4312e-21
-1.42222e-22
-1.41212e-20
-1.24716e-20
-1.51361e-20
-1.03826e-20
-1.00237e-20
-1.20416e-20
-1.44967e-20
-1.46417e-20
-9.52798e-21
-8.6346e-21
-9.71606e-21
-1.20458e-20
-3.88461e-21
-6.87836e-21
-5.68375e-21
-4.99295e-21
-3.69504e-21
-1.69682e-21
-4.21371e-21
-5.75034e-21
-7.7428e-21
-5.02565e-21
-3.75114e-21
-1.2507e-21
-7.27723e-22
-1.28914e-21
-2.31694e-21
-2.44717e-21
9.84137e-22
-3.58559e-22
-4.00648e-21
-1.81022e-21
1.58727e-21
-9.08067e-22
-1.35641e-21
-1.06229e-21
-3.03987e-21
-3.51458e-21
-2.97424e-22
-2.02364e-21
-1.08548e-20
-1.37074e-20
-1.88061e-20
-1.06713e-20
-6.98728e-21
-1.18148e-20
-1.54829e-20
-1.35649e-20
-1.07402e-20
-8.74162e-21
-1.04782e-20
-1.08169e-20
-6.72927e-21
-7.24563e-21
-1.99852e-21
-7.8061e-21
-6.05004e-21
1.49886e-21
-3.46555e-22
-8.28186e-21
-8.96446e-21
-8.46115e-21
-9.11362e-22
-1.01186e-22
1.15427e-21
-3.8121e-21
-2.36751e-21
-2.87678e-22
-2.09924e-22
6.95351e-24
-1.62713e-21
-4.77852e-22
3.58108e-22
-6.266e-22
1.55298e-22
-2.98008e-21
-1.96698e-21
-2.56665e-21
3.80959e-23
-8.21502e-22
-9.08465e-21
-1.1357e-20
-1.45298e-20
-1.27632e-20
-1.14721e-20
-1.16465e-20
-1.28399e-20
-1.18524e-20
-1.10939e-20
-9.49566e-21
-1.12543e-20
-9.56086e-21
-6.34896e-21
-6.90617e-21
-3.29009e-21
-6.66207e-21
-7.32103e-21
-6.22709e-21
-7.98856e-21
-5.63126e-21
-4.6174e-21
-2.93233e-21
-1.91475e-21
-7.90481e-22
5.65443e-22
-9.93388e-22
-4.52384e-22
1.55303e-21
8.25855e-22
-8.44436e-22
-4.13531e-21
-1.58504e-21
5.66013e-22
-4.38241e-22
-4.60212e-22
-3.46522e-22
-1.1304e-22
-9.27703e-22
-2.96745e-21
-2.79178e-21
-7.07782e-21
-9.27207e-21
-1.67486e-20
-1.38014e-20
-1.20025e-20
-9.4479e-21
-9.53001e-21
-1.45984e-20
-1.29021e-20
-1.12895e-20
-8.88553e-21
-9.70514e-21
-4.78636e-21
-5.73999e-21
-7.52264e-21
-7.77835e-21
-4.47414e-21
-3.60105e-21
-9.50335e-21
-5.12896e-21
-5.87327e-21
-5.43224e-21
-2.89795e-21
2.25605e-22
1.4569e-21
1.3136e-21
-4.27827e-21
-3.13853e-22
6.86071e-22
-1.38203e-21
-3.59172e-21
-1.22038e-21
1.54764e-22
1.41278e-22
-4.22704e-22
3.32865e-22
-1.11028e-21
-5.47612e-22
-1.94773e-21
-2.43633e-21
-9.94218e-21
-1.12557e-20
-1.47747e-20
-1.26304e-20
-1.23615e-20
-9.38573e-21
-8.83458e-21
-9.64271e-21
-1.14797e-20
-1.28387e-20
-1.46768e-20
-8.97715e-21
-6.69288e-21
-4.86259e-21
-7.09394e-21
-6.06706e-21
-6.08347e-21
-2.7427e-21
-5.72226e-21
-5.57088e-21
-6.12984e-21
-5.40561e-21
-1.13184e-21
-1.53414e-21
-2.67116e-21
8.622e-22
-1.63004e-21
-1.29456e-21
3.00705e-23
-4.98957e-23
-2.382e-21
-7.34912e-22
-1.39096e-21
1.16697e-21
-2.41739e-22
-1.12687e-21
-3.62744e-22
-1.71714e-21
-1.12292e-21
-3.11032e-21
-1.54919e-20
-1.48174e-20
-1.27855e-20
-1.21978e-20
-1.14466e-20
-9.96467e-21
-1.04618e-20
-9.16393e-21
-8.76974e-21
-1.34614e-20
-1.48502e-20
-7.31936e-21
-6.25319e-21
-1.1648e-20
-7.20511e-21
-5.97001e-21
-2.28589e-21
-2.45073e-21
-5.4968e-21
-5.81304e-21
-7.18142e-21
-1.17482e-21
-1.88776e-21
-2.52871e-21
-4.44649e-22
-3.12324e-22
-3.24319e-21
-2.59138e-21
1.78117e-22
9.1204e-22
-2.94663e-21
-1.8089e-22
-2.03695e-22
4.40166e-23
-1.21056e-21
-4.45818e-21
-9.82351e-22
-6.86226e-22
1.48731e-22
5.07705e-22
-1.69046e-20
-1.69708e-20
-1.21683e-20
-1.1524e-20
-1.16441e-20
-1.29892e-20
-8.51876e-21
-9.61855e-21
-1.19912e-20
-1.15088e-20
-1.20409e-20
-9.69307e-21
-7.7496e-21
-6.16889e-21
-6.15581e-21
-6.33857e-21
-3.49571e-21
5.79811e-22
-2.17303e-22
-6.00577e-21
-6.76238e-21
-2.25745e-21
-5.89629e-21
-4.83929e-21
-2.33528e-21
-8.36435e-22
-2.16492e-21
-1.57335e-21
7.45312e-22
8.92471e-22
-3.43637e-21
-1.11917e-21
-2.84336e-22
5.70022e-22
-1.049e-21
-4.05349e-21
-2.0901e-21
9.04345e-22
-1.1628e-21
-1.31041e-21
-1.13936e-20
-1.29993e-20
-1.58601e-20
-1.10771e-20
-1.1213e-20
-1.23957e-20
-1.24125e-20
-1.37808e-20
-8.6753e-21
-9.64881e-21
-1.1745e-20
-1.11395e-20
-2.71406e-21
-7.45783e-21
-8.81311e-21
-3.43322e-21
1.33626e-21
-1.48042e-21
-3.00429e-21
-4.28735e-21
-6.25095e-21
-4.85956e-21
-3.79835e-21
-2.56862e-21
-4.51308e-21
-1.73099e-21
-1.98745e-21
-3.11855e-21
2.54095e-21
5.8533e-22
-2.80937e-21
-1.78412e-21
-3.19375e-22
-2.1237e-21
-3.33818e-21
-3.31007e-21
-2.01355e-21
3.45513e-23
-1.77923e-21
-2.0306e-21
-8.12836e-21
-1.24974e-20
-1.40759e-20
-1.29643e-20
-1.00603e-20
-1.27245e-20
-1.17674e-20
-1.1178e-20
-7.85945e-21
-1.17846e-20
-1.38513e-20
-9.37797e-21
-3.33525e-21
-5.0638e-21
-6.35141e-21
-1.23392e-21
-1.60369e-21
-5.41799e-21
-1.92288e-21
-1.12225e-21
-4.33998e-21
-5.89279e-21
-2.23851e-21
-4.65257e-21
-5.22946e-21
-4.31077e-21
-1.49712e-21
9.22874e-22
7.25036e-22
-5.79635e-22
4.72407e-23
-2.72047e-21
-3.60893e-21
7.94558e-22
-2.98332e-21
-2.53094e-21
-2.22336e-21
-1.46536e-21
-1.32934e-21
-4.71958e-22
-1.1105e-20
-1.38574e-20
-1.53137e-20
-1.05427e-20
-1.01737e-20
-1.1522e-20
-1.12502e-20
-1.04336e-20
-7.5869e-21
-8.71464e-21
-1.33948e-20
-1.17138e-20
-3.39076e-21
-6.68367e-21
-1.69605e-21
-3.89287e-21
-3.66296e-21
-5.95343e-22
1.54368e-21
-2.96112e-21
-2.87771e-21
-4.9071e-21
-8.0468e-21
-8.53652e-21
-6.25441e-21
-6.07855e-21
7.6268e-22
-2.21728e-21
-1.05197e-21
9.79979e-22
-7.49876e-22
-2.51319e-21
-3.8051e-21
6.32831e-22
1.09614e-21
-9.05211e-22
-1.78126e-21
-4.29215e-21
-2.63484e-22
-2.55832e-22
-6.56933e-21
-1.00732e-20
-1.32642e-20
-1.54819e-20
-1.43299e-20
-1.36466e-20
-1.04663e-20
-4.81605e-21
-7.73352e-21
-1.07205e-20
-1.40054e-20
-1.06287e-20
-2.32788e-21
-5.46794e-21
-5.43857e-21
-6.95654e-21
-4.60288e-21
-2.47207e-21
3.87458e-21
1.58264e-21
-2.16252e-21
-7.30201e-21
-6.228e-21
-7.27904e-21
-7.12296e-21
-4.10931e-21
2.22414e-21
2.05313e-22
-4.20304e-21
-1.43861e-21
1.15596e-21
-1.23155e-21
-1.66221e-21
-2.58242e-22
-3.64219e-21
9.88429e-22
-1.67604e-21
-6.55015e-21
-3.72866e-21
-1.99155e-21
-7.70086e-21
-1.11362e-20
-1.32242e-20
-1.50507e-20
-1.22306e-20
-1.22536e-20
-9.98653e-21
-9.48593e-21
-7.47831e-21
-9.07862e-21
-1.19831e-20
-7.09205e-21
-5.23997e-21
-4.58476e-21
-6.89661e-21
-3.99291e-21
-4.17665e-21
-1.63497e-21
1.85429e-21
1.51309e-21
-3.15307e-21
-2.81313e-21
-4.79503e-21
-8.29624e-21
-7.04302e-21
-1.6564e-21
5.14421e-22
-7.60109e-22
-2.55569e-21
-1.69223e-21
-1.14935e-21
-1.03765e-21
-2.33532e-21
-3.91029e-21
-2.35721e-21
-2.18941e-21
-3.16575e-21
-3.7125e-21
-2.2182e-21
-2.38219e-22
-9.39258e-21
-1.36821e-20
-1.47773e-20
-1.22435e-20
-1.5534e-20
-1.35476e-20
-9.00431e-21
-6.47921e-21
-6.90955e-21
-1.06238e-20
-1.30806e-20
-4.02435e-21
-4.77695e-21
-7.18419e-21
-4.83705e-21
-5.09455e-21
-4.53983e-21
1.67596e-21
1.66653e-21
1.67703e-21
-5.28492e-21
-5.21892e-21
-3.95034e-21
-5.18953e-21
-4.80854e-21
-2.68735e-21
-6.82447e-22
-8.13206e-22
-1.06918e-22
-2.22257e-21
-1.30081e-21
-1.03618e-21
-2.05244e-21
-1.42912e-21
-1.83435e-21
-6.43329e-21
-4.42321e-21
-3.47407e-21
-1.34109e-21
-1.05485e-22
-8.94603e-21
-1.21366e-20
-1.38594e-20
-1.39936e-20
-1.49481e-20
-1.44117e-20
-9.146e-21
-4.56719e-21
-7.2425e-21
-1.0353e-20
-1.13031e-20
-6.60902e-21
-3.10433e-21
-8.35e-21
-5.96851e-21
-4.90259e-21
-2.71478e-21
-1.34077e-21
1.78636e-21
4.91272e-21
-2.44198e-21
-5.86612e-21
-6.42427e-21
-5.08139e-21
-6.76759e-21
-4.14418e-21
1.26347e-21
1.56308e-21
-1.69311e-22
-2.94665e-22
-1.58314e-21
-1.74572e-21
-2.78032e-21
-1.64402e-21
-4.07755e-21
-4.11093e-21
-3.75909e-21
-1.50576e-21
-4.52826e-22
5.4334e-22
-1.142e-20
-1.21374e-20
-1.15645e-20
-1.29785e-20
-1.24996e-20
-1.2414e-20
-8.75523e-21
-6.415e-21
-7.28641e-21
-9.06912e-21
-7.29196e-21
-6.67014e-21
-6.3789e-21
-7.37173e-21
-4.9079e-21
-4.37566e-21
-1.02163e-21
1.10176e-21
1.31331e-21
6.60658e-22
-8.64406e-22
-6.78555e-21
-6.93341e-21
-5.06471e-21
-3.8388e-21
-2.95361e-21
-1.8483e-21
-4.98747e-23
-1.56479e-21
-6.23329e-22
-1.62201e-21
-8.73899e-22
6.58104e-22
-1.68451e-21
-3.75227e-21
-7.1657e-21
-3.68026e-21
5.26283e-23
-7.60267e-22
-9.34507e-22
-1.54508e-20
-1.40815e-20
-1.07105e-20
-1.0873e-20
-1.22064e-20
-1.35658e-20
-9.32834e-21
-7.7237e-21
-6.89261e-21
-7.74696e-21
-4.17433e-21
-7.51287e-21
-1.04336e-20
-7.34972e-21
-4.0873e-21
-3.06454e-21
5.22379e-23
1.45008e-21
2.23144e-21
-9.32267e-22
1.84006e-22
-3.92607e-21
-1.14737e-20
-7.85073e-21
-4.09783e-21
-4.6911e-21
-1.08983e-21
7.58579e-22
-3.63789e-22
4.53773e-22
-1.65397e-21
-1.61781e-21
2.05529e-21
-1.92811e-21
-6.42408e-21
-5.54094e-21
-1.89132e-21
1.41013e-21
-1.54571e-21
-1.58047e-21
-9.76153e-21
-8.60679e-21
-9.2982e-21
-8.42756e-21
-1.54615e-20
-1.36173e-20
-9.84516e-21
-8.91962e-21
-6.82909e-21
-6.98715e-21
-6.50932e-21
-6.96209e-21
-1.0078e-20
-6.31122e-21
-2.34682e-21
-3.50217e-21
-1.30965e-21
-4.53526e-22
2.60783e-21
-4.17064e-22
-1.13689e-21
-4.05499e-21
-8.22408e-21
-4.38726e-21
-7.94983e-21
-7.17183e-21
6.11208e-22
3.17457e-22
-2.59549e-22
8.73458e-22
-2.05843e-21
-7.09182e-22
1.51167e-21
-1.38888e-21
-3.91768e-21
-3.20949e-21
-5.3004e-22
-2.70682e-21
-1.94578e-21
-7.48848e-22
-1.0232e-20
-9.31545e-21
-9.13269e-21
-1.33851e-20
-1.3627e-20
-1.02454e-20
-8.47155e-21
-6.80895e-21
-8.19738e-21
-5.12797e-21
-5.51085e-21
-9.36073e-21
-8.96768e-21
-5.1568e-21
-3.82948e-21
-2.2624e-21
-9.76799e-22
-3.72939e-22
3.00559e-22
-9.58538e-23
1.46303e-21
-5.7586e-21
-5.3011e-21
-5.10716e-21
-4.91948e-21
-4.11523e-21
-1.75426e-21
-2.30126e-21
-9.18961e-22
2.65449e-23
-9.44714e-22
-1.49943e-22
1.36334e-21
-4.4425e-22
-1.14428e-21
-1.88132e-21
-7.38583e-22
1.62403e-21
-4.04219e-21
-3.20617e-21
-1.17621e-20
-8.68851e-21
-7.89513e-21
-9.04524e-21
-1.17787e-20
-1.31196e-20
-1.00453e-20
-8.673e-21
-7.42686e-21
-5.34429e-21
-4.66498e-21
-9.19264e-21
-3.55682e-21
-2.94755e-21
-4.0768e-21
-3.66569e-21
-3.87154e-21
1.03971e-21
3.30493e-21
1.31383e-21
3.04832e-22
-6.81005e-21
-2.90358e-21
-5.10845e-21
-5.46937e-21
-3.11888e-21
-2.32765e-21
-4.8519e-21
-2.00039e-21
-1.98783e-21
-1.68471e-21
3.80959e-22
6.16462e-22
-1.03221e-22
-1.12448e-22
4.82823e-22
-8.92571e-22
1.56562e-21
1.74163e-22
-4.77216e-22
-7.94174e-21
-8.17776e-21
-9.59002e-21
-8.69156e-21
-8.5308e-21
-1.62543e-20
-8.77383e-21
-8.16083e-21
-7.56645e-21
-8.25084e-21
-7.24182e-21
-2.74139e-21
-3.73729e-21
-3.03643e-21
-4.28211e-21
-3.21095e-21
-3.81842e-21
2.45128e-22
2.21385e-21
3.08765e-22
-3.26822e-22
-3.187e-21
-3.69033e-21
-4.62422e-21
-3.62631e-21
-1.15158e-21
2.46861e-22
-2.07102e-21
-3.67413e-21
-2.17996e-21
-3.09012e-21
-1.60682e-21
1.17618e-21
8.11605e-22
-9.55193e-22
3.67631e-23
1.14276e-21
3.17797e-21
-1.57178e-21
-2.71951e-21
-6.56811e-21
-7.77389e-21
-7.58224e-21
-1.23129e-20
-9.88397e-21
-1.11867e-20
-9.00328e-21
-8.46774e-21
-9.33914e-21
-6.43902e-21
-5.45797e-21
-3.35856e-21
-3.80833e-21
-2.09192e-21
-5.16799e-21
-4.15731e-21
-4.27184e-21
2.04664e-21
4.27462e-21
-6.09953e-22
-1.6204e-22
-9.04369e-22
-2.91747e-21
-4.82123e-21
-4.74729e-21
-3.00334e-21
-1.75838e-21
-1.37071e-21
-5.25312e-22
-2.0872e-21
-4.96825e-21
-3.07505e-21
-1.13322e-21
5.52165e-22
-1.28982e-21
-1.4601e-22
3.31036e-21
3.27704e-21
-3.40311e-21
-2.33544e-21
-4.50192e-21
-6.11484e-21
-1.10496e-20
-7.99413e-21
-7.2052e-21
-1.03069e-20
-9.54696e-21
-7.89985e-21
-8.1153e-21
-5.95538e-21
-3.20917e-21
-5.89596e-21
-3.58106e-21
-2.50355e-21
-3.07356e-21
-2.8865e-21
-1.46141e-21
-1.81751e-22
2.092e-21
5.8588e-22
-3.0902e-22
2.11386e-21
-3.18777e-21
-5.20005e-21
-2.23141e-21
1.90917e-22
-2.75698e-21
-1.28749e-21
1.07613e-21
-2.71412e-21
-6.4954e-21
-4.1069e-21
-2.8479e-21
-1.30748e-22
-4.99953e-22
-4.93235e-22
8.06987e-22
1.66209e-21
-9.85391e-22
-1.44572e-21
-5.69213e-21
-6.88757e-21
-9.87315e-21
-6.92493e-21
-7.25105e-21
-1.04383e-20
-6.88051e-21
-3.82899e-21
-7.97834e-21
-8.09112e-21
-4.67024e-21
-3.84412e-21
-1.91056e-21
-1.84905e-21
-4.15345e-21
-4.24692e-21
-1.88924e-21
1.54359e-21
8.85901e-22
1.87618e-21
1.78231e-21
-1.81075e-21
-1.9308e-21
-4.16648e-21
-4.80406e-21
7.60833e-22
1.05931e-21
1.24101e-21
4.69676e-22
-5.13579e-21
-2.74184e-21
-4.63699e-21
-2.50663e-21
-1.14e-21
5.77997e-22
-6.51669e-22
-1.97158e-21
-7.31387e-22
2.13676e-22
1.62712e-22
-6.08024e-21
-5.10536e-21
-6.36476e-21
-2.66075e-21
-1.23215e-21
-4.62654e-21
-7.6066e-21
-4.64071e-21
-5.58752e-21
-5.82853e-21
-2.01686e-21
-3.42873e-23
-2.44637e-21
-1.10785e-21
-1.78965e-21
-2.68055e-21
-1.03754e-21
-1.16917e-21
2.69361e-21
2.9344e-21
1.41921e-22
-2.71144e-21
-2.28537e-21
-7.09044e-22
-7.14345e-22
4.51312e-22
-1.16118e-21
1.17121e-21
2.97936e-21
-3.59107e-22
-4.24347e-21
-2.25912e-21
-3.09757e-21
-2.66189e-21
-8.7261e-24
-4.43904e-22
-4.351e-21
-1.83154e-21
-2.41767e-22
5.13949e-22
-5.07355e-21
-7.53421e-21
-1.11366e-20
-7.25493e-21
-5.80071e-21
-8.32974e-21
-3.87208e-21
-7.37567e-22
-9.01844e-21
-7.08578e-21
-2.56144e-21
-6.42846e-21
-4.81113e-21
-2.23915e-21
-3.48489e-21
-6.24478e-21
-4.91037e-21
-2.93739e-21
2.48404e-21
1.037e-21
-1.76659e-21
-2.84418e-21
-2.18059e-21
-2.22643e-21
-2.81667e-21
-1.57689e-21
-1.67159e-21
-2.62799e-21
-4.76736e-21
-4.71143e-21
-5.9514e-21
-2.14628e-22
5.72919e-22
-1.00525e-21
-1.41829e-21
-2.44449e-21
1.31344e-22
3.10634e-22
1.18937e-21
1.31976e-21
-7.44588e-21
-9.87062e-21
-1.47267e-20
-1.32282e-20
-8.09463e-21
-1.28246e-20
-1.06085e-20
-5.00178e-21
-8.50048e-21
-1.24054e-20
-9.6754e-21
-7.63585e-21
-7.38219e-21
-5.47838e-21
-6.21224e-21
-4.73034e-21
-4.75578e-21
-4.32101e-21
5.11124e-22
-1.29909e-21
-1.47745e-21
-3.3231e-21
-2.79689e-21
-5.69828e-21
-3.3793e-21
-1.29019e-21
8.04006e-22
9.5437e-22
-5.31933e-21
-1.38525e-21
-2.07413e-21
-2.67714e-22
-3.41109e-21
-1.78313e-21
-3.94172e-21
-1.33651e-21
9.65439e-22
2.60624e-21
5.16453e-22
7.11213e-22
-9.47726e-21
-1.01977e-20
-1.23651e-20
-1.32842e-20
-1.2179e-20
-1.07605e-20
-1.09754e-20
-1.095e-20
-1.19667e-20
-1.21398e-20
-8.34248e-21
-9.02196e-21
-3.40698e-21
-4.12588e-21
-7.13961e-21
-6.40486e-21
-7.91748e-21
-3.93852e-21
1.95462e-21
-7.64252e-22
-3.25348e-21
-3.92213e-21
-3.11531e-21
-2.84e-21
-3.60389e-21
-2.08919e-21
-1.08969e-22
-2.68704e-21
-2.25061e-21
-3.95709e-21
-3.38904e-21
-2.63924e-21
-9.53367e-22
-7.4717e-22
-5.81192e-21
-2.19808e-21
3.04052e-21
5.33699e-21
2.26895e-21
1.1489e-21
-1.36894e-20
-1.33111e-20
-1.14696e-20
-1.36141e-20
-1.48568e-20
-1.47486e-20
-1.17398e-20
-9.27205e-21
-1.15986e-20
-1.10662e-20
-1.03587e-20
-1.10851e-20
-6.75827e-21
-4.31479e-21
-5.3546e-21
-6.36637e-21
-5.66184e-21
-4.3093e-21
-2.73503e-21
5.15351e-22
-3.56984e-21
-4.45565e-21
-6.232e-21
-4.43757e-21
-2.42243e-21
-1.78736e-21
4.44357e-22
1.30489e-21
-1.55271e-21
-7.18788e-21
-4.06234e-21
-2.21127e-21
-2.12818e-21
-1.83545e-21
-3.42813e-21
-1.32454e-21
1.43117e-21
3.35311e-21
2.18139e-21
-3.5849e-22
-1.53689e-20
-1.45383e-20
-1.44138e-20
-1.23955e-20
-1.76134e-20
-1.51783e-20
-1.14983e-20
-7.40359e-21
-1.1056e-20
-1.24644e-20
-1.10222e-20
-1.16121e-20
-7.4801e-21
-6.18387e-21
-6.135e-21
-5.50749e-21
-7.592e-21
-4.05455e-21
-3.36177e-21
-6.3286e-22
-2.9208e-21
-4.47953e-21
-7.00475e-21
-3.56443e-21
-3.462e-21
-1.57824e-21
-1.15837e-21
-1.81017e-21
-5.56914e-22
-1.98752e-21
-2.79448e-21
-3.59931e-21
6.4414e-22
1.79807e-21
-2.53195e-21
-2.30498e-21
1.57059e-21
-4.01131e-22
-1.775e-21
-3.02281e-22
-1.42337e-20
-1.46729e-20
-1.32066e-20
-1.29006e-20
-1.56411e-20
-1.64892e-20
-1.10075e-20
-1.13651e-20
-1.25286e-20
-1.34795e-20
-1.10219e-20
-1.35419e-20
-9.61674e-21
-4.48749e-21
-7.64405e-21
-7.39509e-21
-5.84234e-21
-3.18617e-21
-1.33097e-21
-1.60547e-21
-3.28099e-21
-5.07146e-21
-6.03335e-21
-4.42961e-21
-4.12705e-21
-2.43158e-21
-4.66066e-22
-1.58218e-21
-2.79279e-21
-9.92674e-22
-5.02689e-21
-1.90998e-21
4.07347e-21
-5.80965e-22
-1.92294e-21
-2.01489e-21
-1.22426e-21
-1.05034e-21
5.52731e-22
-3.18598e-23
-1.78007e-20
-1.83469e-20
-1.52386e-20
-1.33923e-20
-1.47203e-20
-1.47721e-20
-1.46774e-20
-1.27664e-20
-1.44719e-20
-1.2312e-20
-1.09977e-20
-1.15964e-20
-9.64442e-21
-6.79912e-21
-1.01164e-20
-8.21547e-21
-3.07447e-21
-1.06569e-21
-1.31138e-22
-1.36996e-21
-3.40587e-21
-3.86717e-21
-4.01654e-21
-6.95046e-21
-2.85626e-21
-2.00177e-21
-2.47541e-21
-3.00254e-22
3.34044e-22
-2.08735e-21
-4.72934e-21
-1.04825e-21
6.55922e-22
5.22973e-23
-4.06157e-21
-2.60369e-21
-6.85992e-22
3.95319e-22
-7.55006e-22
-1.67996e-21
-1.73887e-20
-1.71162e-20
-1.56264e-20
-1.51004e-20
-1.70881e-20
-1.44363e-20
-1.24698e-20
-1.46948e-20
-1.5615e-20
-1.47971e-20
-9.06126e-21
-1.24482e-20
-7.60735e-21
-6.47245e-21
-1.09047e-20
-8.63551e-21
-4.37236e-21
-1.36793e-21
8.52546e-22
-4.44133e-22
-2.57876e-21
-7.1463e-21
-6.83707e-21
-3.55161e-21
-3.02853e-21
-6.32008e-22
-1.14857e-21
-3.60214e-22
-5.36613e-23
-1.86893e-21
-6.13778e-21
2.37496e-22
-3.27971e-22
-4.67736e-21
-3.3977e-21
-1.08173e-21
6.86783e-23
-6.69747e-23
-1.7115e-21
-7.31515e-22
-1.8943e-20
-2.08556e-20
-1.98389e-20
-1.67285e-20
-1.48394e-20
-1.39952e-20
-1.48543e-20
-1.28973e-20
-1.46333e-20
-1.43182e-20
-1.19774e-20
-1.34759e-20
-7.39695e-21
-7.47112e-21
-8.03371e-21
-8.00448e-21
-5.89489e-21
-1.94032e-21
-2.53993e-21
-4.20251e-21
-1.62859e-21
-7.77103e-21
-6.60534e-21
-4.9123e-21
-2.12273e-23
9.05078e-22
-1.35231e-21
-1.27829e-21
2.00812e-21
-6.0141e-22
-3.70071e-21
-2.06098e-21
-2.49226e-21
-3.43791e-22
-3.04945e-21
-8.62069e-22
-7.91845e-22
-1.06066e-21
-1.34144e-21
-2.77034e-21
-1.95773e-20
-1.82043e-20
-1.8432e-20
-2.00008e-20
-1.56972e-20
-1.44413e-20
-1.68613e-20
-1.45194e-20
-1.13682e-20
-1.38388e-20
-1.23932e-20
-9.08876e-21
-8.97718e-21
-1.0269e-20
-9.53654e-21
-7.66259e-21
-6.58952e-21
-3.17009e-21
1.02002e-21
1.0741e-22
-4.66798e-21
-8.68504e-21
-7.90098e-21
-6.18324e-21
-2.4097e-21
-6.04102e-22
2.53024e-22
-5.84639e-22
6.12266e-22
-1.90283e-21
-1.69732e-21
-2.53174e-21
-2.69182e-21
-2.54381e-22
-3.71444e-21
-9.35951e-22
-8.86148e-22
-9.5999e-22
1.42615e-21
-7.75316e-22
-1.78544e-20
-2.07175e-20
-2.12624e-20
-1.90991e-20
-1.61866e-20
-1.42507e-20
-1.57942e-20
-1.52093e-20
-1.27506e-20
-1.33733e-20
-1.21316e-20
-1.08929e-20
-6.89024e-21
-8.99135e-21
-1.13207e-20
-1.07775e-20
-3.42697e-21
-6.66431e-22
9.96777e-22
-1.33123e-21
-6.41331e-21
-7.12387e-21
-8.98495e-21
-1.11543e-20
-2.00476e-21
-3.93998e-22
9.55732e-22
-1.61184e-21
1.6548e-21
-1.3884e-21
-3.2347e-21
-1.90403e-21
-8.59776e-22
-1.99344e-21
-4.24012e-21
-2.1927e-21
-2.51826e-21
-2.12866e-21
-2.0665e-21
-1.87375e-21
-2.06407e-20
-2.20204e-20
-1.99652e-20
-1.78684e-20
-1.42219e-20
-1.59948e-20
-1.62315e-20
-1.51331e-20
-1.23875e-20
-1.36119e-20
-1.28798e-20
-1.08883e-20
-1.13895e-20
-6.94883e-21
-9.99459e-21
-8.22678e-21
-7.93424e-21
-3.78281e-22
2.41377e-21
-1.67289e-21
-4.76698e-21
-7.60699e-21
-7.87383e-21
-9.13953e-21
-1.05326e-21
-3.71438e-21
-1.18844e-21
-5.34687e-22
2.30752e-21
-2.55993e-21
-2.14991e-21
-1.42826e-21
-1.3066e-21
-2.29878e-21
-4.59273e-21
-2.36695e-21
-1.35846e-21
-2.2224e-21
-3.05728e-21
-7.00247e-22
-2.26338e-20
-2.1695e-20
-1.8312e-20
-1.90053e-20
-1.85589e-20
-1.60132e-20
-1.48861e-20
-1.46701e-20
-1.45311e-20
-1.41068e-20
-1.08188e-20
-1.07732e-20
-1.07999e-20
-7.46995e-21
-1.02161e-20
-6.19823e-21
-3.27886e-21
-2.39655e-21
-4.10182e-21
-2.77718e-21
-4.32738e-21
-4.59737e-21
-6.47011e-21
-9.41278e-21
-4.62367e-21
-1.58979e-21
-6.92978e-22
7.06642e-22
9.35811e-22
1.00785e-22
-2.58036e-21
-1.59715e-21
-4.94503e-22
-3.43246e-21
-8.49233e-21
-1.17541e-21
-7.79842e-23
-7.68401e-22
-1.41894e-21
1.07149e-21
-2.32918e-20
-2.25009e-20
-1.93255e-20
-1.90216e-20
-1.6069e-20
-1.64326e-20
-1.58097e-20
-1.43588e-20
-1.48187e-20
-1.45323e-20
-1.15134e-20
-7.88033e-21
-1.00658e-20
-1.09323e-20
-1.13785e-20
-7.59955e-21
-5.34596e-21
-2.20122e-21
-2.45942e-21
-5.33514e-22
-5.77561e-21
-6.98735e-21
-6.09576e-21
-8.48921e-21
-4.51143e-21
-1.02639e-21
-2.5002e-22
2.28561e-23
1.32727e-21
4.44124e-22
-2.30597e-21
-2.20643e-21
-1.44891e-21
-3.49116e-21
-4.61438e-21
-2.32715e-21
3.60766e-23
-2.99903e-22
-1.90013e-21
2.7061e-22
-2.57995e-20
-2.28777e-20
-1.90541e-20
-1.78366e-20
-1.65771e-20
-1.57349e-20
-1.77439e-20
-1.46524e-20
-1.37023e-20
-1.2689e-20
-1.05382e-20
-9.20678e-21
-1.27178e-20
-1.04377e-20
-8.24717e-21
-7.8894e-21
-1.72106e-21
-2.05627e-21
-5.99932e-21
-3.67417e-21
-6.30019e-21
-8.01143e-21
-8.92088e-21
-4.84333e-21
-1.83024e-21
-1.74965e-21
5.21896e-22
2.37624e-22
4.48429e-22
5.00043e-22
-4.0615e-21
-2.48695e-21
1.48801e-22
-1.7788e-21
-4.44268e-21
-2.069e-21
-2.06977e-21
-6.37151e-22
-1.97532e-22
1.34334e-21
-2.3545e-20
-2.22241e-20
-2.08864e-20
-1.83381e-20
-1.82032e-20
-1.7457e-20
-1.6858e-20
-1.71288e-20
-1.26956e-20
-1.06367e-20
-1.17132e-20
-1.26494e-20
-1.36093e-20
-9.41365e-21
-7.32837e-21
-4.33542e-21
-3.14829e-21
-4.1531e-21
-5.16262e-21
-5.00607e-21
-6.04352e-21
-8.74475e-21
-8.3028e-21
-3.55427e-21
-1.0601e-21
-2.23246e-21
-3.70865e-22
-1.81726e-22
-1.10167e-21
5.01052e-22
-1.01286e-21
-2.90528e-21
4.48139e-23
-9.3473e-22
-4.1666e-21
-4.87686e-22
-1.37308e-21
-3.19613e-21
-8.34643e-22
-7.6917e-23
-2.06247e-20
-2.07419e-20
-2.07917e-20
-1.72603e-20
-2.01217e-20
-1.89538e-20
-1.80121e-20
-1.70273e-20
-1.2949e-20
-1.12885e-20
-1.14746e-20
-1.31619e-20
-1.23543e-20
-9.75237e-21
-6.97449e-21
-3.39196e-21
-1.79369e-21
-4.40714e-21
-9.2386e-21
-7.52021e-21
-7.72782e-21
-5.66856e-21
-3.31279e-21
-2.82466e-21
7.13014e-22
-2.84325e-21
-1.21483e-21
-2.00012e-21
-2.0334e-21
-4.01754e-22
-1.65648e-21
-1.95157e-21
-2.47601e-22
-3.03328e-21
-3.34468e-21
-1.84283e-21
-1.03657e-22
-1.82146e-21
2.68386e-21
2.27702e-21
-2.03787e-20
-2.1291e-20