/*--------------------------------*- C++ -*----------------------------------*\
| =========                 |                                                 |
| \\      /  F ield         | OpenFOAM: The Open Source CFD Toolbox           |
|  \\    /   O peration     | Version:  v2012                                 |
|   \\  /    A nd           | Website:  www.openfoam.com                      |
|    \\/     M anipulation  |                                                 |
\*---------------------------------------------------------------------------*/
FoamFile
{
    version     2.0;
    format      ascii;
    class       surfaceScalarField;
    location    "20";
    object      phi;
}
// * * * * * * * * * * * * * * * * * * * * * * * * * * * * * * * * * * * * * //

dimensions      [0 3 -1 0 0 0 0];
oriented        oriented;


internalField   nonuniform List<scalar> 
187200
(
1.875e-06
2.07997e-22
2.28095e-22
1.875e-06
3.03774e-22
2.57194e-22
1.875e-06
3.65276e-22
4.15468e-22
1.875e-06
2.7335e-22
2.91846e-22
1.875e-06
2.70046e-22
1.65665e-22
1.875e-06
4.14539e-22
2.88205e-22
1.875e-06
2.93141e-22
1.92057e-22
1.875e-06
1.66651e-22
1.60381e-22
1.875e-06
1.84311e-22
3.16216e-22
1.875e-06
2.56119e-22
2.55275e-22
1.875e-06
2.1417e-22
1.42097e-22
1.875e-06
2.02882e-22
1.87004e-22
1.875e-06
1.21289e-22
1.67633e-22
1.875e-06
8.30589e-23
3.32478e-23
1.875e-06
1.4012e-22
1.23342e-22
1.875e-06
1.1001e-22
1.44586e-22
1.875e-06
1.48221e-22
1.68525e-22
1.875e-06
3.45408e-23
1.14855e-22
1.875e-06
7.76774e-23
-7.82353e-24
1.875e-06
1.09485e-22
-3.92805e-23
1.875e-06
6.91044e-24
1.54216e-23
1.875e-06
6.02737e-23
4.87034e-23
1.875e-06
1.84652e-22
4.35389e-23
1.875e-06
2.20507e-22
9.61036e-23
1.875e-06
1.5946e-22
1.09183e-24
1.875e-06
2.24581e-23
4.79228e-23
1.875e-06
6.04327e-24
7.93744e-23
1.875e-06
5.79313e-23
9.38168e-23
1.875e-06
5.18422e-23
1.47313e-22
1.875e-06
-9.82769e-25
1.58734e-22
1.875e-06
-9.16732e-23
2.03817e-22
1.875e-06
-6.05741e-23
3.75859e-23
1.875e-06
8.60716e-23
-8.07675e-23
1.875e-06
8.83671e-23
4.06632e-23
1.875e-06
9.93393e-24
6.02626e-23
1.875e-06
-1.34542e-22
-4.65183e-23
1.875e-06
-1.00516e-22
-9.7651e-23
1.875e-06
-1.16898e-22
1.80785e-23
1.875e-06
-7.01762e-24
2.79456e-23
4.38864e-24
3.92063e-23
1.875e-06
6.17182e-23
2.36939e-22
1.875e-06
2.47413e-23
3.61756e-22
1.875e-06
2.87137e-22
5.9442e-22
1.875e-06
2.77646e-22
6.53826e-22
1.875e-06
2.15284e-22
4.38924e-22
1.875e-06
2.52301e-22
4.80118e-22
1.875e-06
2.69334e-22
5.30708e-22
1.875e-06
3.18783e-22
5.38474e-22
1.875e-06
2.62213e-22
6.05126e-22
1.875e-06
2.00032e-22
6.06695e-22
1.875e-06
2.09121e-22
4.69619e-22
1.875e-06
1.7193e-22
3.71725e-22
1.875e-06
1.64846e-22
4.11897e-22
1.875e-06
9.39499e-23
3.22981e-22
1.875e-06
-7.81763e-24
2.52369e-22
1.875e-06
-4.2816e-24
1.89442e-22
1.875e-06
1.76161e-22
2.09348e-22
1.875e-06
1.72027e-22
3.14421e-22
1.875e-06
7.93717e-23
7.44356e-23
1.875e-06
9.75376e-23
9.04806e-24
1.875e-06
1.1531e-22
1.60269e-22
1.875e-06
6.18931e-23
9.82208e-23
1.875e-06
9.19e-23
-7.35264e-23
1.875e-06
1.03955e-22
1.11929e-22
1.875e-06
-4.5185e-23
-1.07161e-23
1.875e-06
1.10481e-22
1.1621e-22
1.875e-06
1.25105e-22
1.9053e-23
1.875e-06
2.67658e-23
-4.81982e-24
1.875e-06
-4.63691e-23
2.11819e-22
1.875e-06
2.68656e-23
1.72809e-22
1.875e-06
4.55653e-23
2.18774e-22
1.875e-06
5.64517e-23
8.04847e-23
1.875e-06
3.02542e-24
2.72407e-23
1.875e-06
-6.9511e-23
5.09778e-23
1.875e-06
-4.81866e-24
1.61827e-22
1.875e-06
-5.94143e-23
2.94419e-24
1.875e-06
-1.91136e-22
-1.71418e-22
1.875e-06
-6.0759e-23
-5.11939e-23
1.875e-06
3.03845e-23
5.79057e-23
6.91558e-23
5.26781e-23
1.875e-06
1.92498e-22
3.2993e-22
1.875e-06
2.17211e-22
5.46207e-22
1.875e-06
4.20735e-23
5.33575e-22
1.875e-06
2.28699e-22
6.95356e-22
1.875e-06
2.9459e-22
6.50672e-22
1.875e-06
2.67548e-22
5.46421e-22
1.875e-06
2.09477e-22
6.25412e-22
1.875e-06
1.72335e-22
6.97545e-22
1.875e-06
1.90111e-22
7.13012e-22
1.875e-06
2.11701e-22
6.73936e-22
1.875e-06
2.37006e-22
5.47876e-22
1.875e-06
1.49945e-22
5.29718e-22
1.875e-06
1.98846e-22
3.5486e-22
1.875e-06
1.33949e-22
3.74771e-22
1.875e-06
1.22193e-22
4.50112e-22
1.875e-06
1.11861e-22
3.67461e-22
1.875e-06
2.50742e-23
2.63127e-22
1.875e-06
6.75281e-23
2.8308e-22
1.875e-06
9.74004e-23
6.54374e-23
1.875e-06
2.15859e-23
2.7286e-23
1.875e-06
-2.31164e-23
2.07989e-22
1.875e-06
8.13269e-23
1.69377e-22
1.875e-06
2.09742e-22
-4.67629e-23
1.875e-06
1.36872e-22
3.42828e-23
1.875e-06
9.16313e-23
9.93996e-23
1.875e-06
8.72277e-23
8.26686e-23
1.875e-06
1.58457e-24
-1.42648e-23
1.875e-06
-8.40739e-23
6.44432e-23
1.875e-06
1.36754e-24
1.76186e-22
1.875e-06
4.98053e-23
2.45085e-22
1.875e-06
-3.56315e-24
2.91569e-22
1.875e-06
-2.22514e-23
1.8203e-22
1.875e-06
-3.7379e-23
8.60225e-25
1.875e-06
-1.37569e-23
4.30192e-23
1.875e-06
-3.85394e-23
1.7537e-22
1.875e-06
-7.1433e-23
7.00413e-23
1.875e-06
-3.92994e-23
-1.00049e-22
1.875e-06
9.22406e-23
-1.46762e-22
1.875e-06
9.44441e-23
-1.8165e-23
1.28275e-22
4.44558e-23
1.875e-06
2.24066e-22
3.60022e-22
1.875e-06
1.73809e-22
6.51844e-22
1.875e-06
1.36168e-22
6.46305e-22
1.875e-06
6.02259e-23
6.63362e-22
1.875e-06
1.54662e-22
7.16066e-22
1.875e-06
1.59236e-22
6.62317e-22
1.875e-06
1.86092e-22
6.96932e-22
1.875e-06
1.41431e-22
7.28871e-22
1.875e-06
1.67644e-22
7.40123e-22
1.875e-06
2.11209e-22
7.1063e-22
1.875e-06
1.83766e-22
6.534e-22
1.875e-06
1.56183e-22
6.26533e-22
1.875e-06
1.06573e-22
4.87634e-22
1.875e-06
1.68167e-23
3.78391e-22
1.875e-06
1.46324e-22
3.53577e-22
1.875e-06
2.69853e-22
3.76838e-22
1.875e-06
8.29794e-23
2.63265e-22
1.875e-06
-7.76669e-23
2.70655e-22
1.875e-06
-1.8198e-23
2.1395e-22
1.875e-06
5.07175e-23
1.0408e-22
1.875e-06
4.46245e-23
2.74998e-22
1.875e-06
1.06057e-22
1.82116e-22
1.875e-06
1.42945e-22
-9.03359e-24
1.875e-06
1.43074e-22
5.88639e-23
1.875e-06
5.62023e-23
8.61404e-23
1.875e-06
7.37303e-24
6.63078e-23
1.875e-06
-1.22819e-23
-5.72397e-24
1.875e-06
3.81249e-23
-1.57443e-24
1.875e-06
5.34365e-23
7.30221e-23
1.875e-06
-5.73721e-23
2.70824e-22
1.875e-06
3.66923e-23
3.61783e-22
1.875e-06
-1.76012e-23
2.18532e-22
1.875e-06
-1.23125e-22
3.35654e-23
1.875e-06
-1.07377e-22
1.27392e-22
1.875e-06
4.74183e-24
1.6343e-22
1.875e-06
7.9386e-23
5.9847e-23
1.875e-06
2.25629e-23
-2.98307e-23
1.875e-06
8.21215e-23
-7.47832e-23
1.875e-06
1.25887e-22
-6.77024e-23
1.07126e-22
2.17749e-23
1.875e-06
-1.17991e-23
2.36503e-22
1.875e-06
1.40615e-22
6.68364e-22
1.875e-06
1.01783e-22
7.46154e-22
1.875e-06
1.27772e-22
7.23954e-22
1.875e-06
9.56371e-23
7.91828e-22
1.875e-06
6.23467e-23
7.42031e-22
1.875e-06
9.91599e-23
7.73856e-22
1.875e-06
3.56028e-22
8.06309e-22
1.875e-06
2.73257e-22
7.93495e-22
1.875e-06
1.53457e-22
7.53357e-22
1.875e-06
1.21987e-22
7.13516e-22
1.875e-06
1.51258e-22
6.63281e-22
1.875e-06
1.6459e-22
5.70984e-22
1.875e-06
1.17148e-22
5.48519e-22
1.875e-06
1.20298e-22
2.98797e-22
1.875e-06
1.20773e-22
2.26033e-22
1.875e-06
2.16088e-23
3.29389e-22
1.875e-06
-4.86151e-23
3.5462e-22
1.875e-06
-7.96956e-23
2.88359e-22
1.875e-06
1.67987e-23
1.6135e-22
1.875e-06
3.02162e-23
2.52e-22
1.875e-06
5.73761e-23
1.34839e-22
1.875e-06
9.92574e-23
-9.19162e-25
1.875e-06
1.17516e-22
4.26473e-23
1.875e-06
1.04241e-22
1.77945e-22
1.875e-06
2.36282e-23
1.44941e-22
1.875e-06
6.7672e-23
7.51415e-23
1.875e-06
-9.29059e-24
6.44133e-23
1.875e-06
-7.52645e-23
5.35597e-24
1.875e-06
1.94863e-23
1.50755e-22
1.875e-06
9.82851e-23
2.45874e-22
1.875e-06
1.18217e-22
2.49509e-22
1.875e-06
-2.46507e-23
6.64405e-23
1.875e-06
-1.95794e-23
2.12549e-23
1.875e-06
-5.19069e-24
4.20633e-23
1.875e-06
-3.32236e-23
5.87152e-23
1.875e-06
1.78866e-22
3.95891e-23
1.875e-06
1.3769e-22
-1.81607e-23
1.875e-06
3.87545e-24
2.67113e-24
-4.68011e-23
-3.21902e-23
1.875e-06
4.49529e-23
3.13382e-22
1.875e-06
1.56796e-22
6.39461e-22
1.875e-06
4.85774e-23
7.09283e-22
1.875e-06
2.61324e-23
6.89136e-22
1.875e-06
8.98346e-23
7.81391e-22
1.875e-06
1.52847e-22
8.701e-22
1.875e-06
1.54129e-22
8.77687e-22
1.875e-06
2.23425e-22
8.3895e-22
1.875e-06
2.47859e-22
8.10178e-22
1.875e-06
1.45573e-22
7.94306e-22
1.875e-06
1.31135e-22
7.83359e-22
1.875e-06
1.54994e-22
7.63388e-22
1.875e-06
1.41629e-22
5.79859e-22
1.875e-06
2.24325e-22
4.90497e-22
1.875e-06
1.51176e-22
4.76427e-22
1.875e-06
5.4938e-23
2.66841e-22
1.875e-06
-3.1622e-24
3.18552e-22
1.875e-06
-1.82908e-23
3.74314e-22
1.875e-06
-2.08272e-24
2.7349e-22
1.875e-06
-7.5748e-23
1.82746e-22
1.875e-06
1.33949e-22
2.73333e-22
1.875e-06
9.67124e-23
1.66739e-22
1.875e-06
7.36319e-23
8.4347e-24
1.875e-06
7.21163e-23
8.30773e-23
1.875e-06
3.71559e-23
1.52998e-22
1.875e-06
6.88995e-23
1.60041e-22
1.875e-06
4.70375e-24
3.39044e-23
1.875e-06
-7.42893e-23
4.85237e-23
1.875e-06
-9.06538e-23
1.08971e-22
1.875e-06
-5.49383e-23
9.59233e-23
1.875e-06
7.16427e-23
2.15082e-22
1.875e-06
9.12711e-23
1.18225e-22
1.875e-06
-2.09854e-23
-4.35985e-23
1.875e-06
4.44945e-23
9.29334e-23
1.875e-06
9.27196e-23
7.0266e-23
1.875e-06
1.04799e-22
5.77559e-23
1.875e-06
6.9962e-23
-6.7207e-24
1.875e-06
-2.69103e-24
-5.31779e-23
1.875e-06
4.92387e-24
-1.17264e-23
3.51873e-23
5.33631e-23
1.875e-06
7.885e-23
3.58747e-22
1.875e-06
3.99954e-23
6.59463e-22
1.875e-06
1.22843e-22
8.42718e-22
1.875e-06
1.07809e-22
7.93556e-22
1.875e-06
1.40129e-22
7.89659e-22
1.875e-06
2.33194e-23
8.76322e-22
1.875e-06
1.10314e-22
9.67007e-22
1.875e-06
2.42523e-22
8.92226e-22
1.875e-06
2.19727e-22
8.8785e-22
1.875e-06
2.40141e-22
8.21017e-22
1.875e-06
2.0074e-22
8.05216e-22
1.875e-06
9.17907e-23
6.88733e-22
1.875e-06
1.37027e-22
6.27948e-22
1.875e-06
1.88155e-22
4.90066e-22
1.875e-06
1.08265e-22
5.83446e-22
1.875e-06
6.75345e-23
3.5937e-22
1.875e-06
2.57534e-23
2.51214e-22
1.875e-06
6.90749e-23
2.8659e-22
1.875e-06
-9.77992e-24
2.14431e-22
1.875e-06
1.00392e-22
2.33756e-22
1.875e-06
1.59525e-22
2.26343e-22
1.875e-06
1.36413e-22
1.91695e-22
1.875e-06
-3.25843e-23
-7.54665e-23
1.875e-06
-9.37241e-23
1.18208e-22
1.875e-06
-2.35691e-23
1.42526e-22
1.875e-06
6.22379e-23
1.26313e-22
1.875e-06
3.64955e-23
5.68816e-23
1.875e-06
-1.44606e-23
5.84722e-23
1.875e-06
-5.20324e-23
5.01678e-23
1.875e-06
-3.92403e-23
9.9036e-23
1.875e-06
-4.10277e-23
1.33154e-22
1.875e-06
-6.0198e-23
4.13881e-24
1.875e-06
5.01755e-23
9.31965e-23
1.875e-06
1.37825e-22
5.70247e-23
1.875e-06
1.27637e-22
9.94441e-23
1.875e-06
8.69586e-23
7.84896e-23
1.875e-06
6.7684e-23
-1.27269e-22
1.875e-06
6.37789e-24
-1.33407e-22
1.875e-06
-5.18831e-23
3.38966e-23
-2.91951e-23
9.50437e-23
1.875e-06
1.31767e-22
3.14948e-22
1.875e-06
9.77248e-23
6.31902e-22
1.875e-06
1.26682e-22
8.47067e-22
1.875e-06
1.70978e-22
9.35713e-22
1.875e-06
6.22905e-23
9.3222e-22
1.875e-06
1.48426e-22
1.00856e-21
1.875e-06
2.51049e-22
9.00018e-22
1.875e-06
9.7339e-23
8.91684e-22
1.875e-06
1.63228e-22
9.20564e-22
1.875e-06
2.46764e-22
8.55823e-22
1.875e-06
1.21698e-22
6.58976e-22
1.875e-06
8.20103e-23
6.90915e-22
1.875e-06
-2.53849e-23
4.56499e-22
1.875e-06
1.62767e-22
4.17072e-22
1.875e-06
1.62119e-22
5.85149e-22
1.875e-06
7.74577e-23
3.94067e-22
1.875e-06
8.17312e-23
3.65681e-22
1.875e-06
3.11232e-23
2.88071e-22
1.875e-06
2.22183e-22
2.19372e-22
1.875e-06
1.44556e-22
1.83952e-22
1.875e-06
1.28924e-22
1.63178e-22
1.875e-06
5.6522e-23
2.64815e-22
1.875e-06
-3.93902e-23
1.60457e-22
1.875e-06
5.76488e-23
1.25398e-22
1.875e-06
-5.78536e-23
1.57087e-22
1.875e-06
-6.56492e-23
2.78621e-23
1.875e-06
3.54178e-23
4.7445e-23
1.875e-06
3.47246e-23
6.57628e-23
1.875e-06
-1.75785e-23
3.06685e-23
1.875e-06
-3.86777e-23
7.85045e-23
1.875e-06
-1.03465e-22
1.58151e-22
1.875e-06
-7.94997e-23
4.06626e-23
1.875e-06
3.88243e-23
6.08547e-23
1.875e-06
2.98653e-23
1.42069e-22
1.875e-06
8.19303e-23
1.15316e-23
1.875e-06
7.28156e-23
-8.22791e-23
1.875e-06
-5.10237e-23
-2.58297e-22
1.875e-06
-1.23058e-22
-1.77881e-22
1.875e-06
-7.54274e-23
6.09308e-23
6.71447e-24
5.89419e-23
1.875e-06
-2.38236e-22
2.53833e-22
1.875e-06
-2.70702e-23
7.08446e-22
1.875e-06
1.27567e-22
9.13452e-22
1.875e-06
1.34467e-22
9.98243e-22
1.875e-06
1.29337e-22
9.42653e-22
1.875e-06
1.88632e-22
9.29882e-22
1.875e-06
1.73673e-22
1.00401e-21
1.875e-06
1.10071e-22
9.29457e-22
1.875e-06
7.03625e-23
8.5938e-22
1.875e-06
7.30446e-23
7.36321e-22
1.875e-06
1.3818e-22
7.91303e-22
1.875e-06
4.68145e-24
7.40082e-22
1.875e-06
5.45792e-23
5.679e-22
1.875e-06
6.4136e-23
3.33699e-22
1.875e-06
1.33804e-22
4.0561e-22
1.875e-06
4.85314e-23
3.61488e-22
1.875e-06
1.15776e-22
3.84542e-22
1.875e-06
1.6866e-22
3.8282e-22
1.875e-06
-2.58722e-23
2.61825e-22
1.875e-06
3.29074e-23
2.89856e-22
1.875e-06
3.19598e-23
1.4248e-22
1.875e-06
2.24637e-23
2.97737e-22
1.875e-06
1.02943e-22
2.01137e-22
1.875e-06
1.39266e-23
1.73758e-22
1.875e-06
1.07461e-22
1.83913e-22
1.875e-06
3.90195e-23
5.34486e-23
1.875e-06
-9.13998e-23
-9.8447e-24
1.875e-06
-7.21965e-23
5.11172e-23
1.875e-06
1.02091e-23
-4.68024e-23
1.875e-06
-5.37097e-24
4.52481e-23
1.875e-06
-2.68912e-23
1.49394e-22
1.875e-06
-5.26227e-23
1.38814e-22
1.875e-06
-9.15106e-24
1.11102e-22
1.875e-06
5.6073e-24
-1.89401e-24
1.875e-06
2.94592e-23
-1.55178e-22
1.875e-06
1.08181e-22
-2.1692e-22
1.875e-06
2.54886e-23
-2.22659e-22
1.875e-06
-6.49144e-25
-6.39278e-23
1.875e-06
-6.05815e-23
7.00903e-23
-5.64293e-23
7.0536e-23
1.875e-06
-3.83482e-23
5.71916e-22
1.875e-06
2.91789e-23
7.02544e-22
1.875e-06
1.30196e-22
8.7959e-22
1.875e-06
2.00742e-22
1.09377e-21
1.875e-06
1.16347e-22
1.02024e-21
1.875e-06
1.40227e-22
9.45633e-22
1.875e-06
2.36399e-22
1.0787e-21
1.875e-06
6.52199e-23
9.57835e-22
1.875e-06
8.70135e-23
7.72264e-22
1.875e-06
1.50464e-22
7.4152e-22
1.875e-06
1.33999e-22
7.66334e-22
1.875e-06
5.63929e-23
6.44601e-22
1.875e-06
4.29433e-23
6.23426e-22
1.875e-06
8.56673e-24
5.07667e-22
1.875e-06
6.02669e-23
4.67185e-22
1.875e-06
1.76452e-22
4.01901e-22
1.875e-06
1.12673e-22
3.37887e-22
1.875e-06
4.66517e-23
3.57636e-22
1.875e-06
-7.35541e-23
2.55882e-22
1.875e-06
-3.95048e-23
1.66834e-22
1.875e-06
9.68586e-23
2.25979e-22
1.875e-06
2.26107e-22
3.4953e-22
1.875e-06
5.67751e-23
2.00781e-22
1.875e-06
4.83262e-23
2.29279e-22
1.875e-06
5.52344e-23
1.63881e-22
1.875e-06
5.24924e-23
6.26154e-23
1.875e-06
-1.14642e-22
1.59637e-23
1.875e-06
-1.04253e-22
5.87532e-23
1.875e-06
1.8289e-24
-2.0294e-23
1.875e-06
1.01444e-23
6.69431e-23
1.875e-06
-4.05029e-23
7.24965e-23
1.875e-06
1.38068e-23
2.02605e-22
1.875e-06
2.84887e-23
1.26611e-22
1.875e-06
-6.44961e-23
-1.82868e-23
1.875e-06
-1.3098e-22
-1.34745e-22
1.875e-06
-1.67551e-23
-2.85844e-22
1.875e-06
8.70988e-23
-2.06894e-22
1.875e-06
1.13652e-22
-6.18638e-23
1.875e-06
1.77789e-22
-4.55858e-23
6.93467e-23
-4.14776e-23
1.875e-06
1.44509e-22
5.88614e-22
1.875e-06
1.66067e-22
8.40529e-22
1.875e-06
1.31421e-22
9.71828e-22
1.875e-06
-5.3126e-24
9.7952e-22
1.875e-06
1.35409e-22
1.05566e-21
1.875e-06
2.08079e-22
9.52338e-22
1.875e-06
1.86205e-23
9.16115e-22
1.875e-06
1.60403e-22
9.78246e-22
1.875e-06
4.12427e-23
8.05217e-22
1.875e-06
9.17307e-24
6.93528e-22
1.875e-06
2.07079e-22
6.99153e-22
1.875e-06
1.49232e-22
6.94742e-22
1.875e-06
9.66374e-23
5.94606e-22
1.875e-06
1.14226e-22
5.70991e-22
1.875e-06
9.80273e-23
5.59027e-22
1.875e-06
-3.52656e-23
4.48067e-22
1.875e-06
2.02817e-23
2.83988e-22
1.875e-06
6.18174e-24
3.13772e-22
1.875e-06
9.50152e-23
3.14794e-22
1.875e-06
7.47744e-23
2.95762e-22
1.875e-06
3.17503e-23
2.11635e-22
1.875e-06
1.7885e-23
1.44041e-22
1.875e-06
-9.26841e-24
2.64967e-22
1.875e-06
2.40021e-23
3.57215e-22
1.875e-06
5.36122e-23
1.13699e-22
1.875e-06
-1.44031e-22
-4.72701e-23
1.875e-06
-1.0993e-22
4.02297e-23
1.875e-06
5.33856e-23
1.63219e-22
1.875e-06
8.36988e-23
-3.82918e-23
1.875e-06
-5.71096e-23
1.80493e-23
1.875e-06
-7.00558e-23
1.55475e-22
1.875e-06
-3.57305e-23
1.58411e-22
1.875e-06
-6.56267e-23
4.05962e-23
1.875e-06
-1.37928e-23
6.78608e-23
1.875e-06
-4.0737e-23
2.82919e-23
1.875e-06
-1.09566e-22
-2.20229e-22
1.875e-06
-8.9638e-23
-1.82296e-22
1.875e-06
4.18773e-23
-3.77098e-23
1.875e-06
1.26852e-22
-7.28036e-23
1.30786e-22
-7.21783e-23
1.875e-06
2.28315e-22
5.79758e-22
1.875e-06
1.2286e-22
8.13994e-22
1.875e-06
9.43039e-23
9.28971e-22
1.875e-06
1.51084e-22
1.06731e-21
1.875e-06
1.27723e-22
9.85483e-22
1.875e-06
2.5869e-23
9.3015e-22
1.875e-06
1.49756e-22
9.88923e-22
1.875e-06
1.76395e-22
9.41045e-22
1.875e-06
2.0117e-22
8.62589e-22
1.875e-06
2.17375e-24
7.4091e-22
1.875e-06
-5.08287e-23
5.99592e-22
1.875e-06
8.75585e-23
6.80315e-22
1.875e-06
1.43614e-22
6.94211e-22
1.875e-06
1.16535e-22
4.78448e-22
1.875e-06
-3.00639e-23
4.88243e-22
1.875e-06
-3.38043e-23
4.65673e-22
1.875e-06
-3.66999e-23
4.29955e-22
1.875e-06
7.35427e-23
3.37339e-22
1.875e-06
2.18606e-22
2.45265e-22
1.875e-06
1.62995e-22
2.77377e-22
1.875e-06
3.20269e-23
2.33974e-22
1.875e-06
-6.29896e-23
2.0843e-22
1.875e-06
-2.7747e-23
2.12552e-22
1.875e-06
-1.81812e-23
2.55585e-22
1.875e-06
-1.15601e-22
1.6798e-23
1.875e-06
-3.35793e-23
9.36258e-23
1.875e-06
8.43813e-23
1.01623e-22
1.875e-06
-1.60249e-23
6.93721e-23
1.875e-06
-1.14806e-22
-1.50254e-22
1.875e-06
-1.26241e-22
6.34346e-23
1.875e-06
2.63612e-23
1.73552e-22
1.875e-06
-1.45353e-23
1.43425e-22
1.875e-06
-2.90808e-23
1.01386e-22
1.875e-06
-4.30727e-23
6.58101e-23
1.875e-06
-3.20751e-23
1.43373e-23
1.875e-06
-1.11594e-22
-1.34942e-22
1.875e-06
9.49355e-24
-6.51878e-23
1.875e-06
7.80598e-23
-3.19759e-23
1.875e-06
5.70219e-23
-1.88284e-22
5.42543e-24
-2.39511e-22
1.875e-06
6.13529e-23
4.59147e-22
1.875e-06
1.08596e-22
7.96887e-22
1.875e-06
3.6721e-23
8.54156e-22
1.875e-06
8.53534e-23
1.07038e-21
1.875e-06
1.37318e-23
1.05652e-21
1.875e-06
3.59956e-24
9.69068e-22
1.875e-06
8.96947e-23
9.18624e-22
1.875e-06
1.28485e-22
8.57034e-22
1.875e-06
2.12106e-24
7.69169e-22
1.875e-06
1.51156e-22
7.95903e-22
1.875e-06
9.69338e-24
6.36417e-22
1.875e-06
-4.40445e-24
6.36558e-22
1.875e-06
1.3828e-22
6.60893e-22
1.875e-06
2.04487e-22
5.01507e-22
1.875e-06
8.00526e-23
5.82182e-22
1.875e-06
-4.59725e-25
4.41579e-22
1.875e-06
-4.82495e-23
3.44629e-22
1.875e-06
-1.49034e-23
3.61248e-22
1.875e-06
7.34795e-23
3.3386e-22
1.875e-06
1.20873e-22
2.98464e-22
1.875e-06
1.42726e-22
2.15331e-22
1.875e-06
7.93187e-23
2.50945e-22
1.875e-06
1.00083e-23
1.97498e-22
1.875e-06
1.79043e-23
2.58715e-22
1.875e-06
-7.58844e-23
1.88605e-22
1.875e-06
-4.08604e-23
4.50047e-23
1.875e-06
2.70125e-23
-7.15545e-23
1.875e-06
9.26313e-23
-1.80586e-24
1.875e-06
-1.3403e-22
-4.27497e-23
1.875e-06
-1.88137e-22
3.50355e-23
1.875e-06
-1.52297e-22
1.03212e-22
1.875e-06
-2.1842e-24
9.3506e-23
1.875e-06
-6.30744e-24
6.93592e-23
1.875e-06
-6.59591e-24
1.17625e-22
1.875e-06
-5.37138e-23
1.33946e-22
1.875e-06
-2.92429e-23
-1.39128e-22
1.875e-06
5.34903e-23
-1.64917e-22
1.875e-06
6.62845e-23
-1.56141e-22
1.875e-06
1.59933e-23
-1.73337e-22
2.77559e-23
-2.85057e-22
1.875e-06
-1.54186e-22
4.46154e-22
1.875e-06
4.62555e-23
7.84883e-22
1.875e-06
1.32435e-22
9.16136e-22
1.875e-06
3.58791e-23
1.03457e-21
1.875e-06
-6.1072e-23
1.03084e-21
1.875e-06
-1.22398e-23
1.00216e-21
1.875e-06
1.26986e-22
9.07639e-22
1.875e-06
2.02598e-22
8.60816e-22
1.875e-06
1.13359e-22
8.64282e-22
1.875e-06
-9.86912e-23
7.66978e-22
1.875e-06
-4.21715e-23
6.8211e-22
1.875e-06
1.48956e-22
6.15739e-22
1.875e-06
1.06935e-22
5.83667e-22
1.875e-06
-1.13927e-23
5.14961e-22
1.875e-06
-8.18421e-23
6.21572e-22
1.875e-06
-2.81691e-23
5.23682e-22
1.875e-06
2.53935e-23
4.14829e-22
1.875e-06
1.729e-22
4.07314e-22
1.875e-06
1.42703e-22
3.12951e-22
1.875e-06
6.23411e-23
1.78225e-22
1.875e-06
1.67031e-22
2.25664e-22
1.875e-06
8.06585e-24
2.40744e-22
1.875e-06
-6.53975e-23
2.09151e-22
1.875e-06
-8.71297e-23
1.98058e-22
1.875e-06
-1.15404e-22
1.75175e-22
1.875e-06
-3.84833e-23
-3.20829e-23
1.875e-06
5.45659e-23
-2.09436e-22
1.875e-06
4.89125e-23
-1.36311e-22
1.875e-06
-5.88864e-23
-1.42027e-23
1.875e-06
-9.4701e-23
1.46575e-22
1.875e-06
-8.80324e-23
2.10743e-22
1.875e-06
-2.18112e-23
1.01449e-22
1.875e-06
-3.41339e-24
8.11985e-23
1.875e-06
-6.32207e-23
1.11423e-22
1.875e-06
-5.76617e-23
6.51712e-23
1.875e-06
-1.36684e-23
-2.13244e-22
1.875e-06
6.82082e-23
-2.49976e-22
1.875e-06
1.45838e-22
-1.87536e-22
1.875e-06
5.63338e-23
-1.566e-22
-6.88078e-23
-2.96043e-22
1.875e-06
-3.35401e-23
6.52987e-22
1.875e-06
-1.6825e-22
7.58225e-22
1.875e-06
-3.77946e-23
8.59936e-22
1.875e-06
-1.2717e-23
1.01283e-21
1.875e-06
8.55208e-23
1.08383e-21
1.875e-06
-1.24395e-24
9.49521e-22
1.875e-06
-8.73297e-24
8.7216e-22
1.875e-06
1.77634e-23
7.60602e-22
1.875e-06
-1.05726e-23
8.22477e-22
1.875e-06
-3.72521e-23
8.03139e-22
1.875e-06
1.41426e-22
7.55468e-22
1.875e-06
1.20479e-22
6.46183e-22
1.875e-06
6.36806e-24
7.04682e-22
1.875e-06
-8.2717e-23
5.57521e-22
1.875e-06
3.7833e-23
5.86557e-22
1.875e-06
1.48095e-24
5.05111e-22
1.875e-06
4.38296e-24
2.89334e-22
1.875e-06
6.0354e-23
2.53963e-22
1.875e-06
5.50374e-23
3.49524e-22
1.875e-06
1.56052e-22
2.97696e-22
1.875e-06
7.29048e-23
2.05498e-22
1.875e-06
5.22718e-23
3.50729e-22
1.875e-06
-8.58407e-23
3.54112e-22
1.875e-06
-2.23671e-22
9.88655e-23
1.875e-06
-1.2376e-22
1.10689e-22
1.875e-06
-1.09442e-23
-3.63075e-23
1.875e-06
9.04204e-23
-2.8663e-22
1.875e-06
3.55794e-23
-1.98501e-22
1.875e-06
-5.30844e-23
4.87621e-23
1.875e-06
1.55936e-23
1.1953e-22
1.875e-06
6.59228e-23
1.92059e-22
1.875e-06
8.55489e-23
1.24051e-22
1.875e-06
-1.42069e-22
4.8955e-23
1.875e-06
-9.47146e-23
8.00239e-23
1.875e-06
-5.55962e-23
1.27807e-22
1.875e-06
-6.00802e-23
-1.02143e-22
1.875e-06
2.64169e-23
-2.50801e-22
1.875e-06
2.89421e-23
-3.33473e-22
1.875e-06
1.8558e-23
-2.81654e-22
4.50901e-23
-3.219e-22
1.875e-06
-4.26691e-23
5.8952e-22
1.875e-06
-1.05018e-22
9.03265e-22
1.875e-06
-7.64997e-23
9.27274e-22
1.875e-06
-9.67619e-23
1.04443e-21
1.875e-06
-7.39161e-23
1.04464e-21
1.875e-06
2.40926e-23
1.03102e-21
1.875e-06
-1.2865e-23
9.11633e-22
1.875e-06
-3.80115e-23
8.36277e-22
1.875e-06
5.14588e-23
8.71618e-22
1.875e-06
9.12857e-23
8.09245e-22
1.875e-06
4.68836e-23
7.2819e-22
1.875e-06
1.22293e-22
7.22485e-22
1.875e-06
-2.91853e-23
7.92034e-22
1.875e-06
-2.92379e-23
6.36332e-22
1.875e-06
-6.50776e-23
4.97727e-22
1.875e-06
-1.56787e-23
3.41572e-22
1.875e-06
4.46677e-23
3.49935e-22
1.875e-06
-4.62708e-23
3.32092e-22
1.875e-06
5.40289e-23
3.58883e-22
1.875e-06
9.22676e-23
2.75682e-22
1.875e-06
7.75966e-23
2.06952e-22
1.875e-06
1.98326e-23
3.62416e-22
1.875e-06
-5.51839e-23
3.62261e-22
1.875e-06
-1.64687e-22
1.82364e-22
1.875e-06
-8.84442e-23
7.87977e-23
1.875e-06
-7.45113e-23
-1.43088e-25
1.875e-06
-7.92321e-23
-2.3118e-22
1.875e-06
-1.10127e-22
-2.63046e-22
1.875e-06
3.15727e-23
8.31729e-23
1.875e-06
1.26035e-22
9.90867e-23
1.875e-06
1.21561e-22
3.76776e-23
1.875e-06
-9.4743e-23
-2.82924e-23
1.875e-06
-5.21204e-23
1.01585e-22
1.875e-06
-2.37053e-23
1.27185e-22
1.875e-06
-3.45714e-23
1.60501e-22
1.875e-06
-1.22556e-23
-1.0352e-22
1.875e-06
-5.72774e-23
-2.60233e-22
1.875e-06
-2.94959e-23
-2.34278e-22
1.875e-06
-7.61193e-23
-2.2931e-22
6.42651e-23
-2.66783e-22
1.875e-06
-1.30397e-22
4.87715e-22
1.875e-06
-5.4396e-23
8.74508e-22
1.875e-06
4.0912e-23
9.81718e-22
1.875e-06
-2.63706e-23
1.09975e-21
1.875e-06
-9.59023e-23
1.2031e-21
1.875e-06
-3.24083e-23
1.06991e-21
1.875e-06
-2.99949e-23
9.89405e-22
1.875e-06
-6.13648e-23
9.1847e-22
1.875e-06
1.62961e-23
8.63085e-22
1.875e-06
5.84651e-23
7.60784e-22
1.875e-06
4.89814e-23
7.32061e-22
1.875e-06
2.38367e-23
6.98258e-22
1.875e-06
1.02585e-22
8.4765e-22
1.875e-06
1.03436e-23
7.12508e-22
1.875e-06
-9.33153e-23
5.399e-22
1.875e-06
8.60332e-23
3.12537e-22
1.875e-06
1.06765e-22
2.42656e-22
1.875e-06
-4.67697e-23
3.8584e-22
1.875e-06
-3.54073e-23
4.44692e-22
1.875e-06
1.41538e-22
3.52228e-22
1.875e-06
5.49634e-23
2.96482e-22
1.875e-06
5.57998e-23
2.92181e-22
1.875e-06
-9.53368e-23
1.84983e-22
1.875e-06
-9.59966e-23
1.60221e-22
1.875e-06
-1.4092e-22
6.29876e-23
1.875e-06
-1.62503e-23
1.05648e-22
1.875e-06
-7.53995e-23
-6.54878e-23
1.875e-06
-7.7224e-23
-6.60398e-23
1.875e-06
-1.31323e-24
8.14192e-23
1.875e-06
-1.78404e-23
1.32263e-23
1.875e-06
-1.05519e-22
-1.2065e-22
1.875e-06
-1.43856e-22
-1.91138e-23
1.875e-06
-2.13573e-23
1.19475e-22
1.875e-06
1.9358e-23
1.30402e-22
1.875e-06
-2.46905e-23
9.69723e-23
1.875e-06
3.04418e-23
-5.2995e-23
1.875e-06
-1.00275e-22
-2.37311e-22
1.875e-06
-1.11557e-22
-2.55888e-22
1.875e-06
5.61904e-23
-3.13931e-22
-1.71012e-23
-4.00844e-22
1.875e-06
-8.26733e-23
5.70704e-22
1.875e-06
-1.3836e-22
9.04299e-22
1.875e-06
-1.57879e-22
9.69175e-22
1.875e-06
3.84705e-23
1.14779e-21
1.875e-06
1.09767e-22
1.1669e-21
1.875e-06
-4.51582e-23
1.09454e-21
1.875e-06
-1.42664e-22
9.95835e-22
1.875e-06
-1.10042e-22
9.20083e-22
1.875e-06
6.13941e-24
9.33411e-22
1.875e-06
4.62177e-23
8.95944e-22
1.875e-06
5.9755e-23
7.66716e-22
1.875e-06
9.47503e-24
6.7853e-22
1.875e-06
-2.01239e-23
7.51694e-22
1.875e-06
-7.54144e-25
7.74416e-22
1.875e-06
7.70098e-23
6.2053e-22
1.875e-06
3.69889e-24
3.93456e-22
1.875e-06
9.55213e-23
3.37816e-22
1.875e-06
2.39151e-22
3.98219e-22
1.875e-06
2.39516e-22
3.62634e-22
1.875e-06
-4.24674e-23
2.75763e-22
1.875e-06
-1.40311e-22
2.98563e-22
1.875e-06
-1.66353e-22
2.94504e-22
1.875e-06
-1.12568e-23
2.36976e-22
1.875e-06
-4.17784e-23
1.8839e-22
1.875e-06
-2.72094e-24
2.03407e-22
1.875e-06
-1.09302e-22
7.43595e-23
1.875e-06
-1.03224e-22
2.31024e-23
1.875e-06
-9.921e-23
-1.64948e-23
1.875e-06
-1.42791e-22
3.59436e-23
1.875e-06
-9.86851e-24
-2.77226e-24
1.875e-06
6.61238e-23
-9.7577e-23
1.875e-06
6.67629e-23
-2.95537e-23
1.875e-06
-3.69476e-23
3.57487e-23
1.875e-06
-2.72835e-23
4.32755e-23
1.875e-06
1.85526e-23
9.39231e-23
1.875e-06
-1.36644e-22
-4.80927e-23
1.875e-06
-1.12208e-22
-1.54671e-22
1.875e-06
-1.52977e-22
-3.808e-22
1.875e-06
-4.38075e-23
-3.20056e-22
8.32917e-23
-2.77372e-22
1.875e-06
-4.48758e-23
6.16223e-22
1.875e-06
-9.12889e-23
9.79956e-22
1.875e-06
-3.35065e-23
1.05863e-21
1.875e-06
3.63773e-24
1.12553e-21
1.875e-06
9.66513e-24
1.12034e-21
1.875e-06
-9.05299e-23
1.06645e-21
1.875e-06
-1.77195e-22
1.0179e-21
1.875e-06
-3.59867e-23
1.03173e-21
1.875e-06
3.90607e-25
1.00209e-21
1.875e-06
8.95633e-23
9.12851e-22
1.875e-06
-1.71813e-23
7.71908e-22
1.875e-06
4.34579e-23
7.40812e-22
1.875e-06
-1.42086e-23
7.93813e-22
1.875e-06
1.34341e-24
7.5914e-22
1.875e-06
1.37988e-22
6.63361e-22
1.875e-06
4.3422e-23
5.09561e-22
1.875e-06
-1.13924e-22
3.82452e-22
1.875e-06
-4.81807e-23
2.17733e-22
1.875e-06
5.79041e-23
1.60008e-22
1.875e-06
-2.91623e-25
2.02145e-22
1.875e-06
1.02973e-25
3.12669e-22
1.875e-06
1.62586e-23
4.41073e-22
1.875e-06
-2.77833e-24
3.2449e-22
1.875e-06
-2.68087e-23
1.48459e-22
1.875e-06
-8.30339e-24
1.8759e-22
1.875e-06
-8.08764e-23
1.8044e-22
1.875e-06
7.7801e-23
-1.19966e-23
1.875e-06
3.63558e-23
7.34815e-23
1.875e-06
-2.52196e-23
-2.16131e-23
1.875e-06
-1.80552e-23
-5.18443e-23
1.875e-06
1.58095e-23
-5.24908e-23
1.875e-06
-6.91281e-23
-1.56808e-22
1.875e-06
2.02166e-23
5.43588e-26
1.875e-06
-2.13749e-24
8.5605e-23
1.875e-06
-3.40095e-23
-7.68606e-24
1.875e-06
-3.42565e-23
3.11814e-23
1.875e-06
-6.33597e-24
-8.7045e-23
1.875e-06
-5.24704e-23
-1.77073e-22
1.875e-06
-5.16929e-23
-2.87615e-22
-9.62641e-23
-3.46147e-22
1.875e-06
1.325e-22
7.42571e-22
1.875e-06
1.46606e-22
1.0553e-21
1.875e-06
-4.04376e-23
1.04783e-21
1.875e-06
-1.31619e-22
1.02315e-21
1.875e-06
-2.90125e-23
1.09582e-21
1.875e-06
-9.38048e-24
1.10673e-21
1.875e-06
-1.15466e-22
1.07485e-21
1.875e-06
-2.34258e-22
9.45387e-22
1.875e-06
-8.44972e-23
9.4522e-22
1.875e-06
3.25e-23
1.01424e-21
1.875e-06
-1.83506e-22
8.24271e-22
1.875e-06
3.7319e-22
7.79974e-22
1.875e-06
8.56723e-23
7.99732e-22
1.875e-06
2.00121e-23
8.38439e-22
1.875e-06
1.51282e-23
7.74365e-22
1.875e-06
-4.8733e-23
5.15935e-22
1.875e-06
-2.9718e-23
2.92634e-22
1.875e-06
-9.75233e-23
1.64436e-22
1.875e-06
-1.50996e-22
2.14444e-22
1.875e-06
-3.98554e-23
2.42136e-22
1.875e-06
-8.82063e-24
2.56395e-22
1.875e-06
-2.39312e-23
3.41277e-22
1.875e-06
-7.93436e-23
4.49007e-22
1.875e-06
7.14533e-23
1.97235e-22
1.875e-06
1.5225e-22
1.92811e-22
1.875e-06
5.31733e-23
1.51223e-22
1.875e-06
-3.88416e-23
-2.84659e-23
1.875e-06
8.72259e-23
-3.26039e-23
1.875e-06
-1.03501e-22
2.6083e-23
1.875e-06
1.16839e-22
-8.6494e-23
1.875e-06
-6.7809e-23
-3.68994e-23
1.875e-06
-6.7208e-23
-5.32232e-23
1.875e-06
8.72363e-23
-5.31313e-23
1.875e-06
-9.00713e-23
-5.79201e-23
1.875e-06
3.41444e-23
5.34858e-23
1.875e-06
3.37411e-23
5.59582e-23
1.875e-06
-3.63432e-23
-6.38041e-23
1.875e-06
4.41034e-23
-2.15353e-22
1.875e-06
-1.34962e-22
-3.79264e-22
-8.03104e-23
-2.69795e-22
1.875e-06
2.55416e-22
6.2035e-22
1.875e-06
1.52621e-22
9.11036e-22
1.875e-06
-1.63107e-23
9.71354e-22
1.875e-06
-1.87533e-23
1.07224e-21
1.875e-06
-5.6783e-23
1.13488e-21
1.875e-06
-4.87681e-24
1.03933e-21
1.875e-06
6.00297e-23
1.13541e-21
1.875e-06
-1.19248e-22
1.06682e-21
1.875e-06
-1.70884e-22
9.1515e-22
1.875e-06
1.06272e-23
1.02445e-21
1.875e-06
6.90227e-23
8.56776e-22
1.875e-06
-7.85535e-23
8.50259e-22
1.875e-06
1.2494e-24
8.56494e-22
1.875e-06
1.34482e-22
8.09896e-22
1.875e-06
-2.30019e-24
6.74381e-22
1.875e-06
-2.72937e-23
4.72545e-22
1.875e-06
-1.66882e-22
2.7591e-22
1.875e-06
-1.22882e-22
2.13856e-22
1.875e-06
-1.39496e-22
2.87672e-22
1.875e-06
-9.70137e-23
2.33973e-22
1.875e-06
-5.04652e-23
3.06275e-22
1.875e-06
-1.53422e-22
2.78834e-22
1.875e-06
4.10993e-23
4.258e-22
1.875e-06
9.69387e-23
3.30483e-22
1.875e-06
3.60542e-23
1.42469e-22
1.875e-06
1.12063e-22
1.54819e-22
1.875e-06
8.87117e-23
-1.65858e-24
1.875e-06
8.62906e-23
-1.20182e-22
1.875e-06
5.25355e-23
-3.58767e-23
1.875e-06
-4.24576e-24
-1.35596e-22
1.875e-06
1.04961e-23
-2.88718e-23
1.875e-06
3.60604e-23
-1.44395e-24
1.875e-06
-1.19071e-23
-6.04614e-23
1.875e-06
-3.83984e-23
1.91138e-23
1.875e-06
-1.90694e-23
2.29474e-23
1.875e-06
1.68521e-22
3.26902e-24
1.875e-06
4.14065e-23
-3.28172e-23
1.875e-06
-8.45416e-23
-8.94081e-23
1.875e-06
-8.73526e-23
-3.04791e-22
-2.13572e-22
-2.62486e-22
1.875e-06
-4.96602e-24
5.29165e-22
1.875e-06
1.0864e-22
8.99916e-22
1.875e-06
1.80495e-23
9.48351e-22
1.875e-06
-5.29097e-25
1.06104e-21
1.875e-06
-2.05978e-23
9.97509e-22
1.875e-06
6.43269e-23
1.10485e-21
1.875e-06
2.25033e-23
1.12343e-21
1.875e-06
2.66287e-23
1.0869e-21
1.875e-06
3.45484e-23
9.85843e-22
1.875e-06
-1.11991e-22
1.07198e-21
1.875e-06
-1.19412e-22
9.1269e-22
1.875e-06
-9.57637e-24
9.06675e-22
1.875e-06
-5.74884e-23
7.99066e-22
1.875e-06
-1.9489e-22
6.65625e-22