/*--------------------------------*- C++ -*----------------------------------*\
| =========                 |                                                 |
| \\      /  F ield         | OpenFOAM: The Open Source CFD Toolbox           |
|  \\    /   O peration     | Version:  v2012                                 |
|   \\  /    A nd           | Website:  www.openfoam.com                      |
|    \\/     M anipulation  |                                                 |
\*---------------------------------------------------------------------------*/
FoamFile
{
    version     2.0;
    format      ascii;
    class       volVectorField;
    location    "20";
    object      U;
}
// * * * * * * * * * * * * * * * * * * * * * * * * * * * * * * * * * * * * * //

dimensions      [0 1 -1 0 0 0 0];


internalField   nonuniform List<vector> 
64000
(
(0.003 2.24525e-19 2.29171e-19)
(0.003 3.83322e-19 3.5378e-19)
(0.003 4.00515e-19 4.24908e-19)
(0.003 3.81839e-19 4.57194e-19)
(0.003 4.60515e-19 4.12001e-19)
(0.003 4.57377e-19 3.3184e-19)
(0.003 3.67408e-19 2.71583e-19)
(0.003 2.07659e-19 2.3878e-19)
(0.003 2.74487e-19 3.68521e-19)
(0.003 3.46946e-19 2.92895e-19)
(0.003 2.71643e-19 1.90576e-19)
(0.003 3.05427e-19 3.41312e-19)
(0.003 2.78672e-19 2.88162e-19)
(0.003 2.9107e-19 2.12424e-19)
(0.003 2.37427e-19 2.61577e-19)
(0.003 2.16149e-19 2.67604e-19)
(0.003 1.59721e-19 1.99373e-19)
(0.003 2.61814e-20 1.51835e-19)
(0.003 -8.60118e-21 1.52135e-20)
(0.003 8.03023e-20 -7.39752e-20)
(0.003 6.21219e-23 -3.3653e-20)
(0.003 1.1882e-19 6.70617e-20)
(0.003 2.47691e-19 1.08235e-19)
(0.003 2.6534e-19 8.49645e-20)
(0.003 3.21056e-19 1.3642e-19)
(0.003 1.35942e-19 1.07217e-19)
(0.003 2.81891e-20 1.16246e-19)
(0.003 9.04233e-20 1.30956e-19)
(0.003 1.38152e-19 1.68004e-19)
(0.003 1.38665e-20 2.24383e-19)
(0.003 -7.37448e-20 2.46623e-19)
(0.003 -9.28286e-21 9.91876e-20)
(0.003 9.98365e-20 1.65318e-20)
(0.003 7.30514e-20 4.612e-20)
(0.003 4.82043e-20 7.81229e-20)
(0.003 2.00452e-20 -1.49309e-20)
(0.003 -1.84147e-19 -1.93673e-19)
(0.003 -2.18137e-19 -2.52437e-20)
(0.003 -6.44523e-20 1.26173e-19)
(0.003 -6.31838e-20 6.17317e-20)
(0.003 2.31609e-19 3.38261e-19)
(0.003 3.09751e-19 6.88073e-19)
(0.003 5.51363e-19 8.79316e-19)
(0.003 4.88307e-19 8.74291e-19)
(0.003 4.04831e-19 7.84754e-19)
(0.003 5.59627e-19 8.28018e-19)
(0.003 4.88417e-19 7.25158e-19)
(0.003 4.3413e-19 5.68625e-19)
(0.003 3.89868e-19 6.72642e-19)
(0.003 3.464e-19 7.8566e-19)
(0.003 3.53581e-19 6.72506e-19)
(0.003 3.20561e-19 6.44947e-19)
(0.003 2.33294e-19 5.62997e-19)
(0.003 1.68526e-19 4.98056e-19)
(0.003 1.07114e-19 4.74646e-19)
(0.003 9.55384e-20 3.78146e-19)
(0.003 2.8679e-19 3.31847e-19)
(0.003 2.4927e-19 2.4884e-19)
(0.003 2.20091e-19 4.93907e-20)
(0.003 2.09893e-19 -5.37216e-20)
(0.003 8.35527e-20 3.1364e-20)
(0.003 2.02107e-20 2.02573e-19)
(0.003 2.09371e-19 2.4125e-19)
(0.003 2.687e-19 3.11206e-19)
(0.003 8.78663e-20 2.81329e-19)
(0.003 8.92516e-20 1.39024e-19)
(0.003 1.34208e-19 4.15006e-20)
(0.003 9.01497e-20 9.3738e-20)
(0.003 -4.38845e-21 2.31677e-19)
(0.003 7.28145e-22 1.97411e-19)
(0.003 -8.4249e-20 1.31624e-19)
(0.003 -1.17378e-21 1.03813e-19)
(0.003 1.24862e-19 2.04707e-19)
(0.003 4.28701e-20 1.63529e-19)
(0.003 -2.60977e-20 1.7855e-19)
(0.003 -1.60943e-19 2.46471e-20)
(0.003 -2.30258e-19 -2.54666e-19)
(0.003 -1.19613e-19 -1.38333e-19)
(0.003 2.06611e-20 4.22021e-20)
(0.003 3.06172e-20 -4.81132e-20)
(0.003 1.59051e-19 4.29287e-19)
(0.003 1.90206e-19 7.39375e-19)
(0.003 2.80191e-19 9.90856e-19)
(0.003 4.01588e-19 1.04733e-18)
(0.003 4.05383e-19 9.32523e-19)
(0.003 4.157e-19 8.89752e-19)
(0.003 3.76314e-19 8.8571e-19)
(0.003 3.83504e-19 8.71485e-19)
(0.003 3.93819e-19 9.56165e-19)
(0.003 3.83819e-19 8.96073e-19)
(0.003 3.41694e-19 7.46732e-19)
(0.003 2.61278e-19 7.20536e-19)
(0.003 2.9277e-19 5.74066e-19)
(0.003 1.51515e-19 5.23664e-19)
(0.003 1.05023e-19 5.11816e-19)
(0.003 1.03063e-19 4.46433e-19)
(0.003 1.41498e-19 4.56958e-19)
(0.003 2.04501e-19 3.04859e-19)
(0.003 2.05416e-19 3.31317e-20)
(0.003 1.58117e-19 1.38854e-20)
(0.003 4.87227e-20 1.6675e-19)
(0.003 3.93641e-20 2.7885e-19)
(0.003 2.16772e-19 2.7974e-19)
(0.003 1.99633e-19 2.75137e-19)
(0.003 4.56128e-20 2.33912e-19)
(0.003 1.31899e-19 1.79961e-19)
(0.003 1.11432e-19 1.16555e-19)
(0.003 -4.99329e-20 1.37608e-19)
(0.003 -3.54432e-20 1.91963e-19)
(0.003 7.50979e-20 2.74036e-19)
(0.003 4.2108e-20 2.39764e-19)
(0.003 4.98505e-20 2.08009e-19)
(0.003 -2.79373e-21 1.84223e-19)
(0.003 -7.6245e-20 1.07268e-19)
(0.003 -8.55599e-20 2.41331e-19)
(0.003 -1.41653e-19 9.32256e-20)
(0.003 -1.48172e-19 -2.20935e-19)
(0.003 8.84049e-21 -2.19248e-19)
(0.003 1.12058e-19 -4.78814e-20)
(0.003 1.94428e-19 -7.05988e-20)
(0.003 3.44159e-19 5.44013e-19)
(0.003 3.09669e-19 8.94766e-19)
(0.003 1.65528e-19 1.0141e-18)
(0.003 2.4444e-19 1.08946e-18)
(0.003 3.67604e-19 1.0994e-18)
(0.003 3.44335e-19 1.11748e-18)
(0.003 3.06075e-19 1.00823e-18)
(0.003 2.3911e-19 8.82666e-19)
(0.003 2.34485e-19 9.43215e-19)
(0.003 3.31194e-19 9.62522e-19)
(0.003 3.53754e-19 9.05483e-19)
(0.003 2.85619e-19 8.84946e-19)
(0.003 2.43552e-19 7.54093e-19)
(0.003 1.27079e-19 5.53124e-19)
(0.003 2.60463e-19 5.0687e-19)
(0.003 3.26414e-19 4.68104e-19)
(0.003 1.06749e-19 4.17825e-19)
(0.003 -2.58935e-20 3.75153e-19)
(0.003 1.03335e-20 1.82066e-19)
(0.003 6.70469e-20 3.14724e-20)
(0.003 1.45505e-20 1.6123e-19)
(0.003 1.49034e-19 2.88876e-19)
(0.003 2.70955e-19 3.79606e-19)
(0.003 1.82923e-19 3.58502e-19)
(0.003 1.29635e-19 2.49981e-19)
(0.003 6.96424e-20 1.67906e-19)
(0.003 -1.63354e-20 4.90121e-20)
(0.003 -4.3012e-20 -1.53487e-21)
(0.003 4.38322e-20 1.80631e-19)
(0.003 2.70643e-20 4.05405e-19)
(0.003 1.14883e-20 2.5414e-19)
(0.003 -4.89226e-20 1.47779e-19)
(0.003 -1.01745e-19 1.94849e-19)
(0.003 -1.17956e-19 1.65909e-19)
(0.003 -6.19325e-20 2.25401e-19)
(0.003 -3.57552e-20 1.31513e-19)
(0.003 2.64294e-20 -4.47664e-20)
(0.003 1.9666e-19 -8.2696e-20)
(0.003 2.21394e-19 -4.80485e-20)
(0.003 1.95127e-19 2.52729e-20)
(0.003 1.30679e-19 6.0178e-19)
(0.003 2.10785e-19 1.02511e-18)
(0.003 1.54445e-19 1.12559e-18)
(0.003 1.38268e-19 1.11187e-18)
(0.003 1.84492e-19 1.22033e-18)
(0.003 1.51908e-19 1.18601e-18)
(0.003 1.97554e-19 1.08447e-18)
(0.003 3.41921e-19 8.82946e-19)
(0.003 3.49484e-19 9.11352e-19)
(0.003 3.09462e-19 1.08228e-18)
(0.003 2.65864e-19 1.03189e-18)
(0.003 2.50807e-19 9.06438e-19)
(0.003 2.21738e-19 7.83882e-19)
(0.003 1.43639e-19 6.47021e-19)
(0.003 1.97896e-19 5.94379e-19)
(0.003 3.27842e-19 5.98892e-19)
(0.003 1.07854e-19 4.7914e-19)
(0.003 -1.53611e-19 2.87403e-19)
(0.003 -1.23702e-19 2.21082e-19)
(0.003 4.20979e-20 1.41351e-19)
(0.003 9.43711e-20 1.37218e-19)
(0.003 1.38395e-19 3.36615e-19)
(0.003 2.02276e-19 4.71013e-19)
(0.003 1.72043e-19 3.60033e-19)
(0.003 9.24109e-20 2.73054e-19)
(0.003 2.05812e-20 2.05256e-19)
(0.003 1.86959e-20 8.78698e-20)
(0.003 2.87822e-20 1.15128e-19)
(0.003 2.5502e-20 1.8553e-19)
(0.003 -1.69981e-20 1.78537e-19)
(0.003 1.27719e-19 1.80266e-19)
(0.003 1.14816e-19 1.84131e-19)
(0.003 -1.16056e-19 6.93006e-20)
(0.003 -1.34695e-19 2.53627e-20)
(0.003 -2.48777e-20 1.4474e-19)
(0.003 1.43589e-20 1.36763e-19)
(0.003 1.65421e-19 4.35992e-20)
(0.003 1.88708e-19 3.78049e-20)
(0.003 8.41013e-20 9.47542e-20)
(0.003 3.99253e-20 9.53916e-20)
(0.003 1.35857e-20 6.56283e-19)
(0.003 1.93819e-19 1.02065e-18)
(0.003 1.11195e-19 1.10053e-18)
(0.003 1.08232e-19 1.15526e-18)
(0.003 1.23901e-19 1.20575e-18)
(0.003 1.52496e-19 1.16149e-18)
(0.003 1.96128e-19 1.0752e-18)
(0.003 4.60443e-19 1.08783e-18)
(0.003 4.24371e-19 1.10745e-18)
(0.003 2.48838e-19 1.07067e-18)
(0.003 1.95898e-19 9.79568e-19)
(0.003 2.35608e-19 1.02881e-18)
(0.003 2.48736e-19 9.37059e-19)
(0.003 2.5224e-19 6.1682e-19)
(0.003 1.74027e-19 6.30058e-19)
(0.003 7.77813e-20 7.06319e-19)
(0.003 -2.19327e-20 4.84324e-19)
(0.003 -4.62573e-20 2.60897e-19)
(0.003 -1.28262e-19 1.73879e-19)
(0.003 -8.59288e-20 1.72422e-19)
(0.003 1.56959e-19 1.90323e-19)
(0.003 1.91622e-19 3.40728e-19)
(0.003 1.46631e-19 4.65908e-19)
(0.003 1.78955e-19 3.51341e-19)
(0.003 1.50139e-19 2.32961e-19)
(0.003 9.81679e-20 2.20817e-19)
(0.003 7.47692e-20 1.71201e-19)
(0.003 -6.48792e-20 9.16704e-20)
(0.003 -1.59819e-19 1.81234e-19)
(0.003 -4.60418e-20 2.57585e-19)
(0.003 1.55882e-19 2.96183e-19)
(0.003 1.43079e-19 1.52479e-19)
(0.003 -1.76733e-21 -4.70422e-20)
(0.003 5.58271e-20 5.79413e-20)
(0.003 6.97181e-20 1.12318e-19)
(0.003 1.07191e-19 4.58498e-20)
(0.003 1.56373e-19 1.19097e-19)
(0.003 8.71847e-20 8.05257e-20)
(0.003 4.08184e-20 2.8466e-20)
(0.003 3.4587e-20 5.76211e-20)
(0.003 1.01835e-19 7.9225e-19)
(0.003 1.97349e-19 1.16967e-18)
(0.003 1.74058e-19 1.15909e-18)
(0.003 1.01102e-19 1.15939e-18)
(0.003 1.68651e-19 1.24537e-18)
(0.003 1.33646e-19 1.25125e-18)
(0.003 2.25545e-19 1.1579e-18)
(0.003 4.17529e-19 1.14695e-18)
(0.003 4.0919e-19 1.18444e-18)
(0.003 2.96714e-19 1.11151e-18)
(0.003 2.39899e-19 1.05171e-18)
(0.003 2.22017e-19 9.84772e-19)
(0.003 2.19034e-19 8.46647e-19)
(0.003 3.26805e-19 7.40367e-19)
(0.003 2.20121e-19 7.33978e-19)
(0.003 1.01493e-19 6.66486e-19)
(0.003 1.77734e-20 4.32838e-19)
(0.003 1.58131e-20 2.59543e-19)
(0.003 2.82623e-21 1.35122e-19)
(0.003 -1.22741e-20 1.20481e-19)
(0.003 2.41544e-19 2.35716e-19)
(0.003 2.63649e-19 3.2601e-19)
(0.003 5.27666e-20 4.10512e-19)
(0.003 -3.94147e-22 4.82058e-19)
(0.003 1.55242e-20 3.17116e-19)
(0.003 8.42963e-20 2.04471e-19)
(0.003 3.51906e-20 1.69892e-19)
(0.003 -7.05101e-20 8.31648e-20)
(0.003 -1.26166e-19 9.46933e-20)
(0.003 -7.86254e-20 1.57691e-19)
(0.003 5.68139e-20 2.30832e-19)
(0.003 2.84286e-20 1.12465e-19)
(0.003 8.94413e-21 5.6674e-21)
(0.003 1.6253e-19 9.58016e-20)
(0.003 1.95558e-19 1.25767e-19)
(0.003 1.77132e-19 1.29584e-19)
(0.003 1.31434e-19 5.25738e-20)
(0.003 6.92637e-20 -9.08702e-21)
(0.003 -1.86855e-21 3.24334e-20)
(0.003 -1.08862e-20 7.6855e-20)
(0.003 2.17387e-19 7.05251e-19)
(0.003 1.94685e-19 1.11218e-18)
(0.003 2.34408e-19 1.21972e-18)
(0.003 2.19834e-19 1.2534e-18)
(0.003 1.60876e-19 1.35221e-18)
(0.003 1.67453e-19 1.24161e-18)
(0.003 3.07186e-19 1.16796e-18)
(0.003 2.89907e-19 1.27687e-18)
(0.003 3.08722e-19 1.28641e-18)
(0.003 4.007e-19 1.22608e-18)
(0.003 2.55632e-19 1.06131e-18)
(0.003 1.35823e-19 9.49627e-19)
(0.003 1.07282e-19 7.88533e-19)
(0.003 2.72173e-19 6.89446e-19)
(0.003 2.2555e-19 7.46337e-19)
(0.003 1.03997e-19 7.15048e-19)
(0.003 6.87196e-20 4.70127e-19)
(0.003 1.30086e-19 2.21881e-19)
(0.003 2.93952e-19 1.24962e-19)
(0.003 2.77774e-19 1.54892e-19)
(0.003 2.43677e-19 2.52123e-19)
(0.003 1.09491e-19 4.13424e-19)
(0.003 -7.86822e-20 4.93605e-19)
(0.003 -9.93774e-20 4.26768e-19)
(0.003 -1.13682e-19 3.22319e-19)
(0.003 -5.31656e-21 2.14081e-19)
(0.003 7.71893e-20 1.13982e-19)
(0.003 1.13724e-20 5.78276e-20)
(0.003 -7.52567e-20 8.30076e-20)
(0.003 -7.06245e-20 1.26687e-19)
(0.003 -1.95401e-19 2.73065e-19)
(0.003 -1.24142e-19 1.46136e-19)
(0.003 1.08955e-19 6.01737e-20)
(0.003 1.50958e-19 1.84946e-19)
(0.003 2.3462e-19 1.46749e-19)
(0.003 1.70425e-19 1.95317e-20)
(0.003 4.91438e-20 -1.48084e-19)
(0.003 -1.0155e-19 -6.60556e-20)
(0.003 -1.56149e-19 1.92309e-19)
(0.003 -4.20746e-20 1.29886e-19)
(0.003 -9.75855e-20 7.24746e-19)
(0.003 -6.92036e-21 1.28712e-18)
(0.003 1.83788e-19 1.37876e-18)
(0.003 2.69668e-19 1.36786e-18)
(0.003 1.82757e-19 1.30844e-18)
(0.003 2.97676e-19 1.29787e-18)
(0.003 3.51781e-19 1.31256e-18)
(0.003 1.65471e-19 1.26284e-18)
(0.003 1.56917e-19 1.26476e-18)
(0.003 2.67951e-19 1.30396e-18)
(0.003 2.08779e-19 1.07979e-18)
(0.003 2.01042e-20 9.62703e-19)
(0.003 1.15132e-20 7.91321e-19)
(0.003 1.49208e-19 7.09485e-19)
(0.003 1.97918e-19 7.29646e-19)
(0.003 1.24726e-19 6.96219e-19)
(0.003 2.47062e-19 5.03792e-19)
(0.003 2.24319e-19 2.60172e-19)
(0.003 1.26774e-19 2.64143e-19)
(0.003 1.40441e-19 2.6754e-19)
(0.003 1.02618e-19 3.10934e-19)
(0.003 4.15112e-20 4.3391e-19)
(0.003 4.41029e-20 4.91785e-19)
(0.003 8.76593e-20 4.54475e-19)
(0.003 3.29093e-20 2.32125e-19)
(0.003 -9.2105e-20 1.1638e-19)
(0.003 -1.02443e-19 1.27192e-19)
(0.003 2.025e-20 6.78849e-20)
(0.003 2.80649e-20 2.07734e-20)
(0.003 -4.66523e-20 8.97647e-20)
(0.003 -1.52815e-19 1.4036e-19)
(0.003 -1.16666e-19 1.57392e-19)
(0.003 -2.1175e-21 1.90412e-19)
(0.003 2.18616e-21 8.64479e-20)
(0.003 7.76429e-20 -1.19231e-20)
(0.003 1.85837e-19 -1.76746e-19)
(0.003 1.65927e-20 -1.55566e-19)
(0.003 -1.50408e-19 -2.72362e-20)
(0.003 -1.48391e-19 2.49429e-19)
(0.003 -6.09632e-20 2.81868e-19)
(0.003 -2.78789e-19 8.42315e-19)
(0.003 -7.68962e-20 1.20391e-18)
(0.003 1.56978e-19 1.3707e-18)
(0.003 2.8931e-19 1.4931e-18)
(0.003 2.25119e-19 1.42887e-18)
(0.003 2.72784e-19 1.37071e-18)
(0.003 3.48404e-19 1.39192e-18)
(0.003 1.913e-19 1.31161e-18)
(0.003 1.4992e-19 1.1885e-18)
(0.003 1.89128e-19 1.20978e-18)
(0.003 2.49759e-19 1.09762e-18)
(0.003 4.87888e-20 8.89411e-19)
(0.003 -8.13012e-21 8.06732e-19)
(0.003 7.46121e-21 8.01344e-19)
(0.003 1.69646e-19 7.85201e-19)
(0.003 2.44268e-19 7.02592e-19)
(0.003 2.74057e-19 5.50904e-19)
(0.003 1.33847e-19 3.56308e-19)
(0.003 -8.65061e-20 1.49674e-19)
(0.003 -5.09333e-20 1.5306e-19)
(0.003 4.27288e-20 3.22442e-19)
(0.003 1.75715e-19 4.79072e-19)
(0.003 1.25981e-19 5.76166e-19)
(0.003 7.75086e-20 4.93396e-19)
(0.003 1.2796e-19 2.96528e-19)
(0.003 4.03642e-20 1.55076e-19)
(0.003 -1.4656e-19 7.27452e-20)
(0.003 -1.00009e-19 3.89643e-20)
(0.003 6.46553e-20 2.26443e-20)
(0.003 6.10952e-20 1.23246e-19)
(0.003 2.34186e-20 1.70197e-19)
(0.003 -5.22694e-20 1.75676e-19)
(0.003 -1.21657e-19 1.72624e-19)
(0.003 -1.02317e-19 1.37331e-19)
(0.003 -6.01571e-20 1.2018e-19)
(0.003 9.85515e-20 -1.35304e-19)
(0.003 6.15374e-20 -3.2707e-19)
(0.003 6.43118e-20 -1.29005e-19)
(0.003 1.08263e-19 -5.49268e-20)
(0.003 1.7316e-20 4.95496e-21)
(0.003 7.68914e-20 8.17021e-19)
(0.003 1.66531e-19 1.30798e-18)
(0.003 2.0931e-19 1.51339e-18)
(0.003 2.12156e-19 1.53624e-18)
(0.003 2.53245e-19 1.43663e-18)
(0.003 3.10178e-19 1.40579e-18)
(0.003 2.30876e-19 1.45552e-18)
(0.003 1.92561e-19 1.31881e-18)
(0.003 1.04445e-19 1.20255e-18)
(0.003 1.3876e-19 1.16682e-18)
(0.003 2.90293e-19 1.05207e-18)
(0.003 1.87171e-19 9.47658e-19)
(0.003 1.44854e-19 7.69401e-19)
(0.003 1.26331e-19 7.24844e-19)
(0.003 8.52822e-20 8.66141e-19)
(0.003 9.34778e-20 8.61738e-19)
(0.003 9.1546e-20 5.59523e-19)
(0.003 1.03689e-20 2.59165e-19)
(0.003 -1.72713e-20 1.17922e-19)
(0.003 -2.22526e-21 1.49675e-19)
(0.003 1.0914e-19 3.46843e-19)
(0.003 2.23215e-19 5.43873e-19)
(0.003 5.83141e-20 6.14685e-19)
(0.003 3.20848e-20 6.04516e-19)
(0.003 1.0226e-19 2.78082e-19)
(0.003 -4.82104e-20 2.37659e-20)
(0.003 -2.18143e-19 7.24506e-21)
(0.003 -7.91604e-20 8.69931e-20)
(0.003 7.30251e-20 7.05351e-20)
(0.003 8.59667e-21 2.0674e-19)
(0.003 -4.67214e-20 2.16802e-19)
(0.003 -3.90178e-20 1.8567e-19)
(0.003 -4.80205e-20 1.33538e-19)
(0.003 -9.18181e-20 1.00475e-19)
(0.003 -1.00922e-19 1.95653e-19)
(0.003 -1.16631e-19 -5.24485e-20)
(0.003 -4.28729e-20 -2.74511e-19)
(0.003 1.15318e-19 -6.83513e-20)
(0.003 2.69636e-19 -4.4115e-20)
(0.003 2.08612e-19 -9.67882e-20)
(0.003 2.88093e-19 9.13296e-19)
(0.003 2.62051e-19 1.38601e-18)
(0.003 1.801e-19 1.49899e-18)
(0.003 1.36419e-19 1.4646e-18)
(0.003 2.40273e-19 1.46444e-18)
(0.003 2.31947e-19 1.51308e-18)
(0.003 1.67172e-19 1.41641e-18)
(0.003 2.7134e-19 1.33458e-18)
(0.003 1.82228e-19 1.14296e-18)
(0.003 3.25013e-20 1.15384e-18)
(0.003 1.38136e-19 1.12968e-18)
(0.003 1.78139e-19 9.79766e-19)
(0.003 2.09774e-19 8.83606e-19)
(0.003 2.08351e-19 7.69295e-19)
(0.003 6.06476e-20 8.24414e-19)
(0.003 -7.32317e-20 7.8691e-19)
(0.003 -1.00743e-19 6.36152e-19)
(0.003 6.98617e-20 2.63126e-19)
(0.003 3.11095e-19 1.28221e-19)
(0.003 2.51944e-19 1.72989e-19)
(0.003 8.74014e-20 3.15646e-19)
(0.003 -9.26648e-20 5.02436e-19)
(0.003 -1.0978e-19 5.16777e-19)
(0.003 -3.26008e-20 5.52283e-19)
(0.003 -2.78119e-20 3.99865e-19)
(0.003 -8.8798e-20 8.23338e-20)
(0.003 -4.70194e-20 -1.27726e-20)
(0.003 1.75233e-20 1.28643e-19)
(0.003 -3.88104e-20 4.25427e-20)
(0.003 -1.46348e-19 1.54701e-19)
(0.003 -2.74485e-20 2.31238e-19)
(0.003 -1.9516e-20 1.31169e-19)
(0.003 -5.52105e-20 9.00174e-20)
(0.003 -2.03522e-20 1.02292e-19)
(0.003 -5.0788e-20 7.66719e-20)
(0.003 -2.19547e-19 -6.82843e-20)
(0.003 -1.5767e-19 -3.87295e-21)
(0.003 4.67388e-20 2.04062e-20)
(0.003 1.43534e-19 -2.69672e-19)
(0.003 1.32357e-19 -3.33289e-19)
(0.003 2.604e-19 9.60493e-19)
(0.003 2.69968e-19 1.3877e-18)
(0.003 1.61518e-19 1.46552e-18)
(0.003 1.50903e-19 1.53318e-18)
(0.003 1.03487e-19 1.57574e-18)
(0.003 2.46601e-20 1.48411e-18)
(0.003 1.86063e-19 1.38876e-18)
(0.003 1.741e-19 1.34487e-18)
(0.003 1.86178e-19 1.24266e-18)
(0.003 1.65926e-19 1.16367e-18)
(0.003 -7.93855e-21 1.07054e-18)
(0.003 5.22817e-20 9.71395e-19)
(0.003 2.09198e-19 8.91773e-19)
(0.003 2.69306e-19 8.34308e-19)
(0.003 8.64295e-20 8.11612e-19)
(0.003 -3.79408e-20 7.08639e-19)
(0.003 -8.70762e-20 5.18579e-19)
(0.003 3.24179e-20 3.14541e-19)
(0.003 2.05552e-19 3.2757e-19)
(0.003 2.21531e-19 2.93172e-19)
(0.003 1.38512e-19 3.05203e-19)
(0.003 1.73825e-20 4.39732e-19)
(0.003 2.53419e-20 4.56349e-19)
(0.003 1.99395e-20 5.17181e-19)
(0.003 -1.40585e-19 4.07418e-19)
(0.003 -4.78749e-20 9.86676e-20)
(0.003 9.31207e-20 -5.11766e-20)
(0.003 1.45329e-20 2.93328e-20)
(0.003 -2.18369e-19 3.14363e-20)
(0.003 -2.96878e-19 1.14136e-19)
(0.003 -1.14685e-19 2.29527e-19)
(0.003 1.14612e-20 1.09833e-19)
(0.003 -7.67828e-21 2.40868e-20)
(0.003 1.6993e-20 1.96742e-19)
(0.003 -9.48941e-20 1.78274e-19)
(0.003 -1.39369e-19 -1.41342e-19)
(0.003 4.88676e-20 -1.31046e-19)
(0.003 1.20096e-19 -8.58326e-20)
(0.003 4.98663e-20 -2.39216e-19)
(0.003 -2.4476e-21 -3.96635e-19)
(0.003 1.64407e-20 9.82758e-19)
(0.003 2.15157e-19 1.49922e-18)
(0.003 2.08198e-19 1.51331e-18)
(0.003 5.42432e-20 1.53966e-18)
(0.003 -9.58226e-20 1.51675e-18)
(0.003 -4.83446e-20 1.50852e-18)
(0.003 1.38059e-19 1.42326e-18)
(0.003 2.22939e-19 1.27823e-18)
(0.003 1.78952e-19 1.21932e-18)
(0.003 6.68895e-20 1.23589e-18)
(0.003 -4.95833e-20 1.06531e-18)
(0.003 1.12661e-19 8.87949e-19)
(0.003 2.07647e-19 9.31126e-19)
(0.003 1.32713e-19 9.42029e-19)
(0.003 1.18502e-20 8.63586e-19)
(0.003 -1.59159e-20 7.35337e-19)
(0.003 -3.39315e-20 5.24545e-19)
(0.003 1.23231e-19 3.49371e-19)
(0.003 1.71516e-19 2.86713e-19)
(0.003 1.23998e-19 2.65347e-19)
(0.003 2.32905e-19 3.61409e-19)
(0.003 1.0024e-19 4.82811e-19)
(0.003 2.75039e-21 5.11855e-19)
(0.003 -3.41525e-20 5.58842e-19)
(0.003 -1.51449e-19 3.93651e-19)
(0.003 -3.55467e-20 -3.46213e-20)
(0.003 1.39551e-19 -3.1118e-19)
(0.003 7.09884e-20 -1.22715e-19)
(0.003 -2.36842e-19 5.40397e-20)
(0.003 -2.65101e-19 1.90792e-19)
(0.003 -2.42556e-19 2.91885e-19)
(0.003 -5.18803e-20 1.93626e-19)
(0.003 3.31945e-20 9.94658e-20)
(0.003 -4.81893e-20 1.09118e-19)
(0.003 -1.23257e-19 6.80321e-20)
(0.003 -3.74471e-20 -1.20566e-19)
(0.003 1.09638e-19 -2.94348e-19)
(0.003 1.82054e-19 -2.27271e-19)
(0.003 7.09371e-20 -2.78331e-19)
(0.003 -4.57693e-20 -4.60075e-19)
(0.003 -1.78108e-19 1.01728e-18)
(0.003 -1.46336e-19 1.49469e-18)
(0.003 6.81227e-20 1.59653e-18)
(0.003 3.49034e-20 1.47209e-18)
(0.003 3.90389e-20 1.46514e-18)
(0.003 1.7798e-22 1.51897e-18)
(0.003 1.08001e-19 1.55053e-18)
(0.003 2.24372e-19 1.38792e-18)
(0.003 2.99083e-20 1.21074e-18)
(0.003 -1.5471e-19 1.1742e-18)
(0.003 5.97774e-20 1.04266e-18)
(0.003 2.32153e-19 9.44312e-19)
(0.003 9.30203e-20 1.01701e-18)
(0.003 -8.94221e-20 9.37557e-19)
(0.003 -5.32079e-20 7.54392e-19)
(0.003 -4.14226e-20 7.1706e-19)
(0.003 3.57593e-20 4.83713e-19)
(0.003 2.53162e-19 3.71059e-19)
(0.003 1.86144e-19 4.13544e-19)
(0.003 1.49797e-19 2.96683e-19)
(0.003 2.23421e-19 4.35502e-19)
(0.003 6.55281e-20 5.20636e-19)
(0.003 -1.3849e-19 5.82932e-19)
(0.003 -2.54371e-19 5.12182e-19)
(0.003 -2.13389e-19 3.08277e-19)
(0.003 -3.14227e-20 -1.12698e-20)
(0.003 1.59464e-19 -3.94166e-19)
(0.003 8.16182e-20 -1.98491e-19)
(0.003 -9.35196e-20 8.06527e-20)
(0.003 -8.45564e-20 1.72802e-19)
(0.003 -4.14951e-21 2.45329e-19)
(0.003 6.36546e-20 1.56732e-19)
(0.003 -7.80466e-20 7.74104e-20)
(0.003 -1.56996e-19 8.05536e-20)
(0.003 -1.10725e-19 1.63218e-19)
(0.003 -4.82663e-20 -1.78439e-20)
(0.003 9.5897e-20 -3.32626e-19)
(0.003 1.54306e-19 -2.90026e-19)
(0.003 6.75841e-20 -3.94129e-19)
(0.003 4.69956e-21 -5.47749e-19)
(0.003 -6.59373e-20 9.75743e-19)
(0.003 -2.70907e-19 1.47623e-18)
(0.003 -1.75662e-19 1.63984e-18)
(0.003 -9.55259e-20 1.53377e-18)
(0.003 3.51569e-20 1.54975e-18)
(0.003 5.08605e-20 1.56938e-18)
(0.003 -5.04991e-21 1.52696e-18)
(0.003 3.27775e-20 1.43054e-18)
(0.003 -8.6323e-21 1.22308e-18)
(0.003 -4.79115e-20 1.05526e-18)
(0.003 1.1151e-19 1.08817e-18)
(0.003 1.95247e-19 1.08397e-18)
(0.003 -2.0367e-20 1.0819e-18)
(0.003 -6.19412e-20 9.62652e-19)
(0.003 -1.15544e-22 8.06551e-19)
(0.003 8.79376e-21 6.66654e-19)
(0.003 3.35675e-20 4.65314e-19)
(0.003 -1.7207e-20 3.96487e-19)
(0.003 1.03986e-19 4.21794e-19)
(0.003 2.65123e-19 3.98834e-19)
(0.003 1.03102e-19 4.51037e-19)
(0.003 4.39846e-20 5.91778e-19)
(0.003 -1.19757e-19 5.74822e-19)
(0.003 -3.21681e-19 3.59256e-19)
(0.003 -2.00462e-19 1.33851e-19)
(0.003 -8.5125e-20 1.35547e-19)
(0.003 1.86318e-20 -1.10313e-19)
(0.003 2.67842e-20 -2.89243e-19)
(0.003 4.12186e-20 2.62337e-20)
(0.003 7.70849e-20 1.23016e-19)
(0.003 1.27855e-19 1.26032e-19)
(0.003 4.19106e-21 6.76216e-20)
(0.003 -1.89764e-19 2.60377e-20)
(0.003 -9.97152e-20 2.06002e-19)
(0.003 -5.05026e-20 2.14902e-19)
(0.003 -6.50429e-20 -3.89961e-21)
(0.003 7.86288e-21 -2.56677e-19)
(0.003 3.56342e-20 -2.68148e-19)
(0.003 -2.99038e-20 -3.62959e-19)
(0.003 3.85079e-20 -4.99409e-19)
(0.003 -1.5316e-19 8.96399e-19)
(0.003 -1.33916e-19 1.41724e-18)
(0.003 -2.29627e-21 1.59857e-18)
(0.003 -1.13777e-19 1.54972e-18)
(0.003 -1.79456e-19 1.57767e-18)
(0.003 -4.61973e-20 1.59058e-18)
(0.003 -3.88754e-20 1.56446e-18)
(0.003 -4.90453e-20 1.46563e-18)
(0.003 5.42218e-20 1.26498e-18)
(0.003 1.42461e-19 1.17064e-18)
(0.003 1.10245e-19 1.14985e-18)
(0.003 1.12536e-19 1.15195e-18)
(0.003 3.86577e-20 1.07116e-18)
(0.003 -3.48665e-20 9.9067e-19)
(0.003 -1.49031e-19 7.58475e-19)
(0.003 3.74547e-20 5.69158e-19)
(0.003 9.30468e-20 4.11939e-19)
(0.003 -1.2323e-19 4.43092e-19)
(0.003 -3.23681e-20 5.78969e-19)
(0.003 1.97816e-19 5.23411e-19)
(0.003 1.61752e-19 5.39671e-19)
(0.003 9.14503e-20 4.91004e-19)
(0.003 -1.11758e-19 3.97872e-19)
(0.003 -2.39551e-19 2.28907e-19)
(0.003 -1.72131e-19 1.14971e-19)
(0.003 -8.1165e-20 1.91405e-19)
(0.003 -1.53278e-19 8.29371e-20)
(0.003 -1.3074e-19 -1.66241e-20)
(0.003 2.04272e-20 4.27871e-20)
(0.003 1.10122e-19 1.04609e-19)
(0.003 -4.85557e-21 -6.22069e-21)
(0.003 -1.90331e-19 8.74354e-22)
(0.003 -7.7351e-20 9.3344e-20)
(0.003 -1.8568e-20 1.76249e-19)
(0.003 -3.04517e-20 2.16053e-19)
(0.003 1.74122e-20 3.67004e-21)
(0.003 -6.4723e-20 -2.70941e-19)
(0.003 -1.00802e-19 -2.43439e-19)
(0.003 -5.05736e-20 -4.97769e-19)
(0.003 1.33186e-20 -5.88999e-19)
(0.003 -1.949e-19 8.24961e-19)
(0.003 -1.99403e-19 1.43099e-18)
(0.003 -1.49718e-19 1.74826e-18)
(0.003 -1.44264e-20 1.62441e-18)
(0.003 1.77489e-20 1.509e-18)
(0.003 -5.93675e-20 1.56586e-18)
(0.003 -1.42009e-19 1.56763e-18)
(0.003 -1.7357e-19 1.43927e-18)
(0.003 6.23666e-22 1.34839e-18)
(0.003 8.87309e-20 1.221e-18)
(0.003 8.38289e-20 1.17413e-18)
(0.003 4.23055e-20 1.16449e-18)
(0.003 6.13232e-20 1.05784e-18)
(0.003 1.81388e-20 9.92281e-19)
(0.003 -2.04425e-20 7.5494e-19)
(0.003 3.41833e-20 7.09105e-19)
(0.003 1.49325e-19 5.39213e-19)
(0.003 2.31736e-19 3.27707e-19)
(0.003 2.13948e-19 3.53853e-19)
(0.003 6.14679e-20 5.20693e-19)
(0.003 -1.19902e-19 6.33903e-19)
(0.003 -1.35546e-19 6.71797e-19)
(0.003 -7.62861e-20 3.98608e-19)
(0.003 -6.07082e-20 1.89012e-19)
(0.003 -8.09113e-20 1.44607e-19)
(0.003 -1.12642e-19 2.03705e-19)
(0.003 -1.59105e-19 1.99796e-19)
(0.003 -2.19935e-19 7.20579e-21)
(0.003 -1.81014e-19 -1.71832e-20)
(0.003 -2.08381e-21 6.05885e-20)
(0.003 3.5378e-20 -2.19749e-20)
(0.003 -2.69198e-20 -3.05851e-20)
(0.003 3.8238e-21 7.34962e-20)
(0.003 -1.03238e-21 1.26677e-19)
(0.003 -3.56917e-20 1.09434e-19)
(0.003 -6.38457e-20 2.15154e-20)
(0.003 -2.01415e-19 -1.96639e-19)
(0.003 -2.11201e-19 -3.08767e-19)
(0.003 -1.48861e-20 -4.07768e-19)
(0.003 5.05485e-20 -4.15782e-19)
(0.003 -1.45744e-19 7.97593e-19)
(0.003 -2.70209e-19 1.37999e-18)
(0.003 -2.40214e-19 1.60964e-18)
(0.003 3.36264e-20 1.63233e-18)
(0.003 9.77175e-20 1.59221e-18)
(0.003 -1.38276e-19 1.51291e-18)
(0.003 -2.80744e-19 1.5334e-18)
(0.003 -1.32473e-19 1.49862e-18)
(0.003 6.22225e-20 1.42688e-18)
(0.003 8.89672e-20 1.30665e-18)
(0.003 2.3378e-21 1.19219e-18)
(0.003 2.24269e-20 1.12774e-18)
(0.003 -1.56442e-20 1.07337e-18)
(0.003 -3.33256e-20 1.02899e-18)
(0.003 1.66955e-19 7.95592e-19)
(0.003 5.14423e-20 7.25889e-19)
(0.003 -6.24158e-21 6.27074e-19)
(0.003 1.79115e-19 4.70444e-19)
(0.003 2.75233e-19 4.35015e-19)
(0.003 -2.50874e-20 4.14882e-19)
(0.003 -1.33607e-19 5.27626e-19)
(0.003 -1.16526e-19 5.86866e-19)
(0.003 -1.94628e-20 5.02539e-19)
(0.003 -3.10502e-20 2.65219e-19)
(0.003 1.31565e-20 1.52858e-19)
(0.003 -1.40206e-19 1.76167e-19)
(0.003 -6.97762e-20 1.33412e-19)
(0.003 -9.46672e-20 3.9296e-20)
(0.003 -1.51475e-19 9.77314e-21)
(0.003 3.27566e-20 -3.35367e-20)
(0.003 9.30723e-20 -2.96858e-21)
(0.003 6.39343e-20 4.09989e-20)
(0.003 1.36013e-21 5.29874e-20)
(0.003 -4.27682e-20 1.16172e-19)
(0.003 -3.29113e-20 4.89896e-20)
(0.003 -1.48701e-19 -8.0151e-20)
(0.003 -1.65073e-19 -1.40348e-19)
(0.003 -2.04455e-19 -1.57843e-19)
(0.003 -9.29738e-20 -2.82914e-19)
(0.003 -1.08343e-20 -3.38498e-19)
(0.003 3.93304e-20 8.50384e-19)
(0.003 1.65031e-20 1.39162e-18)
(0.003 -1.40284e-20 1.5724e-18)
(0.003 -5.31143e-20 1.57594e-18)
(0.003 -1.30474e-20 1.58985e-18)
(0.003 -1.19875e-19 1.48114e-18)
(0.003 -2.57882e-19 1.42271e-18)
(0.003 -2.49269e-19 1.50492e-18)
(0.003 -1.36389e-19 1.50754e-18)
(0.003 1.09345e-19 1.3838e-18)
(0.003 1.66415e-19 1.18538e-18)
(0.003 7.88867e-20 1.18449e-18)
(0.003 3.99946e-20 1.01353e-18)
(0.003 -1.83527e-21 9.97153e-19)
(0.003 8.35279e-20 9.55043e-19)
(0.003 -1.65001e-20 7.72566e-19)
(0.003 -1.32921e-19 5.047e-19)
(0.003 -1.86654e-19 3.58002e-19)
(0.003 -1.10628e-19 5.06773e-19)
(0.003 -9.93152e-21 4.68692e-19)
(0.003 2.58947e-20 4.92339e-19)
(0.003 1.36998e-20 6.11171e-19)
(0.003 -2.0738e-20 6.04949e-19)
(0.003 4.40279e-20 2.5443e-19)
(0.003 1.00811e-19 1.14027e-19)
(0.003 -3.59192e-21 1.5104e-19)
(0.003 3.2329e-20 1.86024e-19)
(0.003 9.07714e-20 5.32256e-20)
(0.003 5.65685e-20 -4.29353e-20)
(0.003 -9.22503e-21 -8.52572e-20)
(0.003 -8.40029e-20 1.2108e-19)
(0.003 -1.04424e-19 1.06949e-19)
(0.003 -3.26957e-20 1.49315e-20)
(0.003 -1.00141e-20 1.3801e-20)
(0.003 -2.14636e-20 9.40423e-20)
(0.003 4.58182e-21 1.91327e-20)
(0.003 1.55639e-20 -5.8336e-20)
(0.003 -5.06327e-20 -2.15455e-19)
(0.003 -1.59256e-19 -4.71004e-19)
(0.003 -1.71376e-19 -4.25526e-19)
(0.003 2.6066e-19 8.27384e-19)
(0.003 2.79389e-19 1.32759e-18)
(0.003 -4.33668e-20 1.49926e-18)
(0.003 -1.77849e-19 1.55488e-18)
(0.003 -6.98054e-20 1.57062e-18)
(0.003 -6.08346e-21 1.46497e-18)
(0.003 -2.49007e-20 1.45568e-18)
(0.003 -2.20494e-19 1.40159e-18)
(0.003 -2.7882e-19 1.37008e-18)
(0.003 1.60149e-20 1.48518e-18)
(0.003 2.51103e-19 1.44807e-18)
(0.003 -2.45328e-20 1.25254e-18)
(0.003 1.3497e-20 1.12231e-18)
(0.003 1.63843e-19 9.59177e-19)
(0.003 4.06682e-20 8.69965e-19)
(0.003 -7.18756e-20 6.80967e-19)
(0.003 -1.46702e-19 4.69115e-19)
(0.003 -1.69771e-19 3.65254e-19)
(0.003 -2.55448e-19 4.8093e-19)
(0.003 -1.31043e-19 5.31335e-19)
(0.003 3.36684e-22 5.80588e-19)
(0.003 -1.258e-19 5.43765e-19)
(0.003 -6.17134e-20 5.47882e-19)
(0.003 1.06871e-19 3.75826e-19)
(0.003 1.3665e-19 2.32047e-19)
(0.003 1.23176e-19 1.16884e-19)
(0.003 4.50932e-20 5.80442e-20)
(0.003 1.51361e-19 -1.24336e-21)
(0.003 1.01679e-19 -7.28276e-20)
(0.003 -1.06897e-19 -1.9198e-19)
(0.003 -6.24885e-20 5.34934e-20)
(0.003 -6.29019e-20 5.59105e-20)
(0.003 -5.10896e-21 -2.6138e-21)
(0.003 1.4337e-20 1.12779e-19)
(0.003 5.87947e-20 1.05203e-19)
(0.003 1.68804e-19 6.04738e-20)
(0.003 3.81539e-20 2.0608e-20)
(0.003 -7.37557e-20 -1.46725e-19)
(0.003 -1.955e-19 -4.24952e-19)
(0.003 -2.62077e-19 -3.6947e-19)
(0.003 2.7338e-19 8.83544e-19)
(0.003 2.87288e-19 1.40151e-18)
(0.003 2.34134e-20 1.48147e-18)
(0.003 -3.55697e-20 1.49236e-18)
(0.003 -9.41826e-20 1.48239e-18)
(0.003 5.24114e-20 1.45947e-18)
(0.003 1.81991e-21 1.45685e-18)
(0.003 -9.87051e-20 1.40178e-18)
(0.003 -7.17984e-20 1.36113e-18)
(0.003 -5.99057e-20 1.5197e-18)
(0.003 -7.35234e-20 1.47237e-18)
(0.003 -4.2927e-20 1.19944e-18)
(0.003 -5.98839e-21 1.0796e-18)
(0.003 -5.83459e-20 1.06218e-18)
(0.003 -8.09204e-20 8.81416e-19)
(0.003 -7.01631e-20 6.27838e-19)
(0.003 -1.78867e-19 4.6018e-19)
(0.003 -2.34468e-19 3.80814e-19)
(0.003 -3.02879e-19 3.94485e-19)
(0.003 -1.57332e-19 4.83627e-19)
(0.003 -1.13361e-19 6.51964e-19)
(0.003 -1.12976e-19 5.89702e-19)
(0.003 1.59188e-19 5.15599e-19)
(0.003 2.05743e-19 3.7948e-19)
(0.003 1.03453e-19 1.75776e-19)
(0.003 1.31206e-19 1.01335e-19)
(0.003 1.16316e-19 5.72227e-20)
(0.003 1.15204e-19 -8.67425e-20)
(0.003 9.41603e-20 -9.35648e-20)
(0.003 -1.3554e-20 -1.69161e-19)
(0.003 2.7828e-20 -3.20614e-20)
(0.003 7.94086e-20 2.54191e-20)
(0.003 5.66874e-20 6.45965e-22)
(0.003 -5.26883e-21 1.30237e-19)
(0.003 6.27788e-20 1.48551e-19)
(0.003 1.79072e-19 9.18758e-20)
(0.003 5.61702e-20 -6.77447e-20)
(0.003 -1.40772e-19 -3.4482e-19)
(0.003 -1.16108e-19 -3.84059e-19)
(0.003 -1.07262e-19 -1.9155e-19)
(0.003 -6.94841e-20 9.1166e-19)
(0.003 -3.71582e-20 1.47295e-18)
(0.003 7.76714e-20 1.46445e-18)
(0.003 -2.30002e-21 1.43531e-18)
(0.003 -4.53433e-20 1.456e-18)
(0.003 5.30082e-20 1.55472e-18)
(0.003 6.94855e-20 1.47176e-18)
(0.003 1.48239e-19 1.34419e-18)
(0.003 -3.10667e-21 1.27146e-18)
(0.003 -2.16957e-19 1.35204e-18)
(0.003 -2.23299e-19 1.41976e-18)
(0.003 -8.46163e-20 1.34105e-18)
(0.003 -2.05882e-19 1.15372e-18)
(0.003 -2.09373e-19 9.15616e-19)
(0.003 -1.35937e-19 7.33309e-19)
(0.003 -2.15259e-19 7.01907e-19)
(0.003 -1.99415e-19 5.46184e-19)
(0.003 -1.51746e-19 3.36918e-19)
(0.003 -2.22444e-19 3.53599e-19)
(0.003 -1.92735e-19 5.08255e-19)
(0.003 -1.39813e-19 5.57141e-19)
(0.003 -2.18154e-20 5.75395e-19)