/*--------------------------------*- C++ -*----------------------------------*\
| =========                 |                                                 |
| \\      /  F ield         | OpenFOAM: The Open Source CFD Toolbox           |
|  \\    /   O peration     | Version:  v2012                                 |
|   \\  /    A nd           | Website:  www.openfoam.com                      |
|    \\/     M anipulation  |                                                 |
\*---------------------------------------------------------------------------*/
FoamFile
{
    version     2.0;
    format      ascii;
    class       surfaceScalarField;
    location    "310/topAir";
    object      phi;
}
// * * * * * * * * * * * * * * * * * * * * * * * * * * * * * * * * * * * * * //

dimensions      [1 0 -1 0 0 0 0];
oriented        oriented;


internalField   nonuniform List<scalar> 
3140
(
9.4810912e-06
-2.8510143e-07
7.3026074e-08
9.6545942e-06
-2.5736614e-07
8.3928272e-08
9.8238209e-06
-2.4334833e-07
7.4203458e-08
9.9625114e-06
-1.9601674e-07
5.7419103e-08
1.0063865e-05
-1.3652012e-07
3.5265961e-08
1.0135632e-05
-8.0248746e-08
8.582837e-09
1.0205675e-05
-3.2376903e-08
-3.7566444e-08
1.0300068e-05
6.5420818e-09
-1.0084885e-07
1.0424843e-05
6.7056711e-08
-1.9176007e-07
1.060169e-05
1.4550922e-07
-3.2229916e-07
1.0830496e-05
2.781305e-07
-5.0689271e-07
1.1085155e-05
5.0499425e-07
-7.5961934e-07
1.1311777e-05
8.6075036e-07
-1.0873405e-06
1.1506599e-05
1.2978921e-06
-1.4926787e-06
1.1647537e-05
1.7955552e-06
-1.9364478e-06
1.1735365e-05
2.2826031e-06
-2.3703647e-06
1.1768524e-05
2.7139689e-06
-2.747008e-06
1.174312e-05
3.0667468e-06
-3.0411229e-06
1.1668091e-05
3.3277275e-06
-3.2523223e-06
1.1571583e-05
3.4890286e-06
-3.3919305e-06
1.1488978e-05
3.5558138e-06
-3.47235e-06
1.1445308e-05
3.5470192e-06
-3.5021825e-06
1.1448061e-05
3.4851783e-06
-3.4864254e-06
1.1487585e-05
3.3904266e-06
-3.4280673e-06
1.1539516e-05
3.2791291e-06
-3.3287546e-06
1.1558995e-05
3.1688987e-06
-3.18559e-06
1.145818e-05
3.0892879e-06
-2.9851731e-06
1.106051e-05
3.1012021e-06
-2.6998225e-06
1.0007709e-05
3.3406743e-06
-2.2840501e-06
4.1552943e-06
-1.673667e-06
9.1194093e-06
-2.1561414e-07
8.0070504e-08
9.0828079e-06
-3.2511994e-07
1.0435492e-07
9.0737763e-06
-3.4538887e-07
1.1107389e-07
9.1065063e-06
-3.4234577e-07
1.136027e-07
9.1800285e-06
-3.2162161e-07
1.1158424e-07
9.288635e-06
-2.920277e-07
1.0317724e-07
9.4344827e-06
-2.6478137e-07
8.655992e-08
9.6310054e-06
-2.4879993e-07
5.8834446e-08
9.9040239e-06
-2.222828e-07
1.6370076e-08
1.027901e-05
-1.7046262e-07
-5.8886085e-08
1.0785745e-05
-5.0165359e-08
-1.781748e-07
1.141999e-05
2.2613584e-07
-3.5509534e-07
1.2102358e-05
7.8625398e-07
-6.0770977e-07
1.2713463e-05
1.6148519e-06
-9.2813638e-07
1.3191262e-05
2.588457e-06
-1.270956e-06
1.3496509e-05
3.5401323e-06
-1.5630422e-06
1.361101e-05
4.3561862e-06
-1.7568017e-06
1.3554514e-05
4.9919141e-06
-1.8684351e-06
1.3381676e-05
5.4457612e-06
-1.9445477e-06
1.3167338e-05
5.7256263e-06
-2.0211223e-06
1.297384e-05
5.8478042e-06
-2.0967828e-06
1.2829371e-05
5.844139e-06
-2.1502575e-06
1.2736593e-05
5.7469636e-06
-2.1657785e-06
1.2680924e-05
5.5838701e-06
-2.1335337e-06
1.2637e-05
5.3731439e-06
-2.0446621e-06
1.256192e-05
5.1326155e-06
-1.8817787e-06
1.2369511e-05
4.9016897e-06
-1.6114106e-06
1.1896475e-05
4.7724855e-06
-1.187979e-06
1.0892614e-05
4.9349607e-06
-5.7924194e-07
5.6172208e-06
2.891942e-07
9.1763845e-06
-2.050934e-07
8.205248e-08
9.014759e-06
-2.7179985e-07
1.0830249e-07
8.8363655e-06
-2.8491331e-07
1.1791509e-07
8.6536954e-06
-2.8483776e-07
1.2515921e-07
8.4785315e-06
-2.7764108e-07
1.3118052e-07
8.3163186e-06
-2.654061e-07
1.355882e-07
8.1655657e-06
-2.5314422e-07
1.3911232e-07
8.0197184e-06
-2.4644897e-07
1.4349251e-07
7.8929681e-06
-2.4772966e-07
1.5219432e-07
7.8194747e-06
-2.6262606e-07
1.6565744e-07
7.8953025e-06
-3.0247232e-07
1.7648842e-07
8.2760074e-06
-3.1867885e-07
1.6419407e-07
9.0304437e-06
-7.5284437e-08
1.0702374e-07
1.0108082e-05
5.3618062e-07
5.060804e-10
1.1122576e-05
1.6462374e-06
-7.3270877e-08
1.1926262e-05
2.7911725e-06
-5.5918373e-08
1.2459597e-05
3.6703611e-06
1.5111779e-07
1.2697954e-05
4.2692377e-06
4.8312767e-07
1.2729497e-05
4.6636799e-06
7.4970387e-07
1.2660596e-05
4.895031e-06
8.9908096e-07
1.2583085e-05
4.9859993e-06
9.3929961e-07
1.2524786e-05
4.9499878e-06
9.5277503e-07
1.2483597e-05
4.8151021e-06
9.736439e-07
1.2435097e-05
4.6105131e-06
1.022651e-06
1.2352042e-05
4.3619403e-06
1.0952095e-06
1.2209745e-05
4.0923026e-06
1.1837269e-06
1.1966858e-05
3.8366618e-06
1.3093044e-06
1.156793e-05
3.6737308e-06
1.4995164e-06
1.0895923e-05
3.7861748e-06
1.8233076e-06
4.5587823e-06
2.3885397e-06
8.9837078e-06
8.0148018e-08
8.6067229e-06
1.0518203e-07
8.2081589e-06
1.1364751e-07
7.8041029e-06
1.1921508e-07
7.4031138e-06
1.2334491e-07
7.0116584e-06
1.2604613e-07
6.6300032e-06
1.2850769e-07
6.250606e-06
1.3294485e-07
5.8598425e-06
1.4303018e-07
5.4323304e-06
1.6488217e-07
4.9206023e-06
2.0925052e-07
4.3056714e-06
2.9623946e-07
3.7738985e-06
4.5639718e-07
3.6024261e-06
7.0690008e-07
4.1505897e-06
1.0961562e-06
5.2242808e-06
1.7150709e-06
6.316515e-06
2.5757211e-06
7.2201846e-06
3.3635336e-06
7.9317454e-06
3.9506082e-06
8.5199733e-06
4.3058366e-06
9.0282578e-06
4.4772345e-06
9.4764276e-06
4.5017223e-06
9.8463545e-06
4.4453563e-06
1.0112554e-05
4.3446808e-06
1.0255364e-05
4.2196132e-06
1.027791e-05
4.0703123e-06
1.0203407e-05
3.9117789e-06
1.0113948e-05
3.7639233e-06
1.0273082e-05
3.6280545e-06
3.4349353e-06
9.5939972e-06
-2.8457409e-07
3.2618791e-08
9.8847371e-06
-2.5813212e-07
5.1385612e-08
1.0160072e-05
-2.559767e-07
5.4926077e-08
1.0392454e-05
-2.2552861e-07
5.0656614e-08
1.0574378e-05
-1.8760042e-07
4.1039622e-08
1.071596e-05
-1.5808586e-07
2.5188478e-08
1.0823548e-05
-1.4375469e-07
-1.3015469e-09
1.0900952e-05
-1.4874671e-07
-2.9418311e-08
1.0957358e-05
-1.7744502e-07
-7.0652429e-08
1.0999904e-05
-2.365447e-07
-1.2825094e-07
1.1034604e-05
-3.3334572e-07
-2.0821947e-07
1.1068073e-05
-4.7622924e-07
-3.1685006e-07
1.1109616e-05
-6.6998745e-07
-4.589132e-07
1.1224941e-05
-9.6632132e-07
-6.4176299e-07
1.1433161e-05
-1.293803e-06
-8.5107941e-07
1.1726205e-05
-1.5999763e-06
-1.063799e-06
1.2037163e-05
-1.7958656e-06
-1.2625116e-06
1.2282509e-05
-1.8336571e-06
-1.4531164e-06
1.2422531e-05
-1.7526854e-06
-1.6396954e-06
1.2470786e-05
-1.6305509e-06
-1.8092709e-06
1.2475097e-05
-1.5263256e-06
-1.9495055e-06
1.2477743e-05
-1.4522241e-06
-2.0512683e-06
1.2499843e-05
-1.4001612e-06
-2.1064608e-06
1.2543306e-05
-1.3572976e-06
-2.1116315e-06
1.2604993e-05
-1.3161965e-06
-2.0707559e-06
1.268108e-05
-1.2670387e-06
-1.9899224e-06
1.275254e-05
-1.1849325e-06
-1.865352e-06
1.2751016e-05
-1.0015695e-06
-1.688701e-06
1.254052e-05
-5.8046381e-07
-1.4841044e-06
6.4080056e-07
-1.2489321e-06
9.2451341e-06
-2.1705035e-07
3.6379731e-08
9.3564187e-06
-3.2902732e-07
6.3965174e-08
9.4895234e-06
-3.5439001e-07
7.6383932e-08
9.6583687e-06
-3.6126963e-07
8.050132e-08
9.8597573e-06
-3.5663701e-07
7.9236028e-08
1.0082376e-05
-3.4926458e-07
7.174094e-08
1.0318741e-05
-3.4959642e-07
5.6038055e-08
1.0566086e-05
-3.6680723e-07
2.9546714e-08
1.0826852e-05
-4.1011402e-07
-1.1736985e-08
1.1099694e-05
-4.928644e-07
-7.5424109e-08
1.1389406e-05
-6.334714e-07
-1.6778454e-07
1.170936e-05
-8.523118e-07
-2.9900117e-07
1.2080217e-05
-1.1712696e-06
-4.773396e-07
1.2504609e-05
-1.6181563e-06
-7.0080224e-07
1.3013262e-05
-2.126319e-06
-9.4728831e-07
1.3543726e-05
-2.522888e-06
-1.1708533e-06
1.3979133e-05
-2.6263586e-06
-1.3619191e-06
1.4228038e-05
-2.4007051e-06
-1.550383e-06
1.4279559e-05
-2.0050262e-06
-1.743685e-06
1.4191601e-05
-1.6297835e-06
-1.9337787e-06
1.405165e-05
-1.3806922e-06
-2.1022483e-06
1.3896126e-05
-1.2135153e-06
-2.2331925e-06
1.3739533e-05
-1.1037499e-06
-2.3053565e-06
1.3587327e-05
-1.035278e-06
-2.3031504e-06
1.346737e-05
-1.0178679e-06
-2.2227999e-06
1.3437131e-05
-1.0532109e-06
-2.0650148e-06
1.3604264e-05
-1.1355481e-06
-1.8275787e-06
1.4199802e-05
-1.268668e-06
-1.5157726e-06
1.5827785e-05
-1.4973194e-06
-1.2882366e-06
-1.5624362e-06
-1.3936578e-06
9.304327e-06
-2.0746569e-07
3.7098547e-08
9.2931769e-06
-2.7545144e-07
6.5873753e-08
9.2666086e-06
-2.9034607e-07
8.0436565e-08
9.2372233e-06
-2.9429415e-07
8.756605e-08
9.2148688e-06
-2.9356473e-07
9.0459859e-08
9.2024987e-06
-2.9018422e-07
8.8874798e-08
9.1995792e-06
-2.8939806e-07
8.1829922e-08
9.2054176e-06
-2.9742445e-07
6.8266794e-08
9.220991e-06
-3.208817e-07
4.7382786e-08
9.2464045e-06
-3.7125855e-07
1.8630432e-08
9.2919258e-06
-4.6924793e-07
-3.3265997e-08
9.3764248e-06
-6.4932743e-07
-1.2330084e-07
9.5215809e-06
-9.5196755e-07
-2.5745054e-07
9.7529451e-06
-1.4102419e-06
-4.3882374e-07
1.0110481e-05
-1.9327238e-06
-6.2453494e-07
1.0524234e-05
-2.2779052e-06
-7.1488897e-07
1.0880093e-05
-2.1824088e-06
-6.4856062e-07
1.1132619e-05
-1.6955457e-06
-4.7423438e-07
1.1227181e-05
-1.0495212e-06
-2.9972184e-07
1.119998e-05
-4.3169335e-07
-2.7082571e-07
1.1129088e-05
-1.6145355e-08
-3.5305041e-07
1.1088194e-05
1.698506e-07
-3.8753979e-07
1.108726e-05
2.0999115e-07
-3.361277e-07
1.1094233e-05
1.5005936e-07
-1.6572499e-07
1.1095829e-05
3.426024e-08
4.592474e-08
1.1059369e-05
-1.3031708e-07
3.0154168e-07
1.1044655e-05
-3.7916628e-07
5.7324146e-07
1.1143604e-05
-6.6442249e-07
8.0367976e-07
1.1686234e-05
-9.1639327e-07
7.0843044e-07
-1.0825678e-06
1.7616407e-07
9.1055704e-06
3.6061163e-08
8.8716892e-06
6.3608623e-08
8.6177544e-06
7.7233151e-08
8.3591096e-06
8.3562559e-08
8.1031709e-06
8.5715768e-08
7.8554722e-06
8.3557403e-08
7.618224e-06
7.6354635e-08
7.3902814e-06
6.3459564e-08
7.1679051e-06
4.4521166e-08
6.9412572e-06
2.0267435e-08
6.6935038e-06
-1.2248908e-08
6.4100029e-06
-6.9595042e-08
6.0637664e-06
-1.4936089e-07
5.640785e-06
-2.8052814e-07
5.2412337e-06
-4.3756345e-07
5.0437589e-06
-3.6657834e-07
5.1296521e-06
3.0546986e-07
5.3349337e-06
1.4608416e-06
5.5076867e-06
2.7271109e-06
5.8217881e-06
3.5595478e-06
6.2684216e-06
4.0145598e-06
6.7423083e-06
4.1978208e-06
7.1662949e-06
4.2317248e-06
7.489053e-06
4.17273e-06
7.706433e-06
4.0374452e-06
7.8533736e-06
3.7951009e-06
7.9694665e-06
3.4188752e-06
8.0973538e-06
2.9742407e-06
8.6823324e-06
2.1297412e-06
8.7858644e-07
9.5709967e-06
-2.8620041e-07
1.6837757e-08
9.8526866e-06
-2.5840983e-07
2.8169644e-08
1.012748e-05
-2.5263969e-07
3.2852917e-08
1.0362825e-05
-2.1757198e-07
3.2975371e-08
1.0548516e-05
-1.7477062e-07
3.0219839e-08
1.0689033e-05
-1.4044626e-07
2.5222336e-08
1.0788475e-05
-1.1880676e-07
1.816993e-08
1.08584e-05
-1.0867951e-07
9.4440298e-09
1.0902603e-05
-1.1193749e-07
-2.820667e-09
1.0923043e-05
-1.33061e-07
-1.5538883e-08
1.0923676e-05
-1.7796952e-07
-3.0803638e-08
1.0908276e-05
-2.5485922e-07
-4.65338e-08
1.0884941e-05
-3.7700605e-07
-5.8571643e-08
1.0931505e-05
-6.2621026e-07
-6.216945e-08
1.1075999e-05
-9.5131545e-07
-4.4160173e-08
1.1300666e-05
-1.3027459e-06
1.5012861e-08
1.1521231e-05
-1.5965725e-06
1.151501e-07
1.1689595e-05
-1.8233271e-06
2.0435853e-07
1.179306e-05
-2.0013874e-06
2.6140133e-07
1.1844219e-05
-2.1509258e-06
2.9410949e-07
1.1871002e-05
-2.2895824e-06
3.1707303e-07
1.1895558e-05
-2.4170342e-06
3.4489247e-07
1.1917746e-05
-2.5147194e-06
3.8957672e-07
1.1921279e-05
-2.5661622e-06
4.5452163e-07
1.1897356e-05
-2.5740369e-06
5.3126248e-07
1.1865805e-05
-2.5624472e-06
6.0934688e-07
1.1876447e-05
-2.5491015e-06
6.8008416e-07
1.1986089e-05
-2.4820701e-06
6.9226764e-07
1.2088449e-05
-2.0340414e-06
4.5739921e-07
-6.7037918e-07
-2.3589749e-07
9.2172032e-06
-2.1675706e-07
1.8700181e-08
9.3164101e-06
-3.2793699e-07
3.428514e-08
9.4481189e-06
-3.511328e-07
4.3169937e-08
9.6190779e-06
-3.5438335e-07
4.6357444e-08
9.8230183e-06
-3.4456838e-07
4.5098902e-08
1.0045303e-05
-3.3023788e-07
3.9254722e-08
1.0275196e-05
-3.2044912e-07
2.7794235e-08
1.0508239e-05
-3.2118486e-07
9.0137011e-09
1.0741948e-05
-3.3861104e-07
-1.8771657e-08
1.0974905e-05
-3.8245383e-07
-5.899616e-08
1.1210682e-05
-4.6640309e-07
-1.151469e-07
1.1460164e-05
-6.1431909e-07
-1.8906977e-07
1.1751684e-05
-8.6885465e-07
-2.7711693e-07
1.208733e-05
-1.3009899e-06
-3.618482e-07
1.2484761e-05
-1.8937033e-06
-4.0236257e-07
1.2806577e-05
-2.3846766e-06
-4.103303e-07
1.2926463e-05
-2.6050106e-06
-4.7267466e-07
1.2862819e-05
-2.6789011e-06
-6.3045258e-07
1.2653129e-05
-2.6656171e-06
-8.6920024e-07
1.2345712e-05
-2.630571e-06
-1.1464361e-06
1.1992459e-05
-2.6257057e-06
-1.4130147e-06
1.1625192e-05
-2.6577424e-06
-1.6258787e-06
1.1243401e-05
-2.6842975e-06
-1.7551458e-06
1.0836215e-05
-2.674364e-06
-1.7893121e-06
1.040797e-05
-2.63954e-06
-1.7309221e-06
9.9976193e-06
-2.665148e-06
-1.5540307e-06
9.780073e-06
-2.868969e-06
-1.2920424e-06
1.0175423e-05
-3.2211199e-06
-1.1729061e-06
1.1717769e-05
-3.383327e-06
-1.4772435e-06
-2.626243e-06
-2.3180036e-06
9.2774142e-06
-2.0708445e-07
1.8969475e-08
9.2550704e-06
-2.7467102e-07
3.4948569e-08
9.2280625e-06
-2.8842423e-07
4.4733003e-08
9.2028445e-06
-2.9072995e-07
4.9127832e-08
9.1873469e-06
-2.8779611e-07
4.9182431e-08
9.1827275e-06
-2.8132081e-07
4.457426e-08
9.1859314e-06
-2.7586276e-07
3.4036759e-08
9.1935357e-06
-2.7618335e-07
1.5657664e-08
9.2027317e-06
-2.8696311e-07
-1.3465316e-08
9.2128432e-06
-3.1623611e-07
-5.7704419e-08
9.2181645e-06
-3.8056026e-07
-1.2443877e-07
9.2098246e-06
-5.0825551e-07
-2.2104005e-07
9.1904916e-06
-7.5665275e-07
-3.5034907e-07
9.1865392e-06
-1.2391239e-06
-4.9674535e-07
9.2118029e-06
-1.9624051e-06
-5.805799e-07
9.0430598e-06
-2.3752588e-06
-5.5459183e-07
8.5913139e-06
-2.2335483e-06
-5.6798501e-07
8.1304734e-06
-2.0104666e-06
-6.8242381e-07
7.6523983e-06
-1.5887026e-06
-8.9978461e-07
7.1250433e-06
-1.1850872e-06
-1.1908981e-06
6.5488947e-06
-9.4036901e-07
-1.4651792e-06
5.9893732e-06
-8.6851709e-07
-1.6212198e-06
5.4891624e-06
-9.163721e-07
-1.6085027e-06
5.1044037e-06
-1.0401277e-06
-1.4198307e-06
4.846974e-06
-1.2451179e-06
-1.0945608e-06
4.6615204e-06
-1.5663542e-06
-6.1416722e-07
4.748684e-06
-2.0239545e-06
-3.620446e-07
5.3706137e-06
-2.5565842e-06
-4.8712846e-07
6.610242e-06
-2.8845453e-06
-1.0329019e-06
-2.1637618e-06
-2.4196551e-06
9.0794127e-06
1.8513275e-08
8.8344253e-06
3.3921813e-08
8.5800431e-06
4.3188011e-08
8.3257356e-06
4.7136991e-08
8.0768404e-06
4.6811739e-08
7.8371589e-06
4.1914924e-08
7.6064845e-06
3.116312e-08
7.3813624e-06
1.2395078e-08
7.1564525e-06
-1.7535341e-08
6.9246066e-06
-6.4126344e-08
6.6698866e-06
-1.3809312e-07
6.3497957e-06
-2.5776332e-07
5.8988563e-06
-4.5506563e-07
5.1797812e-06
-8.0035115e-07
4.1112423e-06
-1.3290125e-06
3.1044024e-06
-1.7315149e-06
2.6693096e-06
-1.4928561e-06
2.5819132e-06
-4.6434253e-07
2.7304143e-06
9.8903362e-07
3.0169125e-06
2.0882507e-06
3.4318107e-06
2.6603737e-06
3.8763709e-06
2.8861409e-06
4.2658107e-06
2.9276117e-06
4.5276346e-06
2.8729748e-06
4.5690973e-06
2.7537945e-06
4.3261359e-06
2.4755103e-06
4.1226159e-06
1.6031122e-06
3.9151433e-06
6.3031134e-07
3.8983796e-06
-7.4921107e-07
-2.7672507e-06
9.5654127e-06
-2.8635658e-07
6.7962863e-09
9.8397202e-06
-2.5798069e-07
1.1906362e-08
1.010874e-05
-2.5058355e-07
1.4496953e-08
1.0339572e-05
-2.1276532e-07
1.5002214e-08
1.0521332e-05
-1.6541722e-07
1.3979652e-08
1.0658715e-05
-1.237662e-07
1.1715232e-08
1.0759453e-05
-9.069775e-08
8.2465359e-09
1.0830365e-05
-6.506545e-08
3.7198417e-09
1.0875259e-05
-4.6170175e-08
-1.4181414e-09
1.0902628e-05
-3.4009395e-08
-8.7779311e-09
1.0920109e-05
-3.1446762e-08
-1.6735759e-08
1.0943381e-05
-4.5517214e-08
-2.4235133e-08
1.1004649e-05
-9.3070714e-08
-2.6822456e-08
1.1206181e-05
-2.4562246e-07
-1.8206594e-08
1.1535303e-05
-3.9106201e-07
1.8191046e-08
1.1855371e-05
-3.8511848e-07
8.1652767e-08
1.2080361e-05
-2.6421839e-07
1.5728419e-07
1.2218111e-05
-1.7299146e-07
2.4370922e-07
1.2315696e-05
-1.761075e-07
3.452062e-07
1.2410469e-05
-2.5706715e-07
4.6289449e-07
1.2527122e-05
-3.9076272e-07
5.9880214e-07
1.2666708e-05
-5.4270164e-07
7.5659315e-07
1.2800213e-05
-6.7376075e-07
9.3932443e-07
1.2890151e-05
-7.7179451e-07
1.146892e-06
1.2927984e-05
-8.580523e-07
1.3634307e-06
1.2929227e-05
-9.2430694e-07
1.5474255e-06
1.2791239e-05
-7.8643663e-07
1.6264247e-06
1.2226687e-05
-2.3570112e-07
1.5232812e-06
1.0533318e-05
1.0163507e-06
1.1384424e-06
3.3857238e-06
4.5412167e-07
9.2100071e-06
-2.1652057e-07
7.8241385e-09
9.298303e-06
-3.2729006e-07
1.5298288e-08
9.4199556e-06
-3.4944552e-07
2.0381136e-08
9.5813573e-06
-3.5064393e-07
2.2838503e-08
9.7752473e-06
-3.3711513e-07
2.2913342e-08
9.9866674e-06
-3.1646663e-07
2.0543542e-08
1.0204942e-05
-2.9643612e-07
1.5268267e-08
1.0423792e-05
-2.8140404e-07
6.5126968e-09
1.0640863e-05
-2.7508266e-07
-6.9221026e-09
1.0858842e-05
-2.8396324e-07
-2.7024617e-08
1.1088063e-05
-3.2169045e-07
-5.4152881e-08
1.1358216e-05
-4.1766771e-07
-8.7164079e-08
1.1733712e-05
-6.2990483e-07
-1.1599769e-07
1.2279579e-05
-1.033856e-06
-1.1980947e-07
1.2949819e-05
-1.3828205e-06
-8.0660425e-08
1.3453598e-05
-1.2566412e-06
-4.1869188e-08
1.3711036e-05
-9.498814e-07
-4.3415479e-08
1.3796976e-05
-8.038755e-07
-8.4266956e-08
1.3747962e-05
-8.4704105e-07
-1.4781982e-07
1.359122e-05
-9.9025316e-07
-2.5494578e-07
1.3366421e-05
-1.1888712e-06
-3.8855962e-07
1.3092347e-05
-1.3817711e-06
-5.1138252e-07
1.2739593e-05
-1.500762e-06
-5.7442148e-07
1.2263112e-05
-1.5402522e-06
-5.4457031e-07
1.1695334e-05
-1.5912667e-06
-4.3280775e-07
1.1275404e-05
-1.7701093e-06
-2.9587585e-07
1.1201654e-05
-1.6966978e-06
-3.2501976e-07
1.1127273e-05
-7.4221818e-07
-6.2190047e-07
1.0798526e-05
1.02238e-06
-1.1107258e-06
3.6429357e-06
-1.7754558e-06
9.2705625e-06
-2.0704394e-07
7.8880072e-09
9.2373883e-06
-2.7463296e-07
1.546277e-08
9.1998548e-06
-2.8803219e-07
2.0850204e-08
9.1640663e-06
-2.8946809e-07
2.3737705e-08
9.1368946e-06
-2.8497435e-07
2.4210706e-08
9.1188568e-06
-2.7586632e-07
2.2009188e-08
9.1061485e-06
-2.6612516e-07
1.6431655e-08
9.093507e-06
-2.5976735e-07
6.6599411e-09
9.0756922e-06
-2.610705e-07
-9.6658129e-09
9.0475927e-06
-2.7735879e-07
-3.6214438e-08
9.0031098e-06
-3.2572943e-07
-7.5927167e-08
8.9438395e-06
-4.4629741e-07
-1.3316437e-07
8.9057394e-06
-7.3933413e-07
-2.0286955e-07
9.0334644e-06
-1.4223563e-06
-2.3589399e-07
9.2867194e-06
-2.024966e-06
-1.9022351e-07
9.1164258e-06
-1.51592e-06
-1.2481836e-07
8.4566237e-06
-7.0712382e-07
-1.526843e-07
7.662652e-06
-4.5020148e-07
-2.4515654e-07
6.8484443e-06
-5.0653612e-07
-4.2985482e-07
5.9938535e-06
-6.1806923e-07
-7.1339935e-07
5.1347704e-06
-7.8499773e-07
-1.0165946e-06
4.3252669e-06
-9.8060951e-07
-1.2212379e-06
3.6029562e-06
-1.1758077e-06
-1.2206333e-06
2.9569131e-06
-1.3837262e-06
-9.3969646e-07
2.3759669e-06
-1.6685713e-06
-4.4358637e-07
2.266812e-06
-2.1804617e-06
-9.5375335e-08
2.9933968e-06
-2.4327469e-06
-3.5406939e-07
4.1372278e-06
-1.2051578e-06
-1.1830762e-06
5.0609177e-06
1.046261e-06
-2.0044745e-06
4.2708846e-06
-2.7016311e-06
9.0727576e-06
7.6609217e-09
8.8171474e-06
1.489599e-08
8.5523821e-06
1.9917937e-08
8.28763e-06
2.2417863e-08
8.0270097e-06
2.2454561e-08
7.7733181e-06
1.9737125e-08
7.5248189e-06
1.3534012e-08
7.274205e-06
3.2385311e-09
7.0118016e-06
-1.6205554e-08
6.7184145e-06
-4.8101309e-08
6.3555176e-06
-1.0092902e-07
5.8435309e-06
-1.9207534e-07
5.0066024e-06
-3.5742625e-07
3.4718544e-06
-6.8716284e-07
1.352578e-06
-1.2269494e-06
-6.8048534e-07
-1.2122521e-06
-1.9633452e-06
-9.2138369e-07
-2.325027e-06
-5.5810023e-07
-1.965568e-06
1.2017197e-07
-1.2395449e-06
7.4424843e-07
-4.8143896e-07
1.1184392e-06
1.6296453e-07
1.2630653e-06
6.036419e-07
1.3130239e-06
7.6672698e-07
1.3288649e-06
5.0736143e-07
1.3486161e-06
-4.0563248e-07
1.211828e-06
-1.2824246e-06
4.4009786e-08
-5.4784844e-07
-1.3448373e-06
2.2674184e-06
-2.5719889e-06
-2.7392141e-06
9.5624674e-06
-2.8664911e-07
-8.246686e-12
9.832967e-06
-2.5847871e-07
-5.2120507e-11
1.0098766e-05
-2.5109431e-07
-1.2778133e-10
1.0327145e-05
-2.1305078e-07
-2.3328955e-10
1.0506801e-05
-1.6525178e-07
-3.2188007e-10
1.0641972e-05
-1.2297421e-07
-3.7023387e-10
1.0739876e-05
-8.9205457e-08
-3.3165336e-10
1.0806778e-05
-6.2944315e-08
-1.1172302e-10
1.0848607e-05
-4.3523427e-08
4.075785e-10
1.0871078e-05
-3.2430423e-08
1.2977746e-09
1.0886179e-05
-3.4278082e-08
2.505976e-09
1.0919334e-05
-6.0965274e-08
3.5145956e-09
1.1026915e-05
-1.3689174e-07
2.1754608e-09
1.134542e-05
-3.3095828e-07
-6.2509758e-09
1.1748118e-05
-3.5314947e-07
-3.151495e-08
1.2076017e-05
-1.8413553e-07
-6.1569744e-08
1.2309351e-05
1.0327623e-08
-8.5862021e-08
1.248198e-05
1.8024729e-07
-1.0853707e-07
1.2630244e-05
3.3062842e-07
-1.3284316e-07
1.2796497e-05
4.5762271e-07
-1.5985801e-07
1.3011548e-05
5.7415572e-07
-1.889825e-07
1.3277466e-05
7.103784e-07
-2.1802147e-07
1.3547367e-05
9.1417941e-07
-2.429005e-07
1.3747165e-05
1.2057055e-06
-2.567533e-07
1.3800087e-05
1.5655798e-06
-2.5348117e-07
1.3603496e-05
1.9766257e-06
-2.3160305e-07
1.2970446e-05
2.4552351e-06
-1.9546358e-07
1.1583102e-05
3.0631424e-06
-1.5266455e-07
8.9233553e-06
3.9038785e-06
-1.0576284e-07
5.4663562e-06
-5.8771747e-08
9.2060615e-06
-2.1654078e-07
6.2126955e-10
9.2887254e-06
-3.2736874e-07
1.5241678e-09
9.4047772e-06
-3.4943129e-07
2.6682934e-09
9.5608601e-06
-3.5031067e-07
4.0201199e-09
9.7491327e-06
-3.3620074e-07
5.597274e-09
9.9538875e-06
-3.1464248e-07
7.4672625e-09
1.0163625e-05
-2.9341413e-07
9.7522509e-09
1.0371645e-05
-2.7709192e-07
1.2653722e-08
1.0574852e-05
-2.6982861e-07
1.6186836e-08
1.0774986e-05
-2.8012469e-07
2.0534774e-08
1.0988297e-05
-3.2737883e-07
2.5599096e-08
1.1265003e-05
-4.5461108e-07
2.9641419e-08
1.1728854e-05
-7.4274431e-07
2.5685997e-08
1.2483674e-05
-1.2142018e-06
8.2376581e-09
1.3163723e-05
-1.0724052e-06
-4.1415461e-08
1.3659617e-05
-6.4754323e-07
-7.4082753e-08
1.4039871e-05
-3.3295369e-07
-7.8770095e-08
1.4354404e-05
-1.3649716e-07
-7.8928352e-08
1.4588629e-05
3.6537874e-08
-8.3126721e-08
1.4811223e-05
6.7685846e-08
-7.9640715e-08
1.5073199e-05
5.8602202e-09
-6.7465761e-08
1.5400746e-05
-5.2929114e-08
-5.0131099e-08
1.5742602e-05
6.7764031e-08
-3.2754759e-08
1.5964383e-05
5.1901805e-07
-3.1526073e-08
1.6003525e-05
1.1936043e-06
-4.1523412e-08
1.5755604e-05
2.028726e-06
-3.1661846e-08
1.4978919e-05
2.9955503e-06
-1.0955518e-08
1.3310146e-05
4.1944658e-06
7.0406165e-10
1.0437177e-05
5.7436788e-06
1.1115883e-08
7.8581561e-06
2.1815269e-08
9.2666644e-06
-2.0702629e-07
6.6684032e-10
9.2277713e-06
-2.74645e-07
1.6291732e-09
9.1842334e-06
-2.8795654e-07
2.9104055e-09
9.1422865e-06
-2.8915426e-07
4.5255021e-09
9.1080357e-06
-2.8428729e-07
6.545469e-09
9.0809637e-06
-2.7467449e-07
9.1109351e-09
9.0558831e-06
-2.643802e-07
1.2476329e-08
9.026132e-06
-2.5764684e-07
1.6964028e-08
8.9826605e-06
-2.5896209e-07
2.2936912e-08
8.9135675e-06
-2.7852695e-07
3.1276945e-08
8.8073145e-06
-3.4022687e-07
4.3164239e-08
8.6672694e-06
-5.066588e-07
5.8901086e-08
8.6030187e-06
-9.5341645e-07
7.2005426e-08
9.147359e-06
-2.0406106e-06
4.6499921e-08
9.2773345e-06
-1.3748699e-06
-1.776552e-08
9.0518137e-06
-4.9250962e-07
-5.6135099e-08
8.6995691e-06
-1.1378773e-07
-2.2617618e-08
8.1322215e-06
1.3905053e-07
4.3760892e-08
7.4266625e-06
1.8593239e-07
1.2434633e-07
6.5700542e-06
8.8775164e-09
2.0021204e-07
5.5085052e-06
-2.1576279e-07
2.6105294e-07
4.4745455e-06
-5.1828324e-07
2.6954535e-07
3.9741327e-06
-8.5057521e-07
1.9021985e-07
4.4551352e-06
-9.9716653e-07
8.8987097e-08
5.9596051e-06
-8.4121003e-07
8.2519432e-08
7.7852649e-06
-5.6509549e-08
1.7037651e-07
9.0374066e-06
1.2044731e-06
2.1923982e-07
9.0625599e-06
2.8812417e-06
1.6534121e-07
7.7235169e-06
5.0800863e-06
8.4021765e-08
8.7200439e-06
1.1945003e-08
9.0689327e-06
6.5118e-10
8.8076012e-06
1.5793507e-09
8.5367382e-06
2.8211755e-09
8.2655896e-06
4.4090649e-09
7.9973118e-06
6.4419749e-09
7.7332446e-06
9.1267865e-09
7.4695394e-06
1.2855948e-08
7.197036e-06
1.8092165e-08
6.8962669e-06
2.5598507e-08
6.5320868e-06
3.7549172e-08
6.0330286e-06
5.7900093e-08
5.2400184e-06
9.4280219e-08
3.7679866e-06
1.6130742e-07
7.6281952e-07
2.7922387e-07
-2.1369603e-06
3.0943164e-07
-4.0176497e-06
1.7326985e-07
-5.2705471e-06
2.1276444e-07
-5.9975841e-06
3.0222368e-07
-6.0725485e-06
3.7585611e-07
-5.6646672e-06
3.4193049e-07
-4.9568911e-06
1.9345724e-07
-4.2224288e-06
9.7683309e-09
-3.6728335e-06
-8.7713459e-08
-3.2034641e-06
-1.3912885e-07
-2.5861588e-06
-1.1295161e-07
-1.420035e-06
-1.5935935e-08
-2.1005858e-07
1.4668731e-08
1.3558997e-06
-3.6931414e-08
3.9792619e-06
-1.3449204e-07
-1.4535818e-07
9.562375e-06
-2.8659331e-07
-6.7767882e-09
9.8328664e-06
-2.5853288e-07
-1.1948517e-08
1.0098743e-05
-2.5126222e-07
-1.4661563e-08
1.0327285e-05
-2.1334419e-07
-1.5335395e-08
1.0507265e-05
-1.6568075e-07
-1.451306e-08
1.0643032e-05
-1.2354163e-07
-1.2478837e-08
1.0741931e-05
-8.9844097e-08
-9.263615e-09
1.0810222e-05
-6.3368261e-08
-4.905573e-09
1.0853824e-05
-4.3258932e-08
2.056148e-10
1.0878123e-05
-3.0423135e-08
7.5698933e-09
1.089312e-05
-2.790183e-08
1.5570537e-08
1.0917765e-05
-4.4127723e-08
2.3190614e-08
1.0993684e-05
-9.9485265e-08
2.6017857e-08
1.1249445e-05
-2.7883602e-07
1.7164395e-08
1.163921e-05
-3.9916972e-07
-2.2007573e-08
1.1983427e-05
-3.1329872e-07
-9.2976773e-08
1.2210923e-05
-1.3128598e-07
-1.8326376e-07
1.23613e-05
1.5359402e-08
-2.7568225e-07
1.2481914e-05
1.1530366e-07
-3.7038329e-07
1.2625633e-05
1.663136e-07
-4.7179014e-07
1.283553e-05
1.8643504e-07
-5.8761534e-07
1.3123478e-05
2.2137097e-07
-7.3021705e-07
1.3451733e-05
3.3828597e-07
-9.1310475e-07
1.3737813e-05
5.9230847e-07
-1.1398609e-06
1.3888348e-05
9.7469994e-07
-1.3849387e-06
1.3781955e-05
1.4581709e-06
-1.5915691e-06
1.3220851e-05
2.0440007e-06
-1.6887656e-06
1.1900693e-05
2.7591771e-06
-1.6038936e-06
9.3200401e-06
3.6992329e-06
-1.2372384e-06
5.3221191e-06
-5.3198418e-07
9.2061639e-06
-2.165045e-07
-6.6645077e-09
9.2889454e-06
-3.2734164e-07
-1.2448881e-08
9.4052066e-06
-3.4944232e-07
-1.5410655e-08
9.5616654e-06
-3.5036006e-07
-1.5417537e-08
9.7506221e-06
-3.3628558e-07
-1.2745895e-08
9.9566289e-06
-3.1469404e-07
-7.3744136e-09
1.0168654e-05
-2.9317238e-07
1.0722124e-09
1.0379701e-05
-2.7604904e-07
1.4309083e-08
1.0587236e-05
-2.668696e-07
3.2288972e-08
1.0793155e-05
-2.724776e-07
5.6703158e-08
1.1010447e-05
-3.0811932e-07
8.8568807e-08
1.1277034e-05
-4.0765308e-07
1.2665197e-07
1.1679684e-05
-6.3947113e-07
1.6315656e-07
1.2308365e-05
-1.0747601e-06
1.7565447e-07
1.3042647e-05
-1.3013266e-06
1.2632269e-07
1.3545511e-05
-9.3786734e-07
4.7265494e-08
1.3885362e-05
-5.7747592e-07
2.7008199e-08
1.4122173e-05
-3.7399064e-07
7.1122824e-08
1.428853e-05
-3.0614745e-07
1.6675224e-07
1.440453e-05
-3.397864e-07
3.0083041e-07
1.4538469e-05
-4.9291593e-07
4.6119624e-07
1.473914e-05
-6.5673991e-07
5.9977022e-07
1.5045227e-05
-6.9372837e-07
6.519605e-07
1.5430281e-05
-4.6509194e-07
5.8677552e-07
1.5775998e-05
8.7111985e-08
4.4142754e-07
1.5730433e-05
1.1235034e-06
2.9428966e-07
1.5063644e-05
2.3372375e-06
3.2152107e-07
1.3475833e-05
3.7352931e-06
5.9093864e-07
1.0642484e-05
5.4459507e-06
1.0986037e-06
7.6611852e-06
1.8129789e-06
9.2667688e-06
-2.0701029e-07
-6.6384835e-09
9.2280885e-06
-2.7462544e-07
-1.2409722e-08
9.1849185e-06
-2.8793849e-07
-1.5426272e-08
9.1436147e-06
-2.8913136e-07
-1.5402072e-08
9.1105167e-06
-2.8423868e-07
-1.2405869e-08
9.0856784e-06
-2.7452087e-07
-6.225974e-09
9.0645281e-06
-2.6384075e-07
4.2935089e-09
9.0408717e-06
-2.5623039e-07
2.0800853e-08
9.0079838e-06
-2.5564635e-07
4.460154e-08
8.9579392e-06
-2.7003551e-07
7.8880512e-08
8.88338e-06
-3.1802444e-07
1.2763194e-07
8.7859823e-06
-4.4621393e-07
1.9486837e-07
8.7175462e-06
-7.7852502e-07
2.7951231e-07
8.9200082e-06
-1.5896145e-06
3.5883229e-07
9.3522548e-06
-2.0912355e-06
3.3955752e-07
9.0233882e-06
-8.5158321e-07
1.8731137e-07
8.6537422e-06
-4.2577328e-07
1.9733821e-07
8.1252244e-06
-1.1390728e-07
3.1511065e-07
7.4527333e-06
-4.7403719e-08
5.4163423e-07
6.6315902e-06
-1.5970541e-07
8.4535335e-07
5.6560839e-06
-4.093381e-07
1.1577558e-06
4.64718e-06
-7.3081044e-07
1.3573168e-06
3.9191156e-06
-1.0830466e-06
1.3135392e-06
3.9543252e-06
-1.3603279e-06
9.5814652e-07
5.1776425e-06
-1.4393219e-06
3.9208568e-07
7.1943275e-06
-8.3157271e-07
1.077224e-07
8.7340087e-06
6.4682995e-07
3.6491458e-07
8.9165056e-06
2.569563e-06
1.1446679e-06
7.5422049e-06
4.9259813e-06
1.9872981e-06
8.5734757e-06
2.7383128e-06
9.0690284e-06
-6.4383271e-09
8.80791e-06
-1.1930738e-08
8.5374465e-06
-1.4657004e-08
8.2670367e-06
-1.4315594e-08
8.0001802e-06
-1.0943301e-08
7.7391368e-06
-4.3537584e-09
7.4807796e-06
7.3693726e-09
7.2170494e-06
2.5589091e-08
6.9341938e-06
5.2804912e-08
6.6075422e-06
9.4162632e-08
6.1887466e-06
1.5866858e-07
5.5735448e-06
2.6326387e-07
4.5126015e-06
4.4369464e-07
2.4170491e-06
7.848346e-07
-6.9384738e-07
1.3276187e-06
-2.8972923e-06
1.5265767e-06
-4.4134606e-06
1.3065402e-06
-5.2874919e-06
1.0668637e-06
-5.47484e-06
5.2122933e-07
-4.9237773e-06
-3.6311163e-07
-4.0888134e-06
-1.0479789e-06
-3.3231337e-06
-1.4866961e-06
-2.7824351e-06
-1.712629e-06
-2.4376948e-06
-1.8463392e-06
-2.1010459e-06
-1.8912587e-06
-1.4597282e-06
-1.4883429e-06
-4.1773886e-07
-3.9450168e-07
1.14781e-06
9.3170538e-07
3.5130786e-06
2.332002e-06
2.5162989e-06
9.5652247e-06
-2.8614505e-07
-1.6844299e-08
9.8395563e-06
-2.5801517e-07
-2.8204036e-08
1.010878e-05
-2.5084293e-07
-3.2962471e-08
1.0339976e-05
-2.1323375e-07
-3.3202986e-08
1.052228e-05
-1.6609358e-07
-3.0616192e-08
1.0660401e-05
-1.2463091e-07
-2.585231e-08
1.0762082e-05
-9.1721927e-08
-1.909583e-08
1.083431e-05
-6.6259523e-08
-1.0742653e-08
1.08805e-05
-4.7220282e-08
1.3556234e-09
1.0908854e-05
-3.389358e-08
1.3233288e-08
1.0925299e-05
-2.8584588e-08
2.7845342e-08
1.0942177e-05
-3.6583491e-08
4.3053833e-08
1.0984932e-05
-7.182789e-08
5.5309208e-08
1.1147506e-05
-2.0698715e-07
6.1893014e-08
1.1448949e-05
-3.7601025e-07
5.2756249e-08
1.1789006e-05
-4.4389997e-07
1.0411009e-08
1.2047777e-05
-3.7566933e-07
-6.7924333e-08
1.2217105e-05
-2.8901354e-07
-1.58622e-07
1.2332058e-05
-2.7816939e-07
-2.1077601e-07
1.2432043e-05
-3.4493391e-07
-2.3149973e-07
1.254418e-05
-4.685575e-07
-2.3699345e-07
1.2678518e-05
-6.2491816e-07
-2.4652623e-07
1.2823381e-05
-7.8855243e-07
-2.7709304e-07
1.2954893e-05
-9.4127305e-07
-3.3789981e-07
1.3062731e-05
-1.0719078e-06
-4.2782999e-07
1.3126318e-05
-1.1186566e-06
-5.4124318e-07
1.3024573e-05
-9.2925484e-07