/*--------------------------------*- C++ -*----------------------------------*\
| =========                 |                                                 |
| \\      /  F ield         | OpenFOAM: The Open Source CFD Toolbox           |
|  \\    /   O peration     | Version:  v2012                                 |
|   \\  /    A nd           | Website:  www.openfoam.com                      |
|    \\/     M anipulation  |                                                 |
\*---------------------------------------------------------------------------*/
FoamFile
{
    version     2.0;
    format      ascii;
    class       volScalarField;
    location    "310/topAir";
    object      T;
}
// * * * * * * * * * * * * * * * * * * * * * * * * * * * * * * * * * * * * * //

dimensions      [0 0 0 1 0 0 0];


internalField   nonuniform List<scalar> 
1200
(
322.20609
342.77577
361.38993
378.56031
394.72215
410.14755
424.96392
439.11103
452.24567
464.34345
475.31018
484.96828
492.93517
494.43939
493.86851
491.13113
486.65027
481.24554
475.75461
470.76701
466.58234
463.30844
460.9628
459.53795
459.02458
459.42929
460.81646
463.4072
467.75543
474.6454
300.47877
301.383
302.62226
304.14259
305.9057
307.88275
310.04726
312.45736
315.78274
320.24542
326.51427
335.17763
346.50691
359.19067
371.92449
383.37145
392.8376
400.16516
405.41233
408.73549
410.47625
411.15753
411.33416
411.49273
412.02538
413.28613
415.71162
420.0127
427.52448
439.70754
300.01064
300.04075
300.09664
300.18383
300.30701
300.47029
300.67699
300.93174
301.25426
301.66761
302.23095
303.82252
308.23974
316.50325
327.94253
341.25319
354.94424
367.63873
378.63768
387.56486
394.34528
399.1983
402.53871
404.84857
406.58621
408.16229
409.97731
412.54182
416.7807
424.15812
300.00025
300.00124
300.00364
300.00834
300.01648
300.02945
300.04888
300.07678
300.11609
300.17125
300.25237
300.4187
300.94152
303.85456
312.16009
324.23522
337.13292
349.60007
361.11891
371.29943
379.86344
386.73616
392.06425
396.13314
399.27187
401.79871
404.02192
406.29706
409.20598
413.73596
322.1986
342.54385
360.72325
377.25036
392.52819
406.77517
420.06425
432.35423
443.4941
453.21439
461.14771
466.85528
469.80986
464.77987
457.29949
448.40667
439.73011
432.63439
427.55171
424.18035
421.98052
420.57244
419.80351
419.68639
420.27988
421.64554
423.9081
427.47058
433.41321
442.79795
300.47808
301.36523
302.55725
303.99036
305.61591
307.39334
309.282
311.23492
313.19757
315.09713
316.84233
318.31567
319.38281
319.82656
319.72552
319.52563
319.86896
321.10452
323.07676
325.4674
328.07911
330.90622
334.00465
337.45001
341.30307
345.60289
350.36082
355.52402
361.18622
370.06058
300.0106
300.0399
300.09289
300.17337
300.28401
300.42649
300.60135
300.80767
301.04292
301.30181
301.5755
301.86811
302.18922
302.50805
303.20396
305.02509
308.82251
314.71451
321.56898
328.24783
334.17999
340.00747
345.7476
351.46919
357.13801
363.02595
369.33156
376.03349
383.22406
391.10169
300.00025
300.00121
300.00344
300.00769
300.01479
300.0257
300.04146
300.06318
300.09202
300.12929
300.17701
300.24308
300.37365
300.9076
303.08731
308.87286
318.70434
330.85982
343.39004
355.11234
365.22595
373.05802
379.35908
384.6579
389.24156
392.98649
396.11354
398.90984
401.72919
404.85703
322.19131
342.57089
360.80144
377.39482
392.76042
407.12561
420.59648
433.21796
444.9542
455.67591
465.14668
472.9954
478.52379
475.03361
468.11671
458.50627
448.03738
438.06058
429.25255
421.84028
415.81576
411.16206
407.95152
406.26671
406.08026
407.22091
409.50823
412.99422
418.69934
430.01925
300.47801
301.36795
302.56518
304.00505
305.63933
307.42942
309.33999
311.33474
313.37055
315.38827
317.30413
318.99299
320.25932
320.74236
320.39932
319.87418
319.86238
320.50041
321.80627
323.73459
326.24957
329.42374
333.40114
338.25568
343.91578
350.25292
357.26202
364.8305
373.24706
384.0498
300.0106
300.04002
300.09329
300.17413
300.28511
300.42783
300.60287
300.80967
301.04603
301.30716
301.58337
301.85688
302.09677
302.28244
302.83203
305.10491
308.93163
312.96956
317.26529
321.83346
326.76384
332.52532
339.53191
347.67761
356.38369
364.92804
373.08365
380.67769
388.28627
398.14038
300.00025
300.00121
300.00346
300.00772
300.01482
300.02568
300.04128
300.06264
300.09078
300.12669
300.17124
300.22566
300.29951
300.54226
302.72262
310.93641
321.16843
326.89774
335.2552
345.88966
356.06867
364.50329
371.38727
377.14934
382.12122
386.40692
390.18053
393.58846
399.06742
409.90449
322.18343
342.56918
360.82641
377.47169
392.92947
407.4553
421.20039
434.26085
446.68989
458.50209
469.63926
479.90634
488.64855
488.10325
485.77209
483.96411
483.89393
485.00232
486.06744
486.24171
485.10362
482.70971
479.53233
476.08473
472.64382
469.53753
468.23918
471.46042
478.49363
488.82825
300.47788
301.36863
302.56908
304.01586
305.66285
307.47539
309.42489
311.48542
313.62946
315.82016
317.99541
320.03484
321.70129
322.55918
322.96214
323.84955
325.1965
326.75863
328.43892
330.32358
332.6286
335.6438
339.61172
344.55374
350.31292
356.91338
364.59296
372.87835
388.73177
418.36481
300.0106
300.04006
300.09352
300.17485
300.28681
300.43134
300.60963
300.82207
301.06794
301.34447
301.64406
301.9476
302.21488
302.49316
304.35757
308.67691
312.1853
314.85549
317.6555
321.22453
326.17507
333.03886
342.01533
352.41972
363.01589
373.51835
384.22916
392.32136
400.18823
415.87903
300.00025
300.00121
300.00347
300.00777
300.01494
300.02595
300.04183
300.06371
300.09279
300.13032
300.17769
300.23764
300.34161
301.05435
309.61026
330.06433
343.76705
344.13456
343.41987
348.37415
355.43025
362.49817
369.0725
374.39685
379.40872
385.64246
395.47693
404.61073
413.61903
422.59256
322.17223
342.55205
360.80876
377.45804
392.9253
407.46847
421.2406
434.3393
446.81946
458.67983
469.82725
479.95701
488.16364
485.17184
482.41709
482.36408
485.13232
488.90774
493.23057
497.75801
502.17812
506.19561
509.56768
512.13285
513.83937
514.82526
515.64005
517.39698
521.4705
529.68348
300.47766
301.36843
302.56973
304.01858
305.66928
307.48783
309.44657
311.52057
313.68302
315.89487
318.08214
320.08702
321.59811
322.2319
323.31693
324.92929
326.92239
330.81699
336.22248
342.59117
349.63523
357.23766
366.05433
376.31449
388.04897
401.04746
415.22463
430.99797
449.68861
474.30789
300.0106
300.04007
300.09359
300.17512
300.28748
300.43275
300.61226
300.82663
301.07541
301.35576
301.65864
301.95875
302.2094
302.74488
307.31828
310.69231
312.65565
314.2396
316.11054
318.48671
322.71607
329.98402
340.6081
353.39652
365.3046
375.27371
385.98591
399.24383
417.36055
443.24975
300.00025
300.00121
300.00348
300.00779
300.015
300.02608
300.04212
300.06428
300.09385
300.13228
300.18139
300.247
300.4194
302.45261
332.02122
350.93338
354.88025
356.75063
359.20806
362.39892
366.11692
370.63565
375.43719
380.15487
384.69735
389.15259
393.43705
400.77231
414.63979
430.81974
322.15954
342.52726
360.77192
377.40882
392.86329
407.39259
421.15014
434.23542
446.70815
458.58199
469.7978
480.13296
488.81117
486.3816
482.87376
481.26617
482.68307
486.70696
491.22781
495.92571
500.51279
504.70303
508.22016
510.83878
512.47952
513.34396
514.06352
515.74738
519.82299
528.15959
300.47739
301.36763
302.56816
304.01599
305.66538
307.4823
309.43921
311.51155
313.67384
315.89099
318.09975
320.16844
321.82667
322.60835
323.21897
324.50581
326.20744
328.33532
331.64087
335.52056
339.63977
344.35637
350.74435
359.9443
372.23429
386.93454
403.722
422.57569
444.3391
471.51613
300.01059
300.04004
300.09353
300.175
300.28727
300.43239
300.6117
300.8258
301.07433
301.35487
301.65981
301.96824
302.23578
302.57134
305.4226
309.74095
312.68873
314.42306
316.04051
318.45689
322.58479
329.25362
338.67398
349.42064
359.38987
368.44741
378.68976
393.09216
413.39518
441.98336
300.00025
300.00121
300.00348
300.00778
300.01498
300.02605
300.04206
300.06417
300.09363
300.13183
300.1804
300.24318
300.36664
301.36263
314.5731
345.61839
351.71968
354.27553
356.32452
358.36311
361.55283
366.3103
371.54891
376.97333
382.35443
387.60201
390.76992
398.92697
415.31354
429.69679
322.14806
342.50045
360.72528
377.33861
392.76411
407.25672
420.96708
433.9909
446.38707
458.18216
469.34098
479.71722
488.74616
488.70168
486.50195
483.97813
482.8557
483.11025
483.71493
483.82467
482.94892
480.91313
477.83562
474.02629
469.91618
466.37961
465.05625
468.13089
475.55275
486.19718
300.47713
301.36642
302.5648
304.00889
305.65255
307.4611
309.40601
311.46166
313.60141
315.79155
317.9779
320.05748
321.82341
322.8354
323.13773
323.66713
324.76531
326.16584
327.70885
329.40536
331.38912
333.88025
337.15259
341.41375
346.76582
353.33777
360.87051
368.9717
383.75039
413.25973
300.01059
300.04
300.09336
300.17453
300.28624
300.43041
300.60821
300.81999
301.0651
301.34104
301.64124
301.94962
302.23087
302.47575
303.47633
307.06099
311.22135
314.36093
317.15518
320.29788
324.49652
330.25557
337.9233
347.20547
357.75963
370.09738
381.43277
389.67593
398.00921
414.42889
300.00025
300.00121
300.00347
300.00775
300.0149
300.02588
300.0417
300.06348
300.09236
300.12956
300.17636
300.23486
300.32312
300.72663
304.89815
320.74068
339.22159
342.66243
341.59343
344.05244
351.55932
360.08973
366.69721
372.77781
378.89801
387.83872
396.84114
404.92326
414.66304
422.97057
322.13853
342.46877
360.65261
377.20023
392.5196
406.83685
420.25689
432.82553
444.51039
455.18955
464.64825
472.55305
478.26738
475.17462
468.74236
459.33689
448.68577
438.40993
429.36868
421.86601
415.85776
411.18217
407.74626
405.5658
404.68742
405.10216
406.75381
409.7187
414.91266
425.35893
300.47688
301.36467
302.55888
303.99486
305.62435
307.40868
309.31251
311.29977
313.32819
315.34144
317.26263
318.97701
320.3074
320.90743
320.64764
319.97985
319.71481
320.12951
321.23507
322.96832
325.23681
328.03375
331.47871
335.73219
340.90294
347.04065
354.15408
362.13614
371.1298
382.44841
300.01058
300.03992
300.09305
300.17367
300.28429
300.42648
300.60079
300.80661
301.04183
301.3019
301.57781
301.85375
302.10198
302.29173
302.6243
304.2007
307.64985
311.64952
315.83893
320.26112
324.86835
329.9589
336.04994
343.3926
351.87554
361.04166
370.21555
378.91683
387.80025
399.17929
300.00025
300.00121
300.00345
300.0077
300.01477
300.02558
300.04109
300.0623
300.09018
300.12569
300.16961
300.22301
300.29208
300.45985
301.632
307.27681
317.5147
324.56526
331.8857
342.14911
352.69264
361.80214
369.26577
375.47307
380.83873
385.60894
389.78841
393.55394
399.68429
412.87199
322.13418
342.42087
360.54667
377.02259
392.24956
406.44532
419.6833
431.92458
443.02124
452.71484
460.64875
466.40454
469.48955
464.73096
457.58419
448.91266
440.18142
432.81801
427.43895
423.89484
421.68495
420.36219
419.66103
419.49402
419.87649
420.87991
422.67707
425.69413
430.97324
440.00087
300.47671
301.3613
302.54978
303.97843
305.59857
307.36965
309.25113
311.19628
313.15172
315.04725
316.79349
318.27998
319.38234
319.89206
319.85345
319.62861
319.81193
320.83502
322.62618
324.88512
327.37086
330.03045
332.89782
336.05845
339.62348
343.70345
348.36217
353.58997
359.50718
367.99391
300.01057
300.03978
300.09261
300.17282
300.28303
300.42488
300.59886
300.80397
301.03768
301.29482
301.56707
301.85976
302.18566
302.51493
303.14474
304.73809
308.09718
313.59773
320.25201
326.97863
333.02082
338.8476
344.62332
350.42335
356.17259
361.98904
368.28488
375.09487
382.43964
390.43446
300.00025
300.0012
300.00343
300.00766
300.01473
300.02557
300.04122
300.06273
300.09122
300.12794
300.17476
300.23902
300.36277
300.85763
302.83953
308.0959
317.36538
329.03647
341.20611
352.80782
363.06293
371.23085
377.73173
383.14789
387.85835
391.91196
395.26377
398.21902
401.13438
404.34718
322.13559
342.64082
361.19564
378.30896
394.41237
409.77778
424.53504
438.6314
451.72067
463.78124
474.72251
484.37301
492.36236
493.96222
493.53589
490.95352
486.56761
481.16347
475.60338
470.52869
466.27847
462.96654
460.58524
459.08728
458.43287
458.61971
459.72542
461.98462
465.9463
472.44054
300.47727
301.37865
302.61392
304.12915
305.886
307.8556
310.01143
312.40327
315.7045
320.13322
326.36187
334.96447
346.23559
358.88285
371.59841
382.99216
392.32788
399.492
404.62484
407.92493
409.70383
410.4253
410.59687
410.68584
411.09928
412.22378
414.51568
418.6631
425.94116
437.78907
300.01061
300.04062
300.09633
300.18319
300.30587
300.46841
300.67403
300.9271
301.24718
301.6572
302.21721
303.82267
308.23472
316.40462
327.74989
340.90078
354.44034
366.94733
377.7746
386.60469
393.37777
398.28263
401.68899
404.04377
405.79099
407.34443
409.11443
411.60391
415.68709
422.73899
300.00025
300.00124
300.00363
300.00831
300.01641
300.0293
300.04858
300.07621
300.11503
300.16934
300.24885
300.41059
300.9056
303.68017
311.60581
323.39292
336.14997
348.46452
359.82475
369.90991
378.48047
385.44597
390.90747
395.10924
398.35844
400.96813
403.24635
405.54476
408.41647
412.77255
)
;

boundaryField
{
    maxY
    {
        type            zeroGradient;
    }
    minX
    {
        type            fixedValue;
        value           uniform 300;
    }
    maxX
    {
        type            inletOutlet;
        inletValue      uniform 300;
        value           nonuniform List<scalar> 
40
(
474.58511
439.60544
424.11836
413.71595
442.71069
369.92607
391.00208
404.81299
429.95678
383.96037
398.1388
410.35272
488.69791
417.37936
415.71327
424.20239
529.56895
472.88475
441.5642
429.37409
528.32444
471.15995
441.37926
427.74451
486.33886
412.7837
414.8145
424.88513
425.33834
382.54513
399.31881
413.39622
439.93314
367.93727
390.42402
404.38222
472.42049
437.74659
422.75072
412.79356
)
;
    }
    minZ
    {
        type            zeroGradient;
    }
    maxZ
    {
        type            zeroGradient;
    }
    topAir_to_rightSolid
    {
        type            compressible::turbulentTemperatureCoupledBaffleMixed;
        refValue        nonuniform List<scalar> 
130
(
734.31577
741.8868
749.80653
757.66938
765.17267
772.08941
778.2915
783.71893
788.35107
792.07653
794.85835
796.70943
797.6342
728.82545
737.66941
746.70101
755.45298
763.62225
771.02101
777.55742
783.20247
787.96564
791.76758
794.59905
796.48083
797.42514
717.74375
729.50249
740.91523
751.45452
760.90683
769.19135
776.31371
782.32274
787.28735
791.22714
794.14383
796.07276
797.03922
701.10569
718.38986
733.65511
746.73407
757.83533
767.18353
774.96664
781.38023
786.57206
790.65323
793.65908
795.63982
796.63302
681.50937
707.87603
727.67789
743.16721
755.61108
765.7182
773.94955
780.62956
785.97775
790.15062
793.21422
795.23001
796.23861
681.41904
707.76841
727.54476
743.00406
755.39748
765.4625
773.66089
780.31131
785.63612
789.78832
792.84767
794.8629
795.87253
700.81142
718.04731
733.23932
746.24373
757.22636
766.44589
774.12866
780.46082
785.58841
789.62672
792.61224
794.58135
795.56447
717.14978
728.8438
740.17411
750.61317
759.93118
768.06802
775.04589
780.93151
785.76784
789.61811
792.49049
794.40118
795.3595
728.04784
736.80461
745.7438
754.38011
762.40946
769.65755
776.02297
781.49159
786.0586
789.71374
792.47466
794.31991
795.24768
733.45588
740.9397
748.75553
756.49135
763.84215
770.60485
776.62714
781.84459
786.2359
789.78665
792.47956
794.28043
795.18595
)
;
        refGradient     uniform 0;
        valueFraction   uniform 0.99967867;
        value           nonuniform List<scalar> 
130
(
734.23445
741.80128
749.71686
757.57584
765.07567
771.98943
778.18906
783.61459
788.24536
791.97008
794.75183
796.60371
797.5304
728.73028
737.56976
746.59737
755.34582
763.51201
770.90815
777.44242
783.08584
787.84791
791.64935
794.48105
796.36413
797.31117
717.65387
729.406
740.81269
751.34665
760.79443
769.07526
776.19479
782.20183
787.1652
791.10445
794.02132
795.95146
796.92126
701.03622
718.31518
733.57557
746.64996
757.74688
767.09104
774.87055
781.28096
786.47011
790.54951
793.55539
795.53789
796.53407
681.44748
707.80705
727.604
743.08976
755.53093
765.63588
773.86541
780.54383
785.89062
790.06241
793.1256
795.14204
796.15292
681.35648
707.69884
727.47035
742.92616
755.31694
765.37986
773.57647
780.22529
785.54868
789.69978
792.75871
794.7746
795.78656
700.74148
717.97203
733.1592
746.15916
757.13761
766.3532
774.03227
780.36107
785.48586
789.52243
792.50795
794.47892
795.46511
717.06022
728.74757
740.07184
750.50561
759.81912
767.95224
774.92716
780.8106
785.6455
789.49506
792.36747
794.27921
795.2406
727.95298
736.7052
745.64038
754.27321
762.29955
769.54508
775.9084
781.37538
785.94124
789.59578
792.35678
794.20312
795.13351
733.37481
740.85444
748.66612
756.39809
763.74546
770.50523
776.5251
781.74066
786.13062
789.68058
792.37335
794.17492
795.08223
)
;
        Tnbr            T;
        thicknessLayers List<scalar> 0();
        kappaLayers     List<scalar> 0();
        kappaMethod     fluidThermo;
        kappa           none;
        alphaAni        none;
        alpha           none;
        field           T;
    }
    topAir_to_heater
    {
        type            compressible::turbulentTemperatureCoupledBaffleMixed;
        refValue        nonuniform List<scalar> 
40
(
716.16564
718.14329
722.02478
727.54259
707.3187
709.65689
714.23215
720.78661
688.68148
691.6891
697.7367
706.65163
658.18648
661.95774
670.08985
683.2175
613.48646
616.92356
625.9848
644.26084
613.35508
616.81324
625.89579
644.18194
657.74039
661.57229
669.76634
682.92663
688.17388
691.14663
697.18273
706.08504
706.76725
709.0473
713.57208
720.07254
715.56693
717.51599
721.32366
726.76215
)
;
        refGradient     uniform 0;
        valueFraction   uniform 0.99967867;
        value           nonuniform List<scalar> 
40
(
716.09439
718.07122
721.95059
727.46518
707.24076
709.5758
714.14674
720.6963
688.61283
691.61726
697.65983
706.56853
658.13182
661.90112
670.03003
683.15344
613.44523
616.88034
625.93865
644.2097
613.31427
616.7702
625.84932
644.13005
657.68607
661.51603
669.70665
682.86235
688.10544
691.07517
697.1063
706.00234
706.68948
708.9665
713.48703
719.9826
715.49572
717.44402
721.24963
726.68497
)
;
        Tnbr            T;
        thicknessLayers List<scalar> 0();
        kappaLayers     List<scalar> 0();
        kappaMethod     fluidThermo;
        kappa           none;
        alphaAni        none;
        alpha           none;
        field           T;
    }
    topAir_to_leftSolid
    {
        type            compressible::turbulentTemperatureCoupledBaffleMixed;
        refValue        nonuniform List<scalar> 
130
(
845.15669
845.08112
844.9508
844.76916
844.58961
844.41001
844.22139
844.01962
843.80431
843.58421
843.3732
843.19398
843.07947
845.09965
845.03124
844.90626
844.72882
844.52501
844.32058
844.10984
843.88733
843.65173
843.4029
843.16081
842.94752
842.81788
844.97384
844.91428
844.79405
844.61842
844.39039
844.13255
843.87842
843.61436
843.33008
843.03451
842.74271
842.48836
842.36601
844.77927
844.71774
844.5937
844.4051
844.15592
843.85708
843.54449
843.22903
842.88331
842.50291
842.14893
841.89639
841.75038
844.51466
844.44923
844.31152
844.10255
843.83497
843.52123
843.17561
842.81104
842.39661
841.95928
841.59516
841.31518
841.1486
844.19971
844.12891
843.98013
843.76643
843.50765
843.19732
842.85151
842.47306
842.0515
841.63179
841.28561
841.01725
840.83946
843.89775
843.82127
843.66969
843.47427
843.22796
842.9336
842.61908
842.28991
841.95489
841.6257
841.32574
841.09341
840.94144
843.65944
843.58494
843.44795
843.26282
843.03071
842.76555
842.4887
842.21638
841.95846
841.73
841.53746
841.38392
841.29035
843.49172
843.43123
843.30684
843.11958
842.88886
842.65062
842.41262
842.19493
842.00068
841.83608
841.69474
841.57354
841.49851
843.39792
843.3411
843.22332
843.04095
842.81444
842.59514
842.38952
842.2077
842.04928
841.91355
841.79077
841.67992
841.60315
)
;
        refGradient     uniform 0;
        valueFraction   uniform 0.99967867;
        value           nonuniform List<scalar> 
130
(
844.98865
844.91971
844.79542
844.61935
844.44506
844.27047
844.08667
843.88951
843.67849
843.46235
843.25493
843.07887
842.96696
844.93163
844.86978
844.75068
844.57861
844.37977
844.17998
843.97358
843.75509
843.52315
843.27752
843.03806
842.82668
842.69802
844.80586
844.75286
844.63853
844.46828
844.24527
843.99212
843.74241
843.48249
843.20207
842.91004
842.62138
842.36963
842.2491
844.61134
844.55638
844.43826
844.25506
844.01093
843.71685
843.40877
843.09762
842.756
842.37952
842.02923
841.78007
841.63692
844.34682
844.28796
844.15616
843.95261
843.69008
843.38112
843.04003
842.67978
842.2695
841.83612
841.4757
841.19907
841.03518
844.03197
843.96774
843.82487
843.61657
843.36285
843.05728
842.716
842.34188
841.92447
841.5087
841.16624
840.90129
840.72634
843.7301
843.66018
843.51451
843.32449
843.08322
842.7936
842.48359
842.15872
841.82779
841.50249
841.20621
840.97729
840.82827
843.49186
843.42392
843.29282
843.11306
842.88595
842.62548
842.35303
842.08483
841.83075
841.60579
841.41635
841.2654
841.1737
843.32419
843.27025
843.15171
842.96981
842.74405
842.51045
842.27679
842.0631
841.87248
841.71105
841.5723
841.45298
841.37897
843.23042
843.18021
843.06843
842.89162
842.67036
842.45607
842.25525
842.07802
841.92386
841.79204
841.67282
841.5651
841.49093
)
;
        Tnbr            T;
        thicknessLayers List<scalar> 0();
        kappaLayers     List<scalar> 0();
        kappaMethod     fluidThermo;
        kappa           none;
        alphaAni        none;
        alpha           none;
        field           T;
    }
}


// ************************************************************************* //
