/*--------------------------------*- C++ -*----------------------------------*\
| =========                 |                                                 |
| \\      /  F ield         | OpenFOAM: The Open Source CFD Toolbox           |
|  \\    /   O peration     | Version:  v2012                                 |
|   \\  /    A nd           | Website:  www.openfoam.com                      |
|    \\/     M anipulation  |                                                 |
\*---------------------------------------------------------------------------*/
FoamFile
{
    version     2.0;
    format      ascii;
    class       volVectorField;
    location    "310/topAir";
    object      U;
}
// * * * * * * * * * * * * * * * * * * * * * * * * * * * * * * * * * * * * * //

dimensions      [0 1 -1 0 0 0 0];


internalField   nonuniform List<vector> 
1200
(
(0.10386689 -0.0022697176 0.00087192118)
(0.11622548 -0.002400429 0.001308045)
(0.12686133 -0.0022501645 0.0013944196)
(0.13512693 -0.0017782571 0.0012736633)
(0.14232032 -0.0010408399 0.00096269783)
(0.14902918 -0.00019452171 0.00042392989)
(0.15545937 0.00067385195 -0.00037246157)
(0.16187503 0.001490616 -0.0015330064)
(0.1684362 0.0023234978 -0.0032939407)
(0.17541854 0.003335555 -0.0059394116)
(0.18301102 0.0048021839 -0.0098301726)
(0.19099618 0.0070895922 -0.015361152)
(0.19817196 0.010618464 -0.022824248)
(0.20318065 0.015028828 -0.032191576)
(0.20585076 0.020143051 -0.042910643)
(0.20661765 0.025208253 -0.053960791)
(0.20581647 0.029596893 -0.064155629)
(0.20368905 0.033009231 -0.072617355)
(0.20054499 0.035337042 -0.079001884)
(0.19691728 0.036552637 -0.08337957)
(0.19351307 0.036740639 -0.086023218)
(0.1909622 0.036129834 -0.087234156)
(0.18958745 0.034996193 -0.087264188)
(0.18935956 0.033591099 -0.086305052)
(0.18996835 0.032125286 -0.084489042)
(0.19085206 0.030832972 -0.081838038)
(0.19101657 0.030114639 -0.078155792)
(0.18855793 0.030815462 -0.072912885)
(0.18010386 0.034913291 -0.065175318)
(0.13769335 0.048545088 -0.052842128)
(0.098703267 -0.0036194677 0.00085178278)
(0.098439557 -0.0044513994 0.0012888882)
(0.098711574 -0.004558479 0.0014775577)
(0.099359367 -0.004164274 0.0015713801)
(0.10049068 -0.0034453073 0.0015998384)
(0.10214167 -0.0026291284 0.001551019)
(0.10428615 -0.0018578258 0.0014051581)
(0.10699378 -0.0012499215 0.0011184467)
(0.11074213 -0.00052629918 0.00058377791)
(0.11595606 0.00065111004 -0.00036403357)
(0.12344036 0.0029818708 -0.0019945637)
(0.13367818 0.0074843024 -0.0046822543)
(0.1465042 0.015115812 -0.0089212226)
(0.160431 0.025240506 -0.014967458)
(0.17354907 0.037151999 -0.022545014)
(0.18435278 0.049252219 -0.030727224)
(0.1919334 0.060357035 -0.038442976)
(0.19596211 0.069870075 -0.045032616)
(0.19677589 0.07727832 -0.050326084)
(0.1953426 0.082171217 -0.054386042)
(0.19293713 0.084522655 -0.057304629)
(0.19061197 0.084811959 -0.059106183)
(0.18890428 0.083686646 -0.059819543)
(0.1879188 0.08172641 -0.059513331)
(0.18750285 0.0793383 -0.058250403)
(0.18731855 0.076908082 -0.055945129)
(0.18668667 0.075147866 -0.052182967)
(0.18427774 0.075616083 -0.045973919)
(0.17878959 0.081601328 -0.035187607)
(0.14926687 0.098219963 -0.015200454)
(0.098849004 -0.0028053469 0.00087793647)
(0.098075458 -0.004071559 0.001335586)
(0.096515842 -0.0044732914 0.001544193)
(0.094505701 -0.004561776 0.001673034)
(0.09250346 -0.004519261 0.0017744986)
(0.090691464 -0.0044258058 0.0018604194)
(0.089066503 -0.0043707454 0.001945742)
(0.087555751 -0.0044476258 0.0020622411)
(0.086172908 -0.0044909381 0.0022725811)
(0.085157565 -0.0044089127 0.0026221331)
(0.084965484 -0.0039793593 0.0030619301)
(0.087200366 -0.0020102335 0.0032582581)
(0.094975329 0.0043404085 0.0025765453)
(0.10852642 0.016927013 0.00066366029)
(0.12530452 0.033909077 -0.0024913368)
(0.14202531 0.052090303 -0.0059141183)
(0.15645741 0.068848437 -0.0086918078)
(0.16713516 0.08250957 -0.010647231)
(0.1738141 0.092848641 -0.012067716)
(0.17734465 0.099865369 -0.013396828)
(0.17909018 0.10370667 -0.014871595)
(0.18012823 0.10473653 -0.016319077)
(0.18088601 0.10354059 -0.017299683)
(0.1813403 0.10073781 -0.017561356)
(0.18127206 0.096846625 -0.017105526)
(0.18045339 0.092327718 -0.015799609)
(0.1785963 0.087907146 -0.013231581)
(0.17521018 0.085197215 -0.0086522922)
(0.17062709 0.087836358 -0.00080738064)
(0.14943124 0.10222217 0.013201665)
(0.096878636 -0.0015235662 0.00084370621)
(0.094713291 -0.0022473496 0.0012631468)
(0.091066065 -0.0024698109 0.0014326655)
(0.086573478 -0.0025049882 0.0015203491)
(0.082041503 -0.0024504379 0.001581904)
(0.077714057 -0.0023337561 0.0016324147)
(0.073558224 -0.0021908668 0.0016923897)
(0.069483873 -0.002063061 0.0018007965)
(0.065371836 -0.0019740771 0.0020246277)
(0.061025612 -0.0020501599 0.0024745151)
(0.056072512 -0.002688116 0.0033356691)
(0.050080059 -0.0040587963 0.0049540879)
(0.04236307 -0.0046108436 0.0079308742)
(0.036967552 0.0013213259 0.012277077)
(0.041738078 0.016543321 0.017212336)
(0.055075207 0.034225813 0.022343858)
(0.07096897 0.049186671 0.027707024)
(0.08606965 0.060677697 0.033132156)
(0.099204794 0.069276124 0.038040344)
(0.11039885 0.075304286 0.041663185)
(0.12016057 0.078871088 0.043897485)
(0.12882487 0.080021101 0.045027045)
(0.1363373 0.079058664 0.045339693)
(0.14234901 0.076429783 0.045159384)
(0.14650285 0.072608296 0.044763842)
(0.14867963 0.068062715 0.044435159)
(0.1491007 0.063441001 0.044499002)
(0.1485258 0.060019478 0.045238828)
(0.15070664 0.06067964 0.046430085)
(0.16477552 0.071463186 0.047218744)
(0.10512754 -0.0022680677 0.0010188122)
(0.11834048 -0.0024059383 0.0014383782)
(0.13022723 -0.0023362571 0.0014640851)
(0.13984181 -0.0020353583 0.0012701878)
(0.14820546 -0.0015667851 0.0008813151)
(0.15583929 -0.0010936332 0.00026174043)
(0.1627933 -0.00074135616 -0.00063571646)
(0.16899265 -0.00058552783 -0.0019437786)
(0.17439766 -0.00067957018 -0.0038901827)
(0.17899442 -0.0010938881 -0.0067320466)
(0.18273642 -0.0019313895 -0.01079345)
(0.1855323 -0.0033033014 -0.016382773)
(0.18692764 -0.0052836415 -0.023626877)
(0.1866957 -0.0083796864 -0.032185986)
(0.18611787 -0.012071008 -0.04119271)
(0.18644241 -0.015751384 -0.049441601)
(0.18779564 -0.018586774 -0.056072784)
(0.18937849 -0.020083272 -0.061022414)
(0.19029468 -0.020501831 -0.064599788)
(0.19022127 -0.020523144 -0.067071909)
(0.1894914 -0.020677785 -0.068558296)
(0.18874642 -0.021039586 -0.069119779)
(0.1884873 -0.021472811 -0.068793982)
(0.18890236 -0.021836276 -0.067628524)
(0.18996518 -0.022047719 -0.065685747)
(0.19161463 -0.021960722 -0.062970384)
(0.19375629 -0.021142721 -0.059268329)
(0.19608867 -0.01837324 -0.054121757)
(0.1978721 -0.01010079 -0.047033477)
(0.187028 0.01366818 -0.037485529)
(0.099996747 -0.0036278259 0.0010772705)
(0.10067988 -0.0044922311 0.0016471081)
(0.10234371 -0.0047266863 0.0018737501)
(0.10456345 -0.0045731402 0.0019550083)
(0.10718642 -0.0042132804 0.0019367504)
(0.11016394 -0.0038774359 0.0018019375)
(0.11341269 -0.0037363792 0.0015152114)
(0.11685499 -0.0039074038 0.0010107183)
(0.12047309 -0.0044953781 0.00017930845)
(0.12423759 -0.0056410768 -0.0011382734)
(0.12813602 -0.0075441966 -0.0031190193)
(0.13221534 -0.010413611 -0.0059864378)
(0.13659791 -0.014410711 -0.0099574477)
(0.14130746 -0.020060623 -0.01485198)
(0.14653107 -0.026534656 -0.019860752)
(0.15236765 -0.032292841 -0.023697826)
(0.15826204 -0.035396679 -0.025763802)
(0.16315927 -0.03502976 -0.026837484)
(0.16615584 -0.032113746 -0.027863221)
(0.16716939 -0.028427912 -0.02923893)
(0.16693918 -0.025421981 -0.03079358)
(0.16637609 -0.023377497 -0.032181425)
(0.16594877 -0.021987244 -0.033026036)
(0.16577017 -0.020972006 -0.032996773)
(0.16596811 -0.020423256 -0.031804299)
(0.16698863 -0.020449034 -0.029137254)
(0.16982261 -0.020933811 -0.024456976)
(0.17674748 -0.021103873 -0.01688843)
(0.19352573 -0.018920136 -0.0050755261)
(0.24992134 -0.0078992258 0.009253508)
(0.10015182 -0.0028328762 0.0010976124)
(0.10033765 -0.0041232218 0.0016930169)
(0.10022482 -0.0045660752 0.0019643784)
(0.099917639 -0.0047288279 0.0021165979)
(0.099624934 -0.0047986905 0.0022122307)
(0.099461118 -0.0048576324 0.0022550833)
(0.099438443 -0.0049841998 0.0022445106)
(0.099533995 -0.00526585 0.0021865982)
(0.099738465 -0.0058107723 0.0021021154)
(0.10005813 -0.0068002083 0.0019784773)
(0.1005441 -0.0085065819 0.0017062705)
(0.10136428 -0.01129043 0.0010505153)
(0.10279529 -0.015616279 -9.4381624e-05)
(0.10495464 -0.022135656 -0.0013731853)
(0.10813032 -0.030039416 -0.0017526853)
(0.1124732 -0.037166672 0.0011001066)
(0.11810989 -0.040290038 0.0081389672)
(0.12437998 -0.038038078 0.016471063)
(0.12971588 -0.032700478 0.02368276)
(0.13316777 -0.027306948 0.028471178)
(0.13494734 -0.023607256 0.030981596)
(0.13590705 -0.020869633 0.03315788)
(0.13751669 -0.01939625 0.03521867)
(0.13991645 -0.018914035 0.037632376)
(0.14276118 -0.019264855 0.04045339)
(0.14490515 -0.020317829 0.043225242)
(0.14687032 -0.02189706 0.045783068)
(0.14976873 -0.024040087 0.048281581)
(0.15681455 -0.026770944 0.052472318)
(0.18307523 -0.02974313 0.060130641)
(0.098125115 -0.001550401 0.001072095)
(0.096860902 -0.0023031214 0.0016483855)
(0.09458906 -0.0025577914 0.0019051519)
(0.091719138 -0.0026368806 0.0020399514)
(0.088812412 -0.0026412771 0.0021151625)
(0.086056038 -0.0026013525 0.0021385151)
(0.083446877 -0.0025550349 0.0021163876)
(0.080953731 -0.0025508372 0.002064488)
(0.078545785 -0.0026521496 0.0020139168)
(0.076161338 -0.0029678211 0.0020222088)
(0.073673995 -0.0037001975 0.0021989663)
(0.070922359 -0.0052114315 0.0027233546)
(0.067606058 -0.0079454662 0.0037957724)
(0.063393149 -0.011892931 0.0058078263)
(0.058849334 -0.015478195 0.010653716)
(0.055832541 -0.015065005 0.022108024)
(0.057392858 -0.0076122025 0.042660367)
(0.0619314 0.0037523902 0.063922721)
(0.067087943 0.01550487 0.081145902)
(0.072548857 0.025286458 0.093392681)
(0.079274026 0.032286009 0.10129088)
(0.087400345 0.035434903 0.10488795)
(0.095140288 0.035614825 0.10605329)
(0.10169581 0.03367491 0.10570833)
(0.10663961 0.03045823 0.10418699)
(0.1102319 0.025936175 0.10094098)
(0.11285213 0.020538158 0.095923253)
(0.11499665 0.014813552 0.089932026)
(0.11967287 0.0094637608 0.084251099)
(0.14383346 0.0060734633 0.078132459)
(0.1050016 -0.0022857851 0.00037057205)
(0.11801437 -0.0024208832 0.00061417758)
(0.12981291 -0.0023249364 0.00072316738)
(0.13945288 -0.0019753914 0.00074155633)
(0.1478954 -0.0014452158 0.0006962674)
(0.15559206 -0.00090878882 0.00059261817)
(0.162548 -0.00047439152 0.00041115912)
(0.16874265 -0.00016512142 0.00012528571)
(0.17420607 -2.533909e-06 -0.00027676969)
(0.1789162 -2.4832942e-05 -0.00082225849)
(0.18279743 -0.00028539398 -0.0015411862)
(0.1857236 -0.00086337217 -0.0024523238)
(0.18709638 -0.0018844766 -0.00353394)
(0.18646161 -0.0041254101 -0.0047470118)
(0.18508119 -0.0073762206 -0.0058478702)
(0.18418971 -0.011281033 -0.0065699247)
(0.18377002 -0.015261895 -0.0072060385)
(0.18301275 -0.019146677 -0.0084269339)
(0.18155136 -0.022847089 -0.01053754)
(0.17956031 -0.026340817 -0.013316611)
(0.17747712 -0.029644849 -0.016279353)
(0.17576613 -0.032675428 -0.018933935)
(0.17468561 -0.035210906 -0.02088579)
(0.17416762 -0.037056691 -0.021941443)
(0.17396521 -0.038180511 -0.022143763)
(0.17400561 -0.038773696 -0.021550155)
(0.17455958 -0.039075302 -0.020089707)
(0.17647457 -0.0385571 -0.018476014)
(0.18102024 -0.033441133 -0.019579444)
(0.1834342 -0.013230356 -0.025019039)
(0.099874678 -0.0036370992 0.00037514524)
(0.10032986 -0.0044876642 0.00064912915)
(0.10187619 -0.0046796206 0.00079238217)
(0.10410043 -0.0044562644 0.00084334629)
(0.10676923 -0.0040082251 0.00081842544)
(0.10977504 -0.0035726979 0.00070488913)
(0.11299977 -0.0032894089 0.00047389198)
(0.11634411 -0.0032007289 8.6123158e-05)
(0.11975012 -0.003363419 -0.00051109639)
(0.12317987 -0.0038816182 -0.0013995498)
(0.12661392 -0.0048976308 -0.0026825874)
(0.13008 -0.0066363941 -0.004466597)
(0.1337044 -0.0094851555 -0.0068122476)
(0.13751934 -0.014532188 -0.0096056616)
(0.14153342 -0.02138248 -0.012451511)
(0.14545572 -0.028002049 -0.015227076)
(0.14824831 -0.032604562 -0.01865579)
(0.14903288 -0.035600225 -0.023140472)
(0.14806368 -0.037409388 -0.028321258)
(0.14587369 -0.038547356 -0.033652637)
(0.14301565 -0.039549051 -0.038522159)
(0.13998754 -0.040654559 -0.04239807)
(0.13708947 -0.04164139 -0.044857685)
(0.13429971 -0.042209219 -0.04571734)
(0.1314006 -0.042398277 -0.045008221)
(0.12851882 -0.043047068 -0.042397537)
(0.12641064 -0.045267823 -0.03742317)
(0.12925449 -0.048204805 -0.031812411)
(0.14460775 -0.045550313 -0.034907707)
(0.19310697 -0.025131398 -0.053326912)
(0.10003416 -0.0028267809 0.00038106829)
(0.10000386 -0.004109607 0.00066273947)
(0.099783185 -0.0045312562 0.00082295256)
(0.099494441 -0.0046606994 0.00089786194)
(0.099277838 -0.0046845802 0.00090264612)
(0.099202933 -0.0046776942 0.00082544174)
(0.099259168 -0.0047012965 0.00064041489)
(0.099400909 -0.0048149565 0.0003093551)
(0.099587485 -0.0051013449 -0.00022736359)
(0.099798705 -0.0056938053 -0.0010627246)
(0.10000886 -0.0068079579 -0.0023190205)
(0.10015793 -0.0088192906 -0.0041670962)
(0.10023324 -0.012417094 -0.0068186226)
(0.10036946 -0.018750682 -0.010338319)
(0.10044182 -0.027685385 -0.014222519)
(0.099792736 -0.034791505 -0.017970504)
(0.09764753 -0.037098256 -0.021473025)
(0.094163722 -0.037054358 -0.023653023)
(0.090356992 -0.035820837 -0.025577134)
(0.085906808 -0.034828214 -0.029221862)
(0.08066761 -0.035029791 -0.033605889)
(0.075015532 -0.036423195 -0.03685738)
(0.069799715 -0.038288955 -0.037842197)
(0.065752779 -0.040069398 -0.036114406)
(0.062780158 -0.042000377 -0.031349384)
(0.062092251 -0.044945424 -0.022283895)
(0.062855992 -0.05012218 -0.0098516184)
(0.069542927 -0.056811324 0.0011604762)
(0.082377494 -0.060764756 -0.0075919262)
(0.11860501 -0.050083825 -0.044496816)
(0.098010092 -0.0015449777 0.0003717256)
(0.096533663 -0.0022919179 0.00064177095)
(0.09415663 -0.0025376883 0.00079187922)
(0.091306136 -0.0026056738 0.00085809639)
(0.088477086 -0.0025958723 0.00085632644)
(0.085812204 -0.0025359226 0.00077607916)
(0.083286249 -0.0024590946 0.00059308733)
(0.080847279 -0.0024053272 0.00027066905)
(0.07844285 -0.0024222959 -0.00025088289)
(0.076009981 -0.0025849485 -0.0010609904)
(0.073439594 -0.0030398915 -0.0022955071)
(0.070466682 -0.004076704 -0.004181755)
(0.066582707 -0.0063504114 -0.0072338358)
(0.061010133 -0.011370804 -0.012503829)
(0.052215987 -0.019676192 -0.020861634)
(0.039536291 -0.023890864 -0.029288609)
(0.028441006 -0.020042319 -0.02663286)
(0.029694191 -0.014974715 -0.00023157589)
(0.033252471 -0.0050253377 0.034783796)
(0.036039665 0.0053824142 0.0591265)
(0.041241542 0.013006388 0.073197435)
(0.047985059 0.016917122 0.0799812)
(0.054619749 0.01771644 0.082460742)
(0.060020911 0.016087391 0.082254217)
(0.063051617 0.012310011 0.080025695)
(0.06261134 0.0060115672 0.075539032)
(0.059685067 -0.0030550749 0.068973932)
(0.059325227 -0.014253354 0.060582848)
(0.052470809 -0.022307098 0.029642735)
(0.072898762 -0.0090667542 -0.029923292)
(0.10497118 -0.002286145 0.00020215962)
(0.11790376 -0.0024166436 0.00036596873)
(0.12961644 -0.0023074589 0.00046872892)
(0.13919244 -0.0019304871 0.00051365253)
(0.14759894 -0.0013499616 0.00050895698)
(0.1552944 -0.0007283349 0.00045756975)
(0.16232602 -0.00015749744 0.00035907402)
(0.16869621 0.00034312646 0.00022589998)
(0.17444111 0.00077790835 5.532636e-05)
(0.17962775 0.0011613814 -0.00015403985)
(0.18433848 0.0014913486 -0.00038067819)
(0.18865594 0.0017416238 -0.00055318359)
(0.19221833 0.0018298246 -0.00048481931)
(0.19491522 0.001024189 0.00013226131)
(0.19836835 0.00026978772 0.0019965658)
(0.2033467 0.00060809849 0.0053967098)
(0.2084237 0.0016296418 0.0096970336)
(0.21226943 0.0023150443 0.014308349)
(0.21472149 0.0022092311 0.018962451)
(0.21629682 0.0013054549 0.023563417)
(0.21749799 -0.00027591991 0.028078991)
(0.21860465 -0.0022885024 0.032530312)
(0.21957974 -0.0043990302 0.037010617)
(0.22005049 -0.0064311099 0.041508398)
(0.21965155 -0.0084124679 0.045665302)
(0.21843717 -0.010011374 0.048788546)
(0.2165964 -0.0095264698 0.050084615)
(0.21328928 -0.0047688458 0.048837529)
(0.20102216 0.0064996325 0.040524577)
(0.12933204 0.036840799 0.018896919)
(0.099845943 -0.0036371648 0.00021162926)
(0.10020607 -0.0044812714 0.00039971807)
(0.10163024 -0.0046531934 0.00052746936)
(0.10374103 -0.0043883676 0.00059132763)
(0.10630489 -0.0038655521 0.00059529557)
(0.10920285 -0.0033050617 0.00053544767)
(0.11231384 -0.0028226852 0.00039925796)
(0.11553392 -0.0024475828 0.0001683166)
(0.1188031 -0.0021949965 -0.0001871096)
(0.12211082 -0.0020988722 -0.00070701285)
(0.12550859 -0.0022682994 -0.0014280581)
(0.12917378 -0.0029473757 -0.0023446416)
(0.133524 -0.004632058 -0.0033014078)
(0.13903669 -0.0084801171 -0.0037713938)
(0.14595691 -0.012100307 -0.0028796339)
(0.15350805 -0.011724731 -0.0013431329)
(0.15941274 -0.0090225823 -0.00066143222)
(0.16250208 -0.0073124406 -0.0015674069)
(0.16333621 -0.0076399728 -0.0039912856)
(0.16281308 -0.0094876513 -0.0076209468)
(0.16148535 -0.012186122 -0.011894918)
(0.15976653 -0.015060824 -0.015935842)
(0.15780251 -0.017372436 -0.018790097)
(0.15521312 -0.018806905 -0.019765819)
(0.1515112 -0.019910446 -0.018808973)
(0.14697968 -0.021452609 -0.01643666)
(0.14442736 -0.019810784 -0.016588059)
(0.14859786 -0.0074131847 -0.023055315)
(0.15989066 0.01926422 -0.034355399)
(0.15130056 0.063896534 -0.050310268)
(0.10000663 -0.0028235372 0.00021373024)
(0.099884914 -0.0041028464 0.00040354916)
(0.099541935 -0.0045151032 0.00053713945)
(0.099132341 -0.0046259855 0.00060910869)
(0.098796063 -0.0046181744 0.00062064371)
(0.098589036 -0.0045586631 0.00056447596)
(0.098489939 -0.0044963756 0.00042304125)
(0.098440188 -0.0044746271 0.00016897999)
(0.098377657 -0.0045519276 -0.00023795381)
(0.098249162 -0.0048352829 -0.00086129985)
(0.098006387 -0.0055546854 -0.0018024224)
(0.09766137 -0.0072123044 -0.003169917)
(0.097525055 -0.010871525 -0.0049408459)
(0.098211081 -0.01827922 -0.0065186079)
(0.099217586 -0.02554361 -0.0060962748)
(0.10065885 -0.024448944 -0.0040822734)
(0.10000436 -0.019041705 -0.0026622546)
(0.093329937 -0.01487127 -0.0046631594)
(0.083583189 -0.013959461 -0.0098224309)
(0.074153076 -0.015975039 -0.016257348)
(0.065117435 -0.019837697 -0.022050299)
(0.056368486 -0.024225464 -0.025447757)
(0.048148891 -0.027790902 -0.02521571)
(0.041127078 -0.030352048 -0.020494755)
(0.035248089 -0.033539321 -0.011718321)
(0.031295761 -0.039848857 -0.0018120309)
(0.030528824 -0.041406998 -0.0098189093)
(0.045225047 -0.02284368 -0.030980152)
(0.070527538 0.011922171 -0.051321369)
(0.069937229 0.072566626 -0.074075357)
(0.09798305 -0.0015464238 0.0002082908)
(0.096417611 -0.0022952464 0.00039050399)
(0.093921207 -0.0025405415 0.00051626504)
(0.090951502 -0.0026044424 0.00058030022)
(0.08800318 -0.0025856131 0.00058350658)
(0.085203526 -0.0025089447 0.00051813072)
(0.08251063 -0.0024036702 0.0003646612)
(0.079845176 -0.002305017 9.0167999e-05)
(0.077112606 -0.002258113 -0.00035718862)
(0.074170359 -0.0023356602 -0.0010743769)
(0.070741045 -0.0027033449 -0.0022490559)
(0.066273776 -0.0037826153 -0.0042374463)
(0.059605226 -0.0067654373 -0.0077071387)
(0.049215458 -0.014718213 -0.014068224)
(0.029147295 -0.021930572 -0.02375513)
(0.0018485662 -0.012295172 -0.029518867)
(-0.021499017 0.0020202057 -0.024502445)
(-0.031273273 0.0020732745 -0.014478158)
(-0.026098049 -0.0013169854 0.0042168254)
(-0.019002676 -0.00079046316 0.024342778)
(-0.010366671 0.00047295687 0.036157702)
(-0.0015435675 0.00058626516 0.0416307)
(0.005812723 -0.0009449355 0.04358257)
(0.0099551153 -0.0042698931 0.043470645)
(0.010478998 -0.0096143842 0.042193734)
(0.0050978674 -0.019496495 0.035846148)
(-0.015850405 -0.026252343 0.0013521383)
(-0.025936171 -0.0049417751 -0.040535104)
(0.007860058 0.032393057 -0.066323615)
(0.087796105 0.083048872 -0.077426723)
(0.10495258 -0.0022887299 5.6246742e-05)
(0.11784036 -0.002421884 9.9580972e-05)
(0.12950203 -0.002314362 0.00012265288)
(0.13903388 -0.0019374242 0.00012628867)
(0.1474051 -0.001354405 0.00011375672)
(0.15506958 -0.00072791004 8.725302e-05)
(0.16206742 -0.00015113817 4.7088207e-05)
(0.16839278 0.00035465865 -8.4992418e-06)
(0.17408965 0.00079373371 -8.4061675e-05)
(0.17921801 0.0011635039 -0.00017577367)
(0.18385635 0.0014433179 -0.00028940599)
(0.18814258 0.0015714442 -0.00042539164)
(0.19179328 0.001424409 -0.00056909827)
(0.19506089 0.00030697248 -0.00073641656)
(0.20005422 0.00031639513 -0.00079947825)
(0.20660248 0.0015102421 -0.00062536777)
(0.21304189 0.002923488 -0.00029169493)
(0.21829767 0.0044740181 0.00014448392)
(0.22291303 0.0064287293 0.00081032792)
(0.22758352 0.0086917521 0.0018595215)
(0.23289518 0.011063366 0.0034769379)
(0.23907178 0.01350275 0.0059067714)
(0.24566411 0.016186197 0.0094252044)
(0.25146954 0.019245566 0.014228029)
(0.25495368 0.022563167 0.02018017)
(0.25449923 0.026206977 0.026513194)
(0.24794544 0.030918154 0.031575176)
(0.23172635 0.038301927 0.033105508)
(0.20137221 0.050842159 0.028086444)
(0.094257209 0.078882035 0.014496915)
(0.099829096 -0.0036394928 6.5402755e-05)
(0.10013983 -0.0044857338 0.00012568967)
(0.10149876 -0.0046574176 0.00016861341)
(0.10354613 -0.004388776 0.00019193167)
(0.10604995 -0.0038573986 0.00019725041)
(0.10888264 -0.0032836443 0.00018452133)
(0.11191288 -0.0027845945 0.00015083843)
(0.11502925 -0.0023921128 9.1258137e-05)
(0.11816491 -0.0021235546 -2.2085103e-06)
(0.12130097 -0.0020421553 -0.00013976147)
(0.12450895 -0.0023100489 -0.00033475176)
(0.12808895 -0.003292146 -0.00059352379)
(0.13283318 -0.0056607991 -0.00089293152)
(0.13952506 -0.010161603 -0.0011467949)
(0.14840403 -0.0096442118 -0.0010989607)
(0.15691736 -0.0054733609 -0.00080146208)
(0.16347295 -0.0015873806 -0.00086612104)
(0.16932023 0.001135705 -0.0012997753)
(0.17529078 0.00293262 -0.0019471501)
(0.18127846 0.0041254544 -0.002739086)
(0.18799377 0.0054194978 -0.0036258804)
(0.19543144 0.0076961591 -0.0043669467)
(0.20487435 0.012368907 -0.0043272527)
(0.21470805 0.020025754 -0.0029761767)
(0.22354443 0.030214742 -0.00025134182)
(0.22989535 0.042256754 0.003409875)
(0.23110509 0.056416784 0.0062457082)
(0.22243873 0.074381536 0.0059254016)
(0.2013744 0.09865694 0.00027328558)
(0.11825687 0.13701661 -0.013603732)
(0.09998984 -0.0028231668 6.5980212e-05)
(0.099819396 -0.0041028135 0.00012662796)
(0.09940986 -0.0045137318 0.00017149755)
(0.098931149 -0.0046205881 0.00019806325)
(0.098523521 -0.0046058989 0.00020708582)
(0.098232217 -0.0045365664 0.00019736336)
(0.098021347 -0.0044619774 0.00016477879)
(0.097817068 -0.0044279156 0.00010198146)
(0.09753209 -0.0044977849 -2.4258799e-06)
(0.097062253 -0.0048105132 -0.00016653609)
(0.096305521 -0.0056847259 -0.000419124)
(0.09532093 -0.0078674165 -0.00079799159)
(0.094956574 -0.013025696 -0.0013519396)
(0.095783479 -0.023482598 -0.0022229478)
(0.098871606 -0.022243819 -0.0028811578)
(0.10293019 -0.015690529 -0.0016486165)
(0.10181322 -0.0095597995 -0.0013516124)
(0.096588762 -0.0040832741 -0.0017908725)
(0.089062715 -0.00051785516 -0.0030698457)
(0.081471558 -0.00012678184 -0.0057741497)
(0.070829253 -0.0029606183 -0.0094118396)
(0.059044354 -0.0070279861 -0.012953785)
(0.048362338 -0.0090042772 -0.014946235)
(0.048720494 -0.0059795857 -0.013155072)
(0.064800889 0.0022352972 -0.0075817859)
(0.093065515 0.016683983 -0.0023846762)
(0.11896269 0.037475846 -0.0012293171)
(0.13332833 0.06387519 -0.0061297057)
(0.13623182 0.10069654 -0.016645987)
(0.072717658 0.16449376 -0.031639799)
(0.097966362 -0.0015460999 6.4205703e-05)
(0.096352719 -0.0022946176 0.00012214122)
(0.093789968 -0.0025388021 0.00016395835)
(0.090749573 -0.002600565 0.00018714208)
(0.087725626 -0.0025786849 0.0001921895)
(0.084832086 -0.0024980396 0.00017760959)
(0.082006671 -0.0023883792 0.00013893005)
(0.079147923 -0.0022868656 6.6946839e-05)
(0.076106136 -0.0022405097 -5.1478372e-05)
(0.072611908 -0.0023446078 -0.00024372642)
(0.068145359 -0.002833455 -0.00056013643)
(0.06162555 -0.0043716431 -0.001101321)
(0.050605505 -0.0090960159 -0.0021312455)
(0.03339133 -0.022144638 -0.0046730145)
(-0.014810113 -0.010222318 -0.012649953)
(-0.043469715 0.0057210529 -0.011810536)
(-0.062349592 0.008154587 -0.0072875603)
(-0.074030476 0.0071986245 -0.0027975448)
(-0.079148384 0.0036280529 0.0026546578)
(-0.07718985 -0.0011678548 0.0082903658)
(-0.069350345 -0.0058153565 0.011649598)
(-0.060680298 -0.010077769 0.012528184)
(-0.053048254 -0.014419053 0.012261827)
(-0.046824084 -0.018783169 0.012148901)
(-0.039690089 -0.020464919 0.012398)
(-0.031411229 -0.014138153 0.010636521)
(-0.016581256 0.011835569 -9.7851677e-05)
(0.0076335176 0.045021723 -0.015512356)
(0.048406941 0.086449617 -0.034895278)
(0.12004182 0.14915996 -0.044607991)
(0.10494929 -0.0022882586 -5.6110419e-05)
(0.11783094 -0.0024221851 -0.00010096828)
(0.12948771 -0.0023158511 -0.00012703827)
(0.13901624 -0.0019406984 -0.00013464748)
(0.14738572 -0.0013599821 -0.00012644999)
(0.15505119 -0.00073624067 -0.00010347213)
(0.16205504 -0.00016222168 -6.3826923e-05)
(0.16839382 0.00034280803 -2.5499469e-06)
(0.17411446 0.00078468307 8.9340087e-05)
(0.17928047 0.0011664722 0.00021104582)
(0.183967 0.0014816129 0.00036924337)
(0.18827873 0.0016918651 0.00054767943)
(0.19180119 0.0016906403 0.00066501072)
(0.19449383 0.00061441796 0.00055797283)
(0.1984379 -7.3304273e-05 -0.0002226375)
(0.20426654 0.00065783145 -0.0016158454)
(0.21029273 0.0019586825 -0.0030932749)
(0.21543396 0.0032207316 -0.0045184087)
(0.21967502 0.0044307852 -0.0060887615)
(0.2239041 0.0056792173 -0.0080857329)
(0.22895808 0.0068886414 -0.010760354)
(0.23529266 0.0082063951 -0.014347962)
(0.24262022 0.010059426 -0.019018275)
(0.24974453 0.012761171 -0.024697908)
(0.25492229 0.016066807 -0.030904072)
(0.25621589 0.020156104 -0.036658014)
(0.25120488 0.025673753 -0.040463964)
(0.23628285 0.033932527 -0.040404631)
(0.20714155 0.047334575 -0.033607258)
(0.1031762 0.075737842 -0.017874983)
(0.099829453 -0.003638764 -4.5216531e-05)
(0.10014113 -0.0044857562 -7.6038554e-05)
(0.10150156 -0.004658677 -8.1366192e-05)
(0.10355164 -0.0043917712 -6.0097998e-05)
(0.10606055 -0.0038623677 -1.3536151e-05)
(0.10890282 -0.0032903375 5.9863125e-05)
(0.11195115 -0.0027909245 0.00016564714)
(0.11509609 -0.0023923403 0.00031243482)
(0.11827251 -0.0021061633 0.00051399039)
(0.12146564 -0.001978293 0.00078593499)
(0.12473584 -0.0021296643 0.0011390271)
(0.12831463 -0.0028429452 0.0015476067)
(0.13276348 -0.0046989825 0.0018722366)
(0.13874937 -0.0089408064 0.0016967058)
(0.14650715 -0.011464787 0.00040903092)
(0.15505139 -0.0086381139 -0.0011087969)
(0.16150748 -0.0047109518 -0.0015827491)
(0.16600812 -0.0020192318 -0.0011481549)
(0.16982165 -0.000896577 -0.00036908785)
(0.1734103 -0.00095098688 0.00067044923)
(0.17690102 -0.0014864531 0.0019981256)
(0.1810537 -0.0015907399 0.0032511916)
(0.18707476 8.3180903e-05 0.0036047474)
(0.19650388 0.0052165027 0.0022253715)
(0.20956643 0.015027743 -0.00074118169)
(0.22023989 0.028476059 -0.0040549639)
(0.22538061 0.045014682 -0.0062697419)
(0.22016168 0.065636619 -0.0056768816)
(0.20190326 0.092511338 0.00011707296)
(0.12115199 0.13272012 0.014563187)
(0.099990248 -0.0028228454 -4.4268304e-05)
(0.099821332 -0.0041025027 -7.3685745e-05)
(0.099414821 -0.0045135067 -7.7045952e-05)
(0.098941352 -0.0046202901 -5.1599254e-05)
(0.098542898 -0.0046050936 3.5186319e-06)
(0.098268648 -0.0045340318 9.2533452e-05)
(0.098089226 -0.0044538744 0.00022442508)
(0.097936943 -0.0044069327 0.00041473629)
(0.097737178 -0.0044484649 0.00068888911)
(0.0974151 -0.0046905665 0.0010860538)
(0.096903624 -0.0053846466 0.0016621707)
(0.096229771 -0.0071078274 0.0024738444)
(0.095859032 -0.011139681 0.0034981955)
(0.096647165 -0.019575985 0.0043439466)
(0.097412867 -0.025704071 0.0035146892)
(0.10209334 -0.020223541 0.00056970395)
(0.10078898 -0.014005161 0.0003773455)
(0.096436381 -0.0088286262 0.0025743388)
(0.089797931 -0.0053051914 0.0062643331)
(0.081515973 -0.0052112356 0.0112529)
(0.071710067 -0.0085570606 0.016605366)
(0.060873339 -0.013464999 0.020395365)
(0.050857149 -0.017468525 0.02035751)
(0.045671533 -0.018707174 0.015842575)
(0.052545699 -0.014216289 0.0096502582)
(0.080341508 0.00060748372 0.0067606857)
(0.111769 0.024096937 0.0076142262)
(0.12877487 0.053860827 0.011349645)
(0.13316236 0.09385926 0.019456468)
(0.067843346 0.16064832 0.032385687)
(0.0979667 -0.0015459907 -4.2959239e-05)
(0.09635451 -0.0022944431 -7.0713218e-05)
(0.093794956 -0.0025385836 -7.2261504e-05)
(0.090760455 -0.00260027 -4.4357984e-05)
(0.087747491 -0.0025782254 1.4755944e-05)
(0.084876123 -0.0024969692 0.0001108196)
(0.0820934 -0.0023847793 0.0002555009)
(0.079307828 -0.0022768413 0.00047135023)
(0.076400907 -0.0022160765 0.00079696701)
(0.073181979 -0.0022797221 0.0013068951)
(0.069295223 -0.0026501372 0.0021430144)
(0.064020108 -0.0038186137 0.0035858179)
(0.055755894 -0.0072579331 0.0062383452)
(0.042425181 -0.016760339 0.011527181)
(0.013509854 -0.0228404 0.019911691)
(-0.030224775 0.00088047841 0.019123097)
(-0.048737693 0.0051926525 0.015145145)
(-0.064613492 0.0056773241 0.013345795)
(-0.071169906 0.0031567767 0.0097575759)
(-0.067647401 -0.0015580916 0.0028750673)
(-0.057869026 -0.0059373385 -0.0060184216)
(-0.047827216 -0.0094582566 -0.012946646)
(-0.040083848 -0.01335614 -0.017442197)
(-0.034598036 -0.018010362 -0.020019782)
(-0.03066828 -0.02163108 -0.019618541)
(-0.028974126 -0.017738206 -0.01303975)
(-0.019715143 0.0063721633 -0.0010629325)
(0.0047999308 0.044797411 0.011798063)
(0.04501964 0.08810281 0.029729258)
(0.10810852 0.14680279 0.039423424)
(0.10496242 -0.0022843276 -0.00020187529)
(0.11787874 -0.0024163812 -0.00036658501)
(0.12957854 -0.0023095775 -0.00047133403)
(0.1391456 -0.001935909 -0.00051935708)
(0.14754578 -0.0013594681 -0.00051901176)
(0.15523738 -0.00074238353 -0.00047364185)
(0.16226798 -0.00017647329 -0.00038340244)
(0.16864179 0.00031793709 -0.00026128205)
(0.17439555 0.00074776297 -0.00010519206)
(0.17959687 0.0011341554 8.6557418e-05)
(0.18432239 0.0014803624 0.00029172721)