/*--------------------------------*- C++ -*----------------------------------*\
| =========                 |                                                 |
| \\      /  F ield         | OpenFOAM: The Open Source CFD Toolbox           |
|  \\    /   O peration     | Version:  v2012                                 |
|   \\  /    A nd           | Website:  www.openfoam.com                      |
|    \\/     M anipulation  |                                                 |
\*---------------------------------------------------------------------------*/
FoamFile
{
    version     2.0;
    format      ascii;
    class       volScalarField;
    location    "500/bottomWater";
    object      p_rgh;
}
// * * * * * * * * * * * * * * * * * * * * * * * * * * * * * * * * * * * * * //

dimensions      [1 -1 -2 0 0 0 0];


internalField   nonuniform List<scalar> 
1460
(
0.31769286
0.31563501
0.32794847
0.31311267
0.31587674
0.30609287
0.33600929
0.32032096
0.31293603
0.31960899
0.30678519
0.29663827
0.30670504
0.29905488
0.29889921
0.29617321
0.30721904
0.3005199
0.2984409
0.30269427
0.31923538
0.32062938
0.31623272
0.30987801
0.30404132
0.30358955
0.29064624
0.29365239
0.29999359
0.29894387
-0.27034636
-0.25125557
-0.21112665
-0.22498273
-0.26671867
-0.26160532
-0.20448756
-0.18145712
-0.27423197
-0.20297305
-0.23385996
-0.24646775
-0.26529812
-0.27091004
-0.27505618
-0.24678175
-0.21640252
-0.23955741
-0.25125115
-0.24315024
-0.20055733
-0.19426933
-0.20000524
-0.19795315
-0.21221408
-0.22814786
-0.2506917
-0.26963582
-0.26081423
-0.24963474
0.10274283
0.072233584
0.067935157
0.074647181
0.12035295
0.064857811
0.037669873
0.05249389
0.075514754
0.051831048
0.07212659
0.098206382
0.11656571
0.13059424
0.074559834
0.073339098
0.050166208
0.094738577
0.12053934
0.10835554
0.080894579
0.072062191
0.072592504
0.075579392
0.074073868
0.060374062
0.063437929
0.08589576
0.12496485
0.13798302
-0.039265899
-0.10577808
-0.078712584
-0.064290952
-0.025418145
-0.080594215
-0.056469711
-0.065332735
-0.052978611
-0.056846882
-0.042257729
-0.05918357
-0.038577589
-0.043288005
-0.055552531
-0.10970931
-0.074259414
-0.072959498
-0.024063478
-0.050345794
-0.019751002
-0.023266062
-0.043167303
-0.047198564
-0.05136475
-0.059025269
-0.089549242
-0.050519942
-0.067219031
-0.10224468
0.029987357
0.03093855
0.0066008174
-0.0085350181
-0.004661355
0.003579219
0.020669568
0.016644145
-0.007596267
0.010620655
-0.01170163
0.026818141
0.016405243
0.027888223
0.022470385
0.019869288
0.010686183
-0.012869465
-0.0037093047
-0.0035138426
-0.01120989
-0.0087737505
-0.016078946
-0.0094430607
-0.018423559
-0.018520272
0.0055975689
0.0029250506
0.0099316512
0.055536569
0.30704605
0.30361018
0.30776119
0.29908308
0.30890098
0.30218992
0.29728943
0.30652305
0.30950887
0.30816572
0.29734442
0.30003694
0.30242447
0.29564711
0.30120095
0.29889519
0.29544553
0.29544927
0.3003546
0.32270696
0.32354344
0.31763757
0.31480509
0.32791088
0.30900677
0.30092769
0.30111966
0.2968725
0.3000951
0.30195512
-0.28523986
-0.26747821
-0.26845894
-0.27057591
-0.28783706
-0.28126546
-0.27458025
-0.2602196
-0.29305733
-0.27499262
-0.27505025
-0.27826222
-0.27739774
-0.27171448
-0.26493413
-0.24073414
-0.24881444
-0.25381139
-0.25237958
-0.1996208
-0.2108703
-0.25149803
-0.24670167
-0.20359319
-0.22863206
-0.25774761
-0.25699727
-0.26893369
-0.27390733
-0.26921069
0.12178142
0.099457934
0.12423186
0.10031452
0.13395357
0.1003019
0.089700675
0.094602769
0.086775259
0.098320184
0.079319577
0.092831349
0.10506703
0.098767045
0.085891679
0.086781473
0.07796538
0.10106409
0.071863856
0.047847939
0.057431601
0.068337292
0.072766951
0.037754157
0.042131478
0.064071354
0.089125363
0.10648213
0.11295067
0.13309708
-0.04746033
-0.093127616
-0.089905052
-0.07694591
-0.041039868
-0.064508053
-0.076518227
-0.096955695
-0.05007793
-0.053630576
-0.082380816
-0.040167412
-0.046961775
-0.079434345
-0.086196082
-0.10420094
-0.083091455
-0.082228988
-0.070792193
-0.096588368
-0.079718799
-0.095498922
-0.12141001
-0.10642767
-0.11867843
-0.10236363
-0.09014674
-0.066948272
-0.042545677
-0.049535827
0.015623289
0.029619273
0.02891723
-0.0013130665
-0.00048200212
-0.0050915443
0.025380188
0.036379533
0.019045298
0.018037786
0.021494084
0.0032582019
0.0003230919
0.0083926514
0.019377747
0.0346314
0.0085751477
-0.009740348
-0.0052994654
0.0033334058
-0.0097963885
-0.013405632
-0.0022519545
0.021628524
0.0257581
0.013476382
0.016655365
-0.009881732
0.0085458608
0.012671578
0.32665815
0.32969763
0.32874817
0.31384759
0.30886072
0.31179515
0.32346161
0.31600064
0.31343894
0.31669879
0.32736047
0.29035123
0.30631676
0.29496342
0.30932661
0.28613894
0.29468147
0.30065507
0.30077783
0.30722354
0.30245969
0.31146698
0.30633029
0.31444484
0.31875617
0.32176096
0.32398597
0.30977556
0.28988035
0.29766694
-0.26664023
-0.21692362
-0.21117581
-0.26170889
-0.28127896
-0.28218014
-0.28832198
-0.28412434
-0.28128404
-0.23584099
-0.21699332
-0.25816709
-0.25082305
-0.2391244
-0.21782246
-0.23723191
-0.26599944
-0.27908153
-0.28493142
-0.26549843
-0.26891386
-0.28947674
-0.29053315
-0.29353489
-0.29774933
-0.27885451
-0.20998952
-0.22140358
-0.26475831
-0.25594306
0.092946218
0.038115974
0.071015868
0.096193105
0.078974446
0.10674214
0.11472102
0.094883105
0.063619168
0.060599854
0.022263906
0.077162265
0.096368274
0.08654776
0.044677087
0.074372292
0.079183203
0.10915065
0.1138506
0.10293761
0.097005309
0.10415905
0.11205891
0.10666037
0.088902462
0.088644418
0.044575834
0.050345754
0.076069148
0.092409641
-0.051299542
-0.06712517
-0.045605865
-0.050509978
-0.059729921
-0.059309171
-0.03676846
-0.034671844
-0.064442785
-0.063196705
-0.063622086
-0.061317568
-0.044432942
-0.06220364
-0.063968114
-0.086958104
-0.051333935
-0.054352003
-0.058279094
-0.096061602
-0.092519937
-0.053051032
-0.044133776
-0.046994817
-0.043330095
-0.07981839
-0.073893014
-0.075371545
-0.067120643
-0.048665428
-0.00054019112
-0.0050384169
-0.0049323945
-0.010732022
0.0036520184
0.011250573
0.020920551
0.016193804
0.0092856703
-0.0026075469
-0.0052100275
-0.019834536
-0.018790621
-0.019703492
-0.0078272213
0.0085313995
0.0089650159
0.019020669
0.020207241
0.051216915
0.020967027
0.018554042
0.022330167
0.025215452
0.027197991
0.020410336
0.019693736
0.0045668673
-0.0097240156
-0.0029327219
0.30894384
0.30598345
0.32107119
0.31274897
0.31894478
0.31581805
0.31669087
0.32025961
0.32153664
0.32552543
0.30746987
0.31872968
0.32196619
0.30166042
0.31140332
0.30017471
0.29488808
0.30882263
0.30486887
0.30313301
0.30538185
0.30821685
0.30246819
0.30377217
0.29879454
0.29943079
0.30335771
0.31160866
0.30997763
0.29785671
-0.25986301
-0.24646931
-0.20072103
-0.20252692
-0.20903671
-0.24651997
-0.27327462
-0.28477015
-0.26351504
-0.1949158
-0.2194695
-0.20327472
-0.19160053
-0.20414721
-0.18332036
-0.21931826
-0.27168072
-0.27398535
-0.2855856
-0.26858765
-0.28721085
-0.28713338
-0.28578827
-0.27543077
-0.26415783
-0.27195979
-0.25663422
-0.22552867
-0.227102
-0.24592162
0.10944017
0.080897051
0.073120737
0.061199305
0.039637344
0.029852839
0.075255528
0.067648294
0.035611805
0.040772559
0.094654971
0.061891092
0.063417561
0.07785676
0.051842459
0.053761263
0.070097239
0.099530578
0.1121019
0.10354014
0.1038517
0.14297855
0.13216755
0.120072
0.11419662
0.10703102
0.097204487
0.089300318
0.078436533
0.11475396
-0.029932382
-0.050807559
-0.031585652
-0.060991132
-0.064964715
-0.070269193
-0.062907285
-0.051668277
-0.08986374
-0.066608777
-0.068380618
-0.030817961
-0.015663247
-0.061463719
-0.07429708
-0.08144842
-0.071719993
-0.053275902
-0.026259585
-0.08339342
-0.045377137
-0.03253702
-0.053428185
-0.082872688
-0.097792475
-0.063132683
-0.10643069
-0.067974765
-0.050071397
-0.045472327
-0.0024475823
-0.013273497
-0.0090206894
-0.025878524
0.0069758354
0.0057841239
0.0039501507
0.0086192587
-0.00048716164
-0.0033444524
-0.020078351
-0.025172669
-0.002862388
-0.023396731
6.0396579e-05
0.015187713
0.014864986
0.020390939
0.033450322
0.040852847
0.014917976
0.014776236
0.018018137
0.032831337
0.043944937
0.0037457619
-0.0056922641
-0.016067526
-0.02718599
-0.012280136
0.30938531
0.29998408
0.31909103
0.31779567
0.30758989
0.3138223
0.32453016
0.31752859
0.312904
0.33283462
0.33261951
0.32378685
0.32543746
0.30148124
0.30249123
0.32276915
0.30116975
0.31747836
0.30323595
0.32197201
0.32441682
0.31603467
0.31064005
0.30986897
0.31711235
0.29695953
-0.25942229
-0.26264766
-0.20337833
-0.2009367
-0.24330348
-0.27672292
-0.28133513
-0.28135439
-0.2804724
-0.22083634
-0.19703249
-0.21369566
-0.19888604
-0.24323239
-0.25302969
-0.23127983
-0.27853964
-0.27550995
-0.27962014
-0.25311575
-0.19695301
-0.23172295
-0.24661678
-0.27502206
-0.22105881
-0.2364362
0.11597338
0.084855506
0.067708188
0.040002297
0.058117667
0.078073097
0.12694103
0.087465276
0.053118959
0.034079902
0.041586161
0.068609229
0.069611214
0.091126988
0.10772142
0.090034085
0.12492834
0.12088259
0.095631708
0.046301921
0.043165388
0.069819833
0.10852529
0.092858443
0.076082683
0.10032751
-0.035839286
-0.064004154
-0.048031274
-0.06953469
-0.070823598
-0.066945439
-0.035329066
-0.04092315
-0.091618504
-0.073047767
-0.075722082
-0.061716912
-0.027067102
-0.11174226
-0.1099078
-0.10664384
-0.076963297
-0.03612949
-0.076392194
-0.075086631
-0.080576343
-0.066499708
-0.051258566
-0.021966543
-0.061977024
-0.065939222
-0.00082665339
0.0061389658
-0.00065312582
0.012764611
0.022083348
0.021670037
0.041802461
0.032025337
0.027863523
0.024529032
0.011594122
-0.01669414
-0.0026137501
0.020996839
0.025526291
0.0030830836
-0.010759722
-0.00020910378
-0.0017784881
0.015330576
0.018866392
-0.016285549
-0.013241875
0.0043350128
-0.014181367
0.0081983303
0.30578207
0.29766592
0.31375992
0.29423532
0.30476943
0.30802938
0.3094724
0.30882597
0.30906423
0.31159148
0.30758341
0.3145009
0.30988589
0.32500965
0.32187707
0.32246866
0.32264698
0.31180895
0.32033554
0.31399209
0.32484232
0.31742762
0.31917512
0.30583831
0.30993509
0.30911387
-0.27059252
-0.25955727
-0.23150963
-0.25902261
-0.26674787
-0.27810191
-0.2909268
-0.27250837
-0.28797092
-0.27100365
-0.2672457
-0.2578804
-0.25309479
-0.21897718
-0.23841223
-0.28493763
-0.24281962
-0.27711301
-0.28545273
-0.27184847
-0.23001914
-0.20987939
-0.22491729
-0.25139113
-0.26678799
-0.27025694
0.1032663
0.087888348
0.060105901
0.080394882
0.090358751
0.10465705
0.11527703
0.1020543
0.088651785
0.084370962
0.083391079
0.071303691
0.082226694
0.069269278
0.057887902
0.092506742
0.083617753
0.12153229
0.092542575
0.074212676
0.047950727
0.061097202
0.06353133
0.079731548
0.086729811
0.11919635
-0.050950808
-0.085266472
-0.076911651
-0.07104649
-0.058082263
-0.048784362
-0.04385634
-0.094992081
-0.038137914
-0.082730707
-0.089898915
-0.095866836
-0.068977507
-0.044379656
-0.086383303
-0.014713822
-0.044778383
-0.056601102
-0.048709437
-0.086609792
-0.075579249
-0.054815572
-0.053036084
-0.072811873
-0.063890223
-0.052364583
0.0059993754
0.026924045
0.028508226
0.0023233819
0.0055001733
0.021811
0.02302648
0.026849674
0.010924152
-0.0043356908
0.025011009
0.014151215
-0.00079735277
-0.013975471
-0.0050734311
0.012184174
-0.0034314014
-0.0024577814
0.0022542984
0.017124746
0.018879631
0.0023925765
-0.013930423
0.020878909
0.0037866676
0.012450444
0.30677804
0.30629691
0.29923561
0.30260467
0.30460279
0.30657993
0.30687666
0.31980221
0.32443116
0.33153849
0.32700115
0.32320184
0.32288541
0.31439449
0.31896597
0.32908981
0.31752213
0.32952085
0.32279
0.31694418
0.33166496
0.31341497
0.32050661
0.32503455
0.32075962
0.32011842
0.32071827
0.29894473
0.30313827
0.30571823
-0.27585744
-0.281464
-0.28140759
-0.2736527
-0.24382188
-0.25016997
-0.2357348
-0.22485032
-0.23861516
-0.28054338
-0.2964611
-0.29438528
-0.28334561
-0.27650464
-0.25127499
-0.20065272
-0.22072888
-0.19449405
-0.21225097
-0.24464104
-0.21524912
-0.27699105
-0.29075911
-0.29598927
-0.29482307
-0.26053581
-0.22834639
-0.26190687
-0.27556733
-0.27269153
0.13927592
0.12560216
0.10626957
0.10073575
0.10133424
0.1094096
0.10178303
0.082218588
0.079235171
0.091785283
0.10982121
0.10278518
0.084308138
0.063309279
0.039878596
0.030329504
0.081807509
0.065288552
0.085356892
0.092203691
0.056525774
0.078801235
0.10020771
0.10768962
0.072348739
0.051082586
0.05545319
0.060609044
0.079567524
0.11535587
-0.043066825
-0.04013918
-0.045144347
-0.05627629
-0.091633048
-0.073004517
-0.073727152
-0.058647854
-0.071985043
-0.053845574
-0.033103556
-0.039871227
-0.053511921
-0.064285514
-0.062517523
-0.061111103
-0.048676298
-0.03234603
-0.077273349
-0.10516964
-0.091858942
-0.11166372
-0.054038256
-0.048478463
-0.069884779
-0.074444239
-0.05682354
-0.060969283
-0.056365334
-0.043294643
0.022974559
0.018626468
0.014701729
0.0067760742
0.02159032
0.00078159525
0.0024640098
-0.0052593273
0.0031891389
0.017805759
0.037423044
0.021432898
0.016254288
0.018953396
0.0080029987
0.0007843536
-0.019968149
-0.004491758
-0.022762178
0.0046606311
0.023667368
0.017794835
0.019636055
0.033145716
0.014632927
0.01893095
-0.0063534217
0.021254912
0.0095546885
0.019051212
0.30795867
0.30370213
0.30185361
0.30657383
0.30063611
0.32763839
0.29195894
0.31822752
0.32084663
0.32808286
0.31423517
0.32321257
0.32236974
0.32231243
0.32129295
0.31912136
0.32772628
0.32944386
0.32705784
0.33177842
0.32343765
0.32092769
0.32257697
0.32402578
0.32544058
0.32669234
0.32667773
0.32012995
0.29572792
0.30816552
-0.27838185
-0.2756039
-0.26602696
-0.2606728
-0.2516161
-0.21961652
-0.25164738
-0.20772252
-0.19302874
-0.24125119
-0.28025969
-0.29139269
-0.29030097
-0.29388116
-0.29086985
-0.27783773
-0.22927304
-0.19988505
-0.20217094
-0.22547091
-0.2562432
-0.27752964
-0.29545959
-0.29794291
-0.2966374
-0.30734189
-0.24488349
-0.23668
-0.26472146
-0.26854659
0.13541666
0.11392257
0.10918382
0.097719189
0.14020267
0.075513934
0.1191406
0.037059376
0.044706432
0.047032673
0.084705512
0.10164039
0.11446195
0.094305222
0.069508306
0.040646202
0.045881055
0.064866927
0.072379099
0.052442728
0.058825449
0.096387286
0.11226182
0.12922878
0.13267231
0.085216591
0.056439902
0.059105097
0.064868579
0.093985917
-0.035571869
-0.065523023
-0.10203976
-0.083175122
-0.066900729
-0.035193977
-0.054284129
-0.063019924
-0.062181434
-0.060869134
-0.075813608
-0.041536481
-0.041271821
-0.037604466
-0.054664786
-0.080141059
-0.062827456
-0.03732988
-0.042935676
-0.063663883
-0.083650584
-0.072295287
-0.032094298
-0.034337282
-0.036011111
-0.043115711
-0.088426646
-0.040152969
-0.066450804
-0.036974267
-0.0006681074
-0.0067534168
0.031878048
0.0022680784
-0.014345398
-0.012943836
-0.010160993
-0.0028251933
0.014783947
0.0058093187
0.032581209
0.02811764
0.023513626
0.019917435
0.0075212131
0.0034203279
-0.011097876
-0.0093074337
-0.0044161161
-0.0065601495
0.016220209
0.021578632
0.030669329
0.035629379
0.035011543
0.022416563
0.020062488
0.0022383327
0.013892598
0.015361432
0.31582607
0.30772042
0.31931316
0.29114724
0.29484759
0.29863658
0.30217616
0.30158856
0.29956583
0.30081569
0.30790563
0.30996823
0.31888011
0.32415292
0.32778186
0.32815532
0.31857177
0.32617589
0.3165269
0.31091817
0.32120355
0.31988609
0.31432582
0.32549334
0.31731404
0.33163708
0.3214273
0.32825065
0.29779234
0.31224733
-0.28549217
-0.28310658
-0.2227655
-0.25130184
-0.25831426
-0.25850915
-0.25984325
-0.25891942
-0.26388505
-0.26475177
-0.26871395
-0.27404426
-0.24713889
-0.24183365
-0.28649251
-0.28413544
-0.27813498
-0.23320911
-0.2507545
-0.27474409
-0.28742136
-0.28953073
-0.26958983
-0.26782153
-0.28308675
-0.29731253
-0.26186301
-0.23868033
-0.26730685
-0.27642381
0.090342212
0.051020858
0.024220752
0.059613607
0.11158444
0.14274484
0.12131889
0.11744952
0.11147232
0.11454966
0.11759181
0.082359623
0.055842963
0.054162292
0.08360053
0.076290126
0.049461461
0.040800928
0.061188033
0.081108162
0.081132042
0.085815671
0.08388128
0.060636074
0.10548364
0.091791074
0.083180669
0.06079365
0.062155481
0.087982581
-0.047124321
-0.08708437
-0.074240322
-0.075051245
-0.060201749
-0.052576897
-0.091913671
-0.11002685
-0.10551543
-0.08073809
-0.050892069
-0.071646716
-0.066972171
-0.072500697
-0.027932891
-0.017048628
-0.077491048
-0.062817643
-0.045708068
-0.065583176
-0.038636504
-0.047040663
-0.10354929
-0.076676304
-0.078429067
-0.049924094
-0.079239782
-0.039447902
-0.078108418
-0.043427038
0.014494292
0.0098410265
0.01026536
-0.01587106
-0.021005477
-0.013004014
0.00012691854
0.031100994
0.048565508
0.016727862
0.0074794675
0.019098021
0.023811159
0.017074994
0.0038714217
0.010574758
0.006313746
-0.0041421337
-0.00037759799
-0.011845677
0.0025439033
0.0033704755
0.0233315
0.037613373
0.0081163204
-0.001834321
-0.0095488643
-0.011772615
0.00086820768
0.0069471159
0.33236627
0.32522636
0.34568556
0.31998277
0.31444343
0.29570003
0.29944558
0.30740084
0.30830858
0.31011913
0.30416042
0.31489718
0.31906201
0.32491704
0.32179662
0.32105005
0.32042104
0.31936363
0.31576129
0.31569628
0.31934317
0.32576877
0.32308846
0.33306803
0.31633497
0.32962428
0.31676276
0.33502482
0.30993166
0.31823115
-0.27211615
-0.23740935
-0.15285868
-0.15789501
-0.2111058
-0.25420535
-0.26161348
-0.27469037
-0.27523371
-0.27413285
-0.26028066
-0.23933504
-0.20717135
-0.21819264
-0.25979837
-0.28388882
-0.28603127
-0.26716636
-0.28402948
-0.28784878
-0.25297378
-0.23240929
-0.21973255
-0.20314521
-0.24587326
-0.26893061
-0.22483582
-0.20227757
-0.25663939
-0.27444631
0.090753688
0.035222236
0.057568579
0.042022016
0.042098203
0.095969741
0.11486925
0.10994648
0.1235612
0.094586097
0.086293438
0.055749032
0.069538574
0.068192073
0.048737188
0.09212638
0.10384941
0.081446957
0.10720211
0.075952457
0.079989707
0.067872176
0.087905771
0.049761258
0.09324272
0.10892054
0.072991795
0.051635377
0.053778212
0.08578536
-0.03755235
-0.098490382
-0.071757056
-0.077624561
-0.074065928
-0.057526696
-0.052417151
-0.057670376
-0.036203236
-0.031566944
-0.078620548
-0.052495494
-0.041183408
-0.041061629
-0.07307796
-0.039560294
-0.043144692
-0.082659354
-0.046530182
-0.038547278
-0.063445579
-0.047863394
-0.059260376
-0.070226038
-0.064590724
-0.038200333
-0.062757837
-0.053248232
-0.096457259
-0.037726305
0.024016439
0.011514217
0.024205043
0.0087597191
-0.015405431
-0.012255775
-0.00061138045
0.011003271
0.029774273
0.02885498
0.034461507
0.014697142
0.0052088353
0.0088015566
0.021803988
0.023156745
0.018764542
0.030660939
0.0088080454
0.00022232793
0.013757387
-0.010823368
-0.0054379242
0.016973961
-0.0058798846
-0.0025372315
-0.01696106
0.00015335649
0.014621173
0.01932335
)
;

boundaryField
{
    minX
    {
        type            fixedFluxPressure;
        gradient        uniform 0;
        value           nonuniform List<scalar> 
50
(
0.31769286
-0.27034636
0.10274283
-0.039265899
0.029987357
0.30704605
-0.28523986
0.12178142
-0.04746033
0.015623289
0.32665815
-0.26664023
0.092946218
-0.051299542
-0.00054019112
0.30894384
-0.25986301
0.10944017
-0.029932382
-0.0024475823
0.30938531
-0.25942229
0.11597338
-0.035839286
-0.00082665339
0.30578207
-0.27059252
0.1032663
-0.050950808
0.0059993754
0.30677804
-0.27585744
0.13927592
-0.043066825
0.022974559
0.30795867
-0.27838185
0.13541666
-0.035571869
-0.0006681074
0.31582607
-0.28549217
0.090342212
-0.047124321
0.014494292
0.33236627
-0.27211615
0.090753688
-0.03755235
0.024016439
)
;
    }
    maxX
    {
        type            fixedFluxPressure;
        gradient        uniform 0;
        value           nonuniform List<scalar> 
50
(
0.29894387
-0.24963474
0.13798302
-0.10224468
0.055536569
0.30195512
-0.26921069
0.13309708
-0.049535827
0.012671578
0.29766694
-0.25594306
0.092409641
-0.048665428
-0.0029327219
0.29785671
-0.24592162
0.11475396
-0.045472327
-0.012280136
0.29695953
-0.2364362
0.10032751
-0.065939222
0.0081983303
0.30911387
-0.27025694
0.11919635
-0.052364583
0.012450444
0.30571823
-0.27269153
0.11535587
-0.043294643
0.019051212
0.30816552
-0.26854659
0.093985917
-0.036974267
0.015361432
0.31224733
-0.27642381
0.087982581
-0.043427038
0.0069471159
0.31823115
-0.27444631
0.08578536
-0.037726305
0.01932335
)
;
    }
    minY
    {
        type            fixedValue;
        value           uniform 0;
    }
    minZ
    {
        type            fixedFluxPressure;
        gradient        uniform 0;
        value           nonuniform List<scalar> 
150
(
0.31769286
-0.27034636
0.10274283
-0.039265899
0.029987357
0.31563501
-0.25125557
0.072233584
-0.10577808
0.03093855
0.32794847
-0.21112665
0.067935157
-0.078712584
0.0066008174
0.31311267
-0.22498273
0.074647181
-0.064290952
-0.0085350181
0.31587674
-0.26671867
0.12035295
-0.025418145
-0.004661355
0.30609287
-0.26160532
0.064857811
-0.080594215
0.003579219
0.33600929
-0.20448756
0.037669873
-0.056469711
0.020669568
0.32032096
-0.18145712
0.05249389
-0.065332735
0.016644145
0.31293603
-0.27423197
0.075514754
-0.052978611
-0.007596267
0.31960899
-0.20297305
0.051831048
-0.056846882
0.010620655
0.30678519
-0.23385996
0.07212659
-0.042257729
-0.01170163
0.29663827
-0.24646775
0.098206382
-0.05918357
0.026818141
0.30670504
-0.26529812
0.11656571
-0.038577589
0.016405243
0.29905488
-0.27091004
0.13059424
-0.043288005
0.027888223
0.29889921
-0.27505618
0.074559834
-0.055552531
0.022470385
0.29617321
-0.24678175
0.073339098
-0.10970931
0.019869288
0.30721904
-0.21640252
0.050166208
-0.074259414
0.010686183
0.3005199
-0.23955741
0.094738577
-0.072959498
-0.012869465
0.2984409
-0.25125115
0.12053934
-0.024063478
-0.0037093047
0.30269427
-0.24315024
0.10835554
-0.050345794
-0.0035138426
0.31923538
-0.20055733
0.080894579
-0.019751002
-0.01120989
0.32062938
-0.19426933
0.072062191
-0.023266062
-0.0087737505
0.31623272
-0.20000524
0.072592504
-0.043167303
-0.016078946
0.30987801
-0.19795315
0.075579392
-0.047198564
-0.0094430607
0.30404132
-0.21221408
0.074073868
-0.05136475
-0.018423559
0.30358955
-0.22814786
0.060374062
-0.059025269
-0.018520272
0.29064624
-0.2506917
0.063437929
-0.089549242
0.0055975689
0.29365239
-0.26963582
0.08589576
-0.050519942
0.0029250506
0.29999359
-0.26081423
0.12496485
-0.067219031
0.0099316512
0.29894387
-0.24963474
0.13798302
-0.10224468
0.055536569
)
;
    }
    maxZ
    {
        type            fixedFluxPressure;
        gradient        uniform 0;
        value           nonuniform List<scalar> 
150
(
0.33236627
-0.27211615
0.090753688
-0.03755235
0.024016439
0.32522636
-0.23740935
0.035222236
-0.098490382
0.011514217
0.34568556
-0.15285868
0.057568579
-0.071757056
0.024205043
0.31998277
-0.15789501
0.042022016
-0.077624561
0.0087597191
0.31444343
-0.2111058
0.042098203
-0.074065928
-0.015405431
0.29570003
-0.25420535
0.095969741
-0.057526696
-0.012255775
0.29944558
-0.26161348
0.11486925
-0.052417151
-0.00061138045
0.30740084
-0.27469037
0.10994648
-0.057670376
0.011003271
0.30830858
-0.27523371
0.1235612
-0.036203236
0.029774273
0.31011913
-0.27413285
0.094586097
-0.031566944
0.02885498
0.30416042
-0.26028066
0.086293438
-0.078620548
0.034461507
0.31489718
-0.23933504
0.055749032
-0.052495494
0.014697142
0.31906201
-0.20717135
0.069538574
-0.041183408
0.0052088353
0.32491704
-0.21819264
0.068192073
-0.041061629
0.0088015566
0.32179662
-0.25979837
0.048737188
-0.07307796
0.021803988
0.32105005
-0.28388882
0.09212638
-0.039560294
0.023156745
0.32042104
-0.28603127
0.10384941
-0.043144692
0.018764542
0.31936363
-0.26716636
0.081446957
-0.082659354
0.030660939
0.31576129
-0.28402948
0.10720211
-0.046530182
0.0088080454
0.31569628
-0.28784878
0.075952457
-0.038547278
0.00022232793
0.31934317
-0.25297378
0.079989707
-0.063445579
0.013757387
0.32576877
-0.23240929
0.067872176
-0.047863394
-0.010823368
0.32308846
-0.21973255
0.087905771
-0.059260376
-0.0054379242
0.33306803
-0.20314521
0.049761258
-0.070226038
0.016973961
0.31633497
-0.24587326
0.09324272
-0.064590724
-0.0058798846
0.32962428
-0.26893061
0.10892054
-0.038200333
-0.0025372315
0.31676276
-0.22483582
0.072991795
-0.062757837
-0.01696106
0.33502482
-0.20227757
0.051635377
-0.053248232
0.00015335649
0.30993166
-0.25663939
0.053778212
-0.096457259
0.014621173
0.31823115
-0.27444631
0.08578536
-0.037726305
0.01932335
)
;
    }
    bottomWater_to_rightSolid
    {
        type            fixedFluxPressure;
        gradient        uniform 0;
        value           nonuniform List<scalar> 
130
(
-0.012869465
-0.0037093047
-0.0035138426
-0.01120989
-0.0087737505
-0.016078946
-0.0094430607
-0.018423559
-0.018520272
0.0055975689
0.0029250506
0.0099316512
0.055536569
-0.009740348
-0.0052994654
0.0033334058
-0.0097963885
-0.013405632
-0.0022519545
0.021628524
0.0257581
0.013476382
0.016655365
-0.009881732
0.0085458608
0.012671578
0.019020669
0.020207241
0.051216915
0.020967027
0.018554042
0.022330167
0.025215452
0.027197991
0.020410336
0.019693736
0.0045668673
-0.0097240156
-0.0029327219
0.020390939
0.033450322
0.040852847
0.014917976
0.014776236
0.018018137
0.032831337
0.043944937
0.0037457619
-0.0056922641
-0.016067526
-0.02718599
-0.012280136
0.020996839
0.025526291
0.0030830836
-0.010759722
-0.00020910378
-0.0017784881
0.015330576
0.018866392
-0.016285549
-0.013241875
0.0043350128
-0.014181367
0.0081983303
-0.013975471
-0.0050734311
0.012184174
-0.0034314014
-0.0024577814
0.0022542984
0.017124746
0.018879631
0.0023925765
-0.013930423
0.020878909
0.0037866676
0.012450444
-0.004491758
-0.022762178
0.0046606311
0.023667368
0.017794835
0.019636055
0.033145716
0.014632927
0.01893095
-0.0063534217
0.021254912
0.0095546885
0.019051212
-0.0093074337
-0.0044161161
-0.0065601495
0.016220209
0.021578632
0.030669329
0.035629379
0.035011543
0.022416563
0.020062488
0.0022383327
0.013892598
0.015361432
-0.0041421337
-0.00037759799
-0.011845677
0.0025439033
0.0033704755
0.0233315
0.037613373
0.0081163204
-0.001834321
-0.0095488643
-0.011772615
0.00086820768
0.0069471159
0.030660939
0.0088080454
0.00022232793
0.013757387
-0.010823368
-0.0054379242
0.016973961
-0.0058798846
-0.0025372315
-0.01696106
0.00015335649
0.014621173
0.01932335
)
;
    }
    bottomWater_to_leftSolid
    {
        type            fixedFluxPressure;
        gradient        uniform 0;
        value           nonuniform List<scalar> 
130
(
0.029987357
0.03093855
0.0066008174
-0.0085350181
-0.004661355
0.003579219
0.020669568
0.016644145
-0.007596267
0.010620655
-0.01170163
0.026818141
0.016405243
0.015623289
0.029619273
0.02891723
-0.0013130665
-0.00048200212
-0.0050915443
0.025380188
0.036379533
0.019045298
0.018037786
0.021494084
0.0032582019
0.0003230919
-0.00054019112
-0.0050384169
-0.0049323945
-0.010732022
0.0036520184
0.011250573
0.020920551
0.016193804
0.0092856703
-0.0026075469
-0.0052100275
-0.019834536
-0.018790621
-0.0024475823
-0.013273497
-0.0090206894
-0.025878524
0.0069758354
0.0057841239
0.0039501507
0.0086192587
-0.00048716164
-0.0033444524
-0.020078351
-0.025172669
-0.002862388
-0.00082665339
0.0061389658
-0.00065312582
0.012764611
0.022083348
0.021670037
0.041802461
0.032025337
0.027863523
0.024529032
0.011594122
-0.01669414
-0.0026137501
0.0059993754
0.026924045
0.028508226
0.0023233819
0.0055001733
0.021811
0.02302648
0.026849674
0.010924152
-0.0043356908
0.025011009
0.014151215
-0.00079735277
0.022974559
0.018626468
0.014701729
0.0067760742
0.02159032
0.00078159525
0.0024640098
-0.0052593273
0.0031891389
0.017805759
0.037423044
0.021432898
0.016254288
-0.0006681074
-0.0067534168
0.031878048
0.0022680784
-0.014345398
-0.012943836
-0.010160993
-0.0028251933
0.014783947
0.0058093187
0.032581209
0.02811764
0.023513626
0.014494292
0.0098410265
0.01026536
-0.01587106
-0.021005477
-0.013004014
0.00012691854
0.031100994
0.048565508
0.016727862
0.0074794675
0.019098021
0.023811159
0.024016439
0.011514217
0.024205043
0.0087597191
-0.015405431
-0.012255775
-0.00061138045
0.011003271
0.029774273
0.02885498
0.034461507
0.014697142
0.0052088353
)
;
    }
    bottomWater_to_heater
    {
        type            fixedFluxPressure;
        gradient        uniform 0;
        value           nonuniform List<scalar> 
92
(
0.027888223
0.022470385
0.019869288
0.010686183
0.0083926514
0.019377747
0.0346314
0.0085751477
-0.019703492
-0.0078272213
0.0085313995
0.0089650159
0.30166042
0.31140332
0.30017471
0.29488808
-0.20414721
-0.18332036
-0.21931826
-0.27168072
0.07785676
0.051842459
0.053761263
0.070097239
-0.061463719
-0.07429708
-0.08144842
-0.071719993
-0.023396731
-0.023396731
6.0396579e-05
6.0396579e-05
0.015187713
0.015187713
0.014864986
0.014864986
0.32543746
0.30148124
-0.19888604
-0.24323239
0.069611214
0.091126988
-0.027067102
-0.11174226
-0.0026137501
0.020996839
0.30988589
0.31439449
0.31896597
0.32908981
0.32500965
0.31752213
-0.25309479
-0.27650464
-0.25127499
-0.20065272
-0.21897718
-0.22072888
0.082226694
0.063309279
0.039878596
0.030329504
0.069269278
0.081807509
-0.068977507
-0.064285514
-0.062517523
-0.061111103
-0.044379656
-0.048676298
-0.00079735277
0.018953396
0.0080029987
0.0007843536
-0.013975471
-0.019968149
0.018953396
0.0080029987
0.0007843536
-0.019968149
0.019917435
0.0075212131
0.0034203279
-0.011097876
0.017074994
0.0038714217
0.010574758
0.006313746
0.0088015566
0.021803988
0.023156745
0.018764542
)
;
    }
}


// ************************************************************************* //
