/*--------------------------------*- C++ -*----------------------------------*\
| =========                 |                                                 |
| \\      /  F ield         | OpenFOAM: The Open Source CFD Toolbox           |
|  \\    /   O peration     | Version:  v2012                                 |
|   \\  /    A nd           | Website:  www.openfoam.com                      |
|    \\/     M anipulation  |                                                 |
\*---------------------------------------------------------------------------*/
FoamFile
{
    version     2.0;
    format      ascii;
    class       surfaceScalarField;
    location    "500/bottomWater";
    object      phi;
}
// * * * * * * * * * * * * * * * * * * * * * * * * * * * * * * * * * * * * * //

dimensions      [1 0 -1 0 0 0 0];
oriented        oriented;


internalField   nonuniform List<scalar> 
3858
(
-0.00020271755
0.00012412655
7.7443369e-05
-0.00025104343
2.5237905e-05
2.2440213e-05
-2.647743e-05
-0.00027708751
4.9331573e-05
6.9266062e-05
-0.00020703694
0.00011111432
-0.00012340034
0.00010047651
9.1395476e-05
-0.00020732337
5.4285451e-05
3.0959304e-05
0.00014366169
-0.00045202296
9.638214e-05
0.00022320915
-0.00021640513
0.00013538656
-6.9064678e-06
8.9363036e-05
0.00014064749
2.2273927e-06
-0.0001278192
0.00011698544
0.00012687136
-0.00012340828
-1.9125668e-07
3.7997198e-05
0.00014680637
-5.4628743e-05
3.7199e-05
0.00012262733
-0.00012071511
-3.9176253e-05
0.00013593654
-5.6848922e-05
-0.00020582596
0.00017078395
-1.2755048e-06
-0.00030562013
4.4835317e-05
5.8550861e-05
-0.00018821318
-0.00020276222
8.6724781e-05
-0.00016698847
-7.0353452e-05
5.168926e-05
-0.00026498457
0.00010779523
-6.7434139e-06
-0.00025606705
2.5068084e-05
-3.1812452e-05
-4.7093514e-05
-0.00031182559
0.000101611
0.00010119633
-0.0003134969
0.00016359478
0.00016526097
-0.00024120861
0.00017651617
0.00021626316
-0.00015625759
0.00010594927
0.00025335907
-0.00013609819
0.00010098852
0.00034428459
-0.00015724532
6.8492143e-05
0.00028730467
9.164099e-05
-2.9789e-05
0.00018232002
0.00017743168
-6.8242843e-05
8.1842264e-05
0.00014353509
-4.0407897e-05
0.0001062242
-2.1673813e-05
-0.0005162867
0.00066377563
-2.3362396e-05
-0.00042131178
-7.7536734e-06
-6.198335e-05
-7.7572106e-05
-0.0006178235
-3.0036916e-06
8.3907502e-05
-0.00050495846
0.00013644192
-0.0002053457
0.00024184902
0.00014788069
-0.00025624072
1.453739e-05
9.0643093e-05
0.00011290909
-0.00085725821
3.6085437e-05
0.00011464666
-0.00044314409
0.00022500139
-0.00028899122
0.00031871696
0.00017428396
-0.00021291488
-0.00033526062
0.00013136509
7.4010261e-05
-0.00040254771
-7.7857063e-06
0.00021989753
4.523201e-05
-4.4312905e-05
5.7198463e-05
0.00044906675
-0.00016374036
-0.00025496084
0.00058773049
-0.00013963464
-0.00052806308
0.00052651254
-8.2626346e-05
-0.00043968144
-6.9745609e-05
2.6199285e-05
-0.00020779254
-0.0005789948
0.00014434368
-0.00018361229
-0.00025021385
0.00015568014
-0.00028186648
0.0001760493
3.0000111e-05
-0.00023268085
4.9006955e-05
-7.3124501e-05
2.1970478e-05
-0.00063248523
6.6008303e-05
6.487541e-05
-0.00061762878
0.00026122694
4.5393656e-05
-0.00050714862
0.00028542176
0.00011867776
-0.00035365238
0.00012411069
0.00015997201
-0.00036021162
0.00018281918
0.00029426202
-0.00046861526
0.00017707994
0.00042497833
-4.9808458e-05
1.0733138e-05
0.00023457277
0.00045161216
-8.3774923e-05
-5.4383439e-05
0.00048222304
-4.9731743e-05
-1.4831807e-06
5.3323941e-05
8.390222e-05
0.00061692544
-3.7052047e-05
0.00013827839
-5.6564941e-05
-5.5649249e-06
-0.0001699744
-0.00018563403
-0.00012393668
-0.00017380447
-0.00046443828
-3.669012e-05
0.00029865987
-0.00031183351
8.121821e-05
0.00046912583
-8.9516988e-05
-6.6411579e-05
-1.8166306e-05
-0.00011143094
-0.00025853512
-0.00025245823
-2.5499782e-05
-0.00018335238
-0.00015045743
0.0001426557
7.4060451e-05
-0.00033362531
-0.00011202603
-4.0066705e-05
-0.0003829031
-0.00040961118
5.6341252e-05
-0.00020579416
-3.8798407e-05
-9.307852e-05
3.3360572e-05
0.00032642759
-0.00011651556
4.4784549e-05
0.00058249122
-6.1847112e-06
6.3373165e-05
0.00047742139
3.0502536e-05
2.6725882e-05
-4.8283868e-05
1.5185539e-05
-0.00037086581
-0.00011127933
-7.0123787e-05
-0.00033886123
-0.00022868453
-5.3533909e-05
3.728337e-05
-0.00024359525
4.349994e-05
0.00024954628
-0.00025417753
9.0921559e-05
0.00013948589
-0.00048818313
-3.4241718e-05
4.7934799e-05
-0.00049264604
-3.343166e-05
-2.5788882e-05
-0.00036324309
-7.0181847e-05
-6.3262567e-05
-0.0003149701
-1.2085976e-06
-7.6919059e-05
-0.00037655286
2.9997736e-05
-0.00023957728
-0.00030157861
-4.3784273e-06
-0.00021235648
-4.8882666e-05
-2.8146586e-05
-0.00014181161
0.00036907171
1.1995593e-05
-0.00011167301
0.00042281651
2.9267935e-05
-9.5854146e-05
-1.730204e-05
0.0002876158
0.00033145321
-2.1435974e-06
6.2185126e-06
0.00029897682
-7.4144496e-05
-0.00017129133
1.8289526e-05
-2.641372e-05
-0.00012864522
-0.00048716103
-1.9923361e-05
7.0070502e-05
-0.00051682933
6.2800898e-06
0.0001267793
-4.4226648e-06
-0.00014180311
-8.102559e-05
0.00017746241
-8.1088455e-05
-0.00010606452
4.2214495e-05
-4.2675346e-05
1.6432012e-05
-4.1156475e-05
6.1315655e-05
3.925702e-07
-4.5812549e-05
-5.0174041e-05
-5.38901e-05
-0.00037528148
1.9952973e-05
-0.00010072221
0.00012175138
-0.00011371768
4.4397829e-05
0.00030391092
-0.00012260337
0.00020942365
0.00038337174
3.4093658e-05
0.0003618913
0.00025314852
7.1805227e-05
0.00013436637
0.00013982787
3.9413179e-05
-9.4689565e-05
0.00012622114
-8.444546e-06
-8.7860691e-05
-0.00020111567
-3.4397753e-05
4.2959497e-05
-0.00032645423
-4.7961225e-05
1.6564159e-05
-0.00026670185
3.8919642e-05
3.2460506e-06
-0.00047270385
-2.1611875e-06
-1.5133903e-05
-0.00045179839
-2.2467706e-05
-6.8942503e-05
-0.00031134411
1.9096168e-06
-0.00012435586
-0.00024654511
-1.3011625e-05
-0.00013303941
-0.00036062134
-7.247966e-06
-0.00018939664
-0.00029655726
5.1335889e-05
-0.00030879606
3.4722767e-05
3.5793992e-05
-2.5861919e-05
3.4565904e-05
5.157167e-05
0.00025627237
0.00015329558
-1.2613355e-05
0.00032970327
-0.00016928504
0.00021829282
0.00011316037
0.0004733827
4.3886918e-05
0.00051678317
-2.5110949e-05
5.2627163e-05
-2.3005026e-05
-0.00038256044
-8.1641719e-05
-0.00031584919
-7.1133913e-05
-4.7600499e-05
-9.0786267e-05
0.00011845245
-0.00012383845
0.00012580316
-4.8507185e-05
8.6181485e-05
-6.1908706e-06
-0.00023254965
-5.6550345e-05
-0.00020817603
9.7377772e-05
-3.0522768e-05
0.00012625766
0.00015397717
0.0001988718
0.00027252852
0.00013459716
0.00036066462
5.1691772e-05
0.00044644719
4.0438563e-05
0.00029349759
-4.8166082e-05
0.00016365181
-0.00019660846
0.00017361215
-0.00027666221
-4.1761898e-06
-0.00029491552
-0.00020875391
-0.00024722067
-0.00025565294
-0.00026444509
-0.00022855742
-0.00027364063
-0.00032734335
-0.0002618354
-0.00044568246
-0.00017821814
-0.00035886484
-5.2094855e-05
-0.00033254953
8.2505989e-06
-0.00025652851
7.7274562e-05
7.3174767e-05
-4.1139593e-05
0.00015981676
-4.0182471e-05
-3.9850764e-05
8.188858e-05
-5.9027103e-05
8.0188315e-07
6.599723e-05
-5.6522218e-05
5.3617543e-06
0.00013238705
-2.3131767e-05
1.1374045e-06
0.00013539406
-3.9175258e-05
-5.0915541e-05
0.00018375858
-9.8637894e-05
4.9659383e-06
4.7586664e-05
-4.0536284e-06
7.7274643e-05
6.0797618e-05
3.3972604e-06
3.8145818e-05
0.00017577928
4.5970707e-06
5.5261203e-05
0.00013811984
-3.7403356e-05
3.4774355e-05
0.00016603296
-0.00014256846
-9.0556596e-06
0.00017261002
-0.00018077375
-4.1410334e-05
0.00013681343
-0.0002229871
-0.00010988393
0.00015638229
-0.00014114379
-0.00016048803
0.00014267185
-9.0915409e-05
-0.00023816381
0.00014684748
-7.6192e-06
-0.00029057231
0.00013131376
1.1667147e-05
-0.0003015449
0.00011588444
-4.9338159e-05
-0.00023122995
-7.3316747e-05
-1.0498959e-06
1.2881635e-05
-0.00036283635
8.4929808e-05
0.00015065962
-0.00021254365
0.00017415651
0.00011788908
1.250856e-05
0.00018287563
5.6240582e-05
1.924088e-05
0.00021851517
0.00022167391
-0.00025265018
0.00019016183
0.00033233111
-9.3304108e-05
8.4655229e-05
0.00029809526
9.8255525e-05
7.1882703e-06
0.00026208413
0.00012170732
-0.00011279497
0.00020053605
0.00012742195
-0.00013055029
0.00010798518
0.00015718139
-0.0001022955
0.00015158966
-6.3118253e-05
-0.00026507877
0.000487255
-8.5721881e-05
-0.00012286057
-5.3329853e-05
-6.8983124e-05
4.12012e-05
-8.7386402e-05
-1.3681835e-05
0.0001585888
0.00013867633
1.2765047e-05
-4.3564942e-06
0.00051565779
-6.9437747e-05
-6.5535513e-05
0.0004211038
-8.5523095e-05
0.00015427026
-0.00013315872
-2.9749486e-06
0.00027063643
4.1506494e-05
0.00012792635
-7.1431329e-05
0.00067237328
1.9757724e-05
-0.00013879476
0.00031524249
2.1605869e-05
6.8281907e-05
4.2606112e-05
-9.1435532e-05
-3.2960949e-05
0.00054165299
-0.00031211302
-0.00023136476
0.00053266547
-0.00036118858
-0.00029316275
0.00029695268
-0.00021840704
-0.00035340467
0.00022684358
-0.00010655615
-0.0002543095
4.6503235e-05
2.7448356e-05
-0.00022616085
7.3512726e-05
0.00017399606
-0.00016950982
2.1296045e-05
0.00019361749
-4.6552686e-05
-0.0003189931
0.00015271932
0.00012948812
-0.00072086841
0.00010886675
0.00024841667
-0.00049065956
0.00022519566
4.3688765e-05
0.00010418152
0.00037428187
-0.00015191445
6.8176005e-05
0.00043208984
3.1296726e-05
-0.00056826083
0.00025651017
0.0002198186
-0.00033490873
0.00023590193
0.0002637242
4.8535812e-05
0.00018289406
0.00028890754
0.00019633319
-8.9076064e-05
0.00027339494
0.00017752773
-0.00011836811
0.00015532388
0.00040118227
-0.00017566156
0.00050010664
-0.00013986916
5.1379025e-05
0.00041745525
-1.8631348e-05
-4.1775731e-06
-0.00013147829
0.00012814009
-0.00014355622
-0.00013640283
6.4458381e-05
-3.2082411e-05
-0.00010020557
9.0717971e-05
0.00017423944
0.00012450331
0.00026605085
0.00018696223
0.00028263794
5.9331493e-05
6.3807396e-06
-3.631892e-05
-0.00017479342
-3.6274437e-06
-4.4756036e-05
-8.7081666e-05
-1.6938944e-05
0.0005985059
0.00016123933
-0.0001291293
0.0001607034
0.00022666274
-0.00012390758
-6.4854687e-05
0.00015858033
-0.00014082977
0.000458261
7.2356627e-06
-0.00010639791
0.00042228468
-4.0566638e-05
-5.9676345e-05
0.00019595955
4.8086857e-05
-4.2146042e-05
8.6462381e-05
0.00015335343
-6.9768662e-05
-5.8841058e-05
0.00014815245
-9.3643096e-06
-9.074962e-05
3.3734198e-05
0.00028886146
-0.00031098456
-1.947908e-05
0.00033348152
-0.00025876113
-6.1352103e-05
6.3752853e-05
-0.00013100419
-0.00022921401
-5.907558e-05
-0.00019041126
-0.0002116616
0.00015497645
-0.00016603973
2.2737553e-05
0.00017910168
-5.2021765e-05
2.5890692e-05
-0.0002790119
-8.1159347e-05
-3.0196503e-05
-0.00049678391
-8.5158426e-05
-1.9805589e-06
-0.00036213084
-5.393367e-05
-3.6562006e-05
-0.00020957632
4.1603098e-05
-2.5971008e-05
-7.0255976e-05
-4.8326733e-05
9.8529717e-05
-1.5531706e-05
0.00029846545
7.726049e-05
0.00049049827
-2.3225372e-05
0.0003623332
0.00010668937
-5.3710941e-05
8.8668394e-05
0.00023539452
-0.00016735252
-0.00029901119
0.00030342852
-7.8565493e-05
-0.00031702746
-0.00011666814
1.4555475e-05
3.9667114e-05
-0.00035262229
0.00012671112
0.00026583651
-6.5117853e-05
-2.0216708e-05
8.0170209e-05
0.00020626354
-0.00013800461
-0.00012851784
0.00027297067
-0.00015171401
9.5792895e-05
0.00027485117
0.00016065965
-3.5622666e-05
0.00010109166
0.00014085326
-0.0003254123
0.00020107831
4.3809612e-05
-6.8521311e-05
6.3191952e-05
2.4460384e-05
0.00023027631
2.4052494e-05
-2.3168795e-05
0.00032654199
0.00011666051
1.7127021e-05
0.00031790134
0.00016482415
2.0841044e-06
7.580565e-05
0.00024202482
-1.9357013e-05
6.2433818e-05
-6.1528013e-05
-2.4294335e-05
0.0001516193
-0.00037315987
-6.1407938e-05
0.00021612406
-0.00021610058
-0.00015512656
0.00011512956
8.9321937e-05
-8.0411996e-05
0.00013125218
-0.00015717498
-5.1520105e-05
0.00025190036
-0.00023346384
-7.5691778e-05
0.00013060752
9.9497588e-05
-2.8316903e-05
-0.00017175536
0.00024653113
-3.8339218e-05
-0.00043453229
0.00021899578
-4.8625246e-05
-0.00045671869
0.00011845676
-9.8868127e-05
-0.00043759707
0.00013354128
-7.5265809e-05
-0.0002885869
-0.00020926311
6.3497887e-05
-7.8824426e-05
-1.3574777e-07
7.6225377e-05
0.00027443026
-3.2041456e-05
5.0700688e-05
0.00016914903
0.00015343679
0.00017654532
0.00027853792
0.00015321644
8.6439282e-05
5.2425466e-05
-0.0002790526
-6.8772124e-05
-0.00033666807
-7.8636292e-05
-0.00017581131
-4.5379476e-05
-1.2865196e-06
-2.5392563e-05
0.00012214473
0.00010291274
6.0847204e-05
0.00015619832
5.5054584e-05
0.00015032059
-2.123799e-06
0.00021774811
-0.00010505079
0.00025323715
-2.1866434e-05
0.00023234795
0.00013300315
0.00014455172
0.00038062036
4.6099377e-05
0.00039821759
-3.8686689e-05
0.00012240281
-0.00014551119
-6.775446e-06
-0.0002835308
0.00011652721
-0.00031064293
-3.9877009e-05
-0.0002956863
-0.00027743746
-0.00024312408
-0.00027858862
-0.00016379634
-0.00017511375
-0.00013058438
-8.0668826e-05
-0.00013728454
-1.3638435e-05
-0.00012679177
0.00012651729
-5.8709295e-05
-6.725952e-05
-7.2356961e-06
-0.00016792487
0.00017780417
0.00017968015
-0.00013354762
2.3611783e-05
6.656409e-05
-8.3616216e-06
-0.00025917131
7.1325177e-05
0.00022587316
-0.00023849059
-5.5652005e-05
0.00028973061
8.9590011e-07
-8.8058299e-05
0.00018836896
0.00012842488
-6.5283342e-05
3.7018565e-07
0.00015018758
-6.0665951e-05
-0.00011272765
0.00015102939
-4.4469106e-05
-0.00021824614
0.00016329611
-5.50731e-05
-0.00028614042
0.00011883161
-4.6389427e-05
-0.00015803668
-9.9842075e-05
-6.6429323e-05
6.4738585e-05
-0.00026955603
-9.8752801e-05
1.6205723e-05
9.604659e-05
-0.000223488
-3.1066601e-05
2.1185857e-05
-0.00019557905
1.6389447e-05
-4.6476845e-05
-0.00013846336
0.00019290607
-0.00019433166
-7.2358787e-05
0.00018286836
7.4283322e-05
-6.6209698e-05
6.9658638e-05
0.00017094065
-4.2265318e-05
-2.985924e-05
0.00015557565
-0.00010292726
-6.9357731e-05
0.00011961534
-7.8808602e-05
7.8109747e-06
2.7305299e-07
8.3660747e-06
5.463067e-05
0.00010467511
2.4712939e-05
4.0189721e-05
0.00014579755
5.1731238e-05
-4.3840515e-05
0.00015198831
0.00015196911
-3.5545294e-05
0.00010924486
7.217865e-05
-7.3503788e-05
0.00012986241
-8.7096698e-06
-7.9066158e-05
3.9388466e-05
-2.8827728e-05
0.00011749508
-0.00028225261
-2.9443253e-05
0.00025868823
-0.00022566869
-4.5261614e-05
0.00016112539
0.00012538885
-0.00012507967
0.00016816612
-6.6994288e-05
-0.0003510293
0.00029789097
-8.9717795e-06
-0.00011615631
-0.00059933052
3.6303087e-05
0.0002139871
-0.00053343836
-4.887749e-05
0.00045597945
-9.3693014e-05
-0.00013463838
0.00043487035
0.00018393444
-0.0001038382
0.00027256977
0.00030192618
-7.4961111e-05
-0.00013695238
0.00058637204
-2.8795451e-05
-0.00044841664
0.00058605908
1.6627643e-05
-0.00050850465
0.00021064427
-1.1966927e-05
-0.00032407771
-0.00028289522
2.0232074e-05
8.7508436e-06
-0.00063717945
-5.6640662e-05
2.6508597e-05
1.2071903e-05
-0.00024589608
-0.00014548605
8.3286484e-05
-0.00025129456
-6.8912066e-05
-0.00020566174
-0.00013579613
0.00017722916
-0.00051146652
-3.556252e-05
0.00031443327
-3.2780118e-05
-2.6923104e-06
0.00016491482
0.0004294609
6.4994262e-05
-6.9058715e-05
0.00057196651
1.120016e-05
-0.00016224535
0.00037111308
-5.5917842e-06
8.3395273e-05
-0.00011188825
-2.4612582e-05
0.00028973129
-1.1284528e-05
0.00013481928
0.00013422257
0.00050034183
0.0001752463
-2.7306569e-05
0.00055122042
0.00019438687
-0.00012988883
0.00046769531
6.4198858e-07
-0.00032797681
0.00066756228
-0.00010370996
-0.00032760624
0.00022529224
-3.380283e-06
-7.3260237e-05
-0.00061672594
-8.9487389e-06
0.0001490584
-0.00055918884
-7.1665888e-06
0.00020643657
6.224609e-06
-0.00011387549
0.00038643124
-0.00015169771
0.00013634208
0.00017097079
-2.805327e-05
-0.0001290675
-0.00014090246
-6.4878399e-05
-0.00027486205
-0.00035683162
3.3646176e-05
4.2398021e-06
-0.00041587468
0.00013379778
0.00010896477
6.3267209e-05
0.00028199311
0.00011443365
0.00019288577
0.00016290303
4.6073031e-05
0.00048367858
-3.7393354e-06
-1.0429125e-06
0.00049080368
5.5289681e-05
0.0001045063
9.5473413e-05
0.00017086098
-7.5410754e-05
-0.00013398646
0.00025767104
-0.00046773653
-0.00012886281
4.2589471e-05
-0.00029240063
-0.00026457792
0.00010854959
5.094492e-05
-0.00039010569
8.9479984e-05
0.00011842306
-0.00032095996
9.5906933e-05
-0.0001885111
-0.00016855556
0.00011737663
-0.00016112739
-7.5483291e-05
0.0001634719
-9.5780237e-05
0.00029427136
0.00010357657
-9.3478493e-05
0.00051794673
3.2238947e-05
2.1236325e-05
0.00027855894
-8.3512802e-05
-5.4354599e-06
-0.00010456295
-0.00020986754
1.5116781e-05
-6.0363967e-05
-0.00018313441
9.2923441e-05
0.00041216076
3.3111964e-05
6.1563914e-05
0.00047650939
0.00013196125
-2.4356515e-05
0.00041687564
0.00010654359
-1.839222e-05
0.00060485939
5.4758041e-05
0.00014987571
9.5391224e-05
-7.4928913e-05
-0.00012578615
-0.00010608782
-0.00026094727
-0.00037521664
-0.00013414546
-7.7083162e-05
-0.00018042746
-0.00020346211
9.2158034e-05
0.0001892621
-6.4836902e-06
0.00022625554
8.2828513e-06
-0.00011727857
5.5849313e-05
3.7008979e-06
-0.00014154968
-7.3531525e-05
-0.00026806283
-3.7953459e-05
-7.1602164e-05
-0.00039954533
-3.7032428e-06
-8.5747534e-05
4.6532461e-05
0.00015759124
-9.7709797e-05
0.00013942137
4.520996e-05
4.3037801e-05
0.00022192154
-1.6995168e-05
0.0001895058
0.00019429584
-1.6741701e-06
0.00022163296
1.7207475e-05
0.00020679844
0.00014743826
-0.00011708861
0.00019815012
-1.0295571e-05
-5.1878152e-06
7.7868454e-05
-6.1689626e-05
-0.00025477563
6.605215e-05
-5.7759776e-05
-0.00044661886
2.9414534e-05
-0.0001097615
-0.00030597702
5.4145812e-05
-0.00018989654
-0.00010816887
2.183245e-05
-0.00034169834
4.8219635e-05
8.7418533e-06
-0.00017112392
2.8083095e-05
7.1319499e-05
7.2462706e-05
0.00017818108
3.4771069e-05
0.00014021639
0.00017154677
-0.00011586809
-0.0002360253
0.00034597755
-0.00015471082
-0.00032773243
0.0001717561
-0.00019193306
-6.582931e-05
0.00016856479
-9.3998937e-05
4.0481795e-05
0.00028469596
5.7185419e-05
5.1596412e-05
0.00027166665
9.5755162e-05
0.00019604885
0.00032582556
8.595615e-05
0.00011920472
0.00021984765
-0.00014648042
-0.00012493396
0.00022776879
-0.00016498374
-0.00021318904
5.125616e-05
-3.3648641e-05
-0.00018108217
-0.00024460024
8.5256638e-05
-0.00010308905
7.9227531e-05
9.8505797e-05
7.892606e-05
0.0001788411
9.9910899e-05
-3.5792293e-05
9.9786996e-05
-0.00033845478
-4.4457378e-05
-0.00029773582
-6.2958617e-05
-0.00017233587
-6.4614861e-05
4.473855e-05
-4.0532348e-05
0.00020605758
7.5842493e-06
0.00027944469
4.673311e-05
0.00025315985
6.539455e-05
0.00028659263
0.0001117
0.00011260771
0.00013695741
-0.00018151706
0.00010074306
-0.00036914206
0.00011399592
-0.00037116933
3.8410125e-05
-0.00027048116
-6.36917e-06
-0.00022065488
-6.0429885e-05
-0.00012266576
-6.5319251e-05
-8.1116493e-05
-0.00015353331
3.4355734e-05
-8.0137618e-05
-4.0943708e-05
-4.8630763e-05
-0.00012246712
6.9641268e-06
-5.5851953e-05
5.4284445e-05
4.2349126e-05
4.2881191e-05
0.00019459858
3.6291573e-05
0.00024038572
4.7268742e-05
0.00032901268
8.0432537e-05
0.00030716212
6.5871031e-05
0.0001016169
0.00013874915
0.00017820801
-0.00016831322
0.00010135495
0.00013428833
-0.0001628168
-5.4826549e-05
0.00012212054
4.700472e-05
-0.00030154362
3.4335442e-05
0.00019102461
-0.00022919526
-2.877682e-06
0.00029607996
-0.00023920837
6.7797733e-05
0.00026454198
-0.00011014952
8.0576485e-05
4.3771473e-05
0.0001080204
6.7421159e-05
-0.00020558768
0.00012907645
6.3561895e-05
-0.00024880315
-7.4101986e-05
6.9126471e-05
-8.9851206e-05
-0.00027389659
4.5935274e-05
-0.00010682839
-5.1800003e-05
-2.8987303e-05
-4.0962374e-05
-0.00026534651
-2.5193908e-05
0.00012731613
-0.00036431266
-1.3652568e-06
0.0001518321
-0.00016058559
0.0002948004
-0.00021488695
0.00032917944
-9.7717912e-05
0.00016699064
0.00012382482
7.520967e-05
0.00014549508
-0.00015572918
4.0824552e-05
0.00015104889
-0.00019380063
3.3055633e-05
0.00014553936
-0.00012750538
1.8136954e-05
0.00018665234
-0.00014556155
1.4383774e-05
0.00014111494
-8.4854701e-05
-1.0437875e-05
0.00015774271
2.1088894e-05
-3.3158787e-05
0.00011814403
-2.1560313e-05
-6.5938864e-05
9.4964546e-05
-6.8132219e-05
-0.00012518834
0.0001443419
-0.00011113709
-0.00015426546
7.8724957e-05
-7.7155134e-05
-2.6325858e-05
-0.00013518113
-3.7898852e-05
0.00014728266
-0.0002816177
-1.6443656e-05
0.00010709206
-2.3766852e-05
-0.00029128915
0.00031361597
7.0056339e-05
-0.00016652663
-0.00021140831
6.8122319e-05
8.8744253e-05
-0.00061045334
4.7613428e-06
0.00027324279
-0.0004996938
-4.8638372e-05
0.00040694862
-0.00057040225
9.3649858e-05
0.00044121223
-0.00037396267
0.00015458844
5.3319461e-05
0.00034070799
0.00012640974
-0.00045924471
0.00057219054
8.6077734e-05
-0.00043312001
-0.00025017936
0.00013798575
-0.00015919058
-0.00061564172
8.8047771e-05
-9.2746474e-05
-0.00013795655
-3.6928216e-05
-4.62591e-05
-0.0005742681
1.6538131e-05
2.450432e-05
-0.00069378952
7.4188848e-06
0.00010727322
-0.00037915062
0.00033326601
-0.00047644225
0.00053940883
-0.00030655305
0.00046451988
0.00026370803
0.00027641862
0.00058247095
-0.00023767446
5.8351747e-05
0.00064041984
-0.00027689586
0.00013789961
0.00011988079
-7.8501881e-05
0.00014421127
0.00043892191
-0.00012376195
-3.9434495e-05
0.00055083125
-5.0824257e-05
-0.00021441714
0.00049665353
3.0458703e-05
-0.00023350268
0.00021058879
-7.2717226e-05
-0.00021846068
0.00010164158
-0.00012542901
-0.00035098276
0.00037894385
-0.00010546015
-0.00029425982
6.3378945e-05
-5.032567e-05
-0.00010656078
-0.000331201
1.1542473e-06
9.8112517e-05
-0.00066000027
5.9833788e-05
3.6687536e-05
1.6819335e-05
0.00015468604
0.00012728533
3.5913041e-06
0.00025914832
-0.00029744498
-8.3304029e-05
0.00016962036
-0.00046628971
-2.09895e-05
0.00022096309
-0.00037328591
-4.3952837e-05
2.7379452e-05
-9.6548559e-05
1.7230654e-06
-7.7116303e-05
-0.00012789929
2.1335418e-05
-2.1284282e-05
0.0002326239
4.8512732e-05
7.3775442e-05
0.00048554874
4.6871759e-05
8.1226361e-05
-9.0061861e-05
3.2925629e-06
-0.00021723009
-9.6262871e-05
3.6748648e-05
-6.3563065e-05
-0.00021208307
-3.695103e-05
1.9796423e-05
-0.00053376324
-1.531475e-05
3.780318e-05
-0.00059979548
-2.2520808e-05
0.00013796945
-0.00038340996
-9.3128894e-05
-0.00012796727
-0.00013136462
-0.00010484543
7.8322292e-05
0.00015759768
0.00011622158
0.00054741893
2.9391673e-05
0.00011691448
0.0005708348
-1.4620677e-05
2.3323633e-05
1.0055753e-05
-6.4516701e-06
-9.6043044e-05
0.00035891576
1.6238413e-05
-3.9959167e-05
0.00053016602
-2.306681e-06
2.4527854e-05
0.00045325714
0.00011087061
2.5142929e-05
0.00011858272
0.00019793458
-5.060692e-05
4.3628249e-05
0.00018852123
-4.8940903e-05
0.00029382754
8.5213784e-06
5.2746693e-05
-0.00010243165
-0.00019682427
-3.6633012e-05
-0.00022136644
-9.7538013e-05
-0.00024864529
-0.00041766996
6.184e-05
-0.00031873675
0.00010029532
0.00019762695
-9.5530954e-05
-9.2089266e-05
0.00010521719
-0.00032330567
-2.3279249e-05
2.4432641e-05
-0.00044202647
1.8567837e-05
1.2241363e-05
-0.00032681339
-3.798448e-05
-5.1576588e-05
0.00012382309
1.0375463e-06
-0.00015302695
6.5509171e-05
-4.6748135e-05
-5.2899452e-05
8.7622477e-05
2.7878767e-05
0.00015801289
0.00018308606
8.9876175e-05
0.00014359902
3.3866347e-05
9.7284108e-05
4.9933828e-05
4.0844174e-05
0.00015470827
9.3588688e-06
-0.00021314572
0.00011950607
4.0065662e-05
-0.00052998264
3.1564761e-05
6.1888881e-05
-0.00055494068
-3.7263482e-05
0.00011196317
-0.00037933844
-3.2869157e-05
3.8697504e-05
-0.00029124809
0.00016227535
-0.00018920636
0.00012687544
4.4610478e-05
0.00033437482
1.3998325e-05
0.00010707991
0.0003539713
3.8525962e-05
-0.0002301708
0.00031401028
-0.00012141465
-0.00017892514
0.0001090168
6.7202247e-06
0.00013532398
6.771841e-05
5.4199546e-05
0.00035044954
0.00019914513
9.6171866e-05
0.00019164717
0.00027329923
9.9841027e-05
-1.819466e-05
0.00034844903
-9.0228014e-06
4.4317412e-07
0.00017522547
-4.6516171e-05
-0.00010721176
5.5121013e-05
-0.00021488146
-3.1630434e-05
-0.00021833326
-0.00011226314
2.6880581e-05
-0.00042163978
3.0715454e-05
-0.00033734812
0.00012471948
8.8895268e-05
-0.00010550018
2.7447712e-05
-0.00016194724
-0.00019035266
-0.00012443911
-0.00040414256
-0.00015748088
-0.00025151315
-9.1764929e-05
-0.00014486398
-0.00010575486
-2.5053914e-05
-7.2719928e-05
0.00017296677
-7.350367e-06
0.00029986742
-4.6301188e-05
0.00043593838
-2.9832238e-05
0.00040982873
-7.5336064e-05
0.00010433213
-8.7528627e-05
-0.00025332827
-9.6537209e-05
-0.00051867078
-0.00044156316
-0.00028565698
-0.00021921143
-7.1195098e-05
0.00012103922
6.6805595e-05
6.2437283e-05
0.00015750368
0.00014317456
6.2766653e-05
0.00015512306
-7.1626279e-05
0.00020907546
-1.4947865e-05
0.00019675116
0.00011230026
0.00018893229
0.00031997545
0.00017706542
0.00040588731
0.00013658236
0.00044641579
9.5025073e-05
0.00039044374
-9.6490172e-05
0.00016624405
-5.8690937e-05
7.1039434e-06
-0.0001299315
0.00012107173
0.00014386634
-0.00019695702
5.8414441e-05
0.0001335228
1.6144905e-05
-0.00028576925
0.00010572084
0.00021099313
-0.00032074378
0.00012203852
0.00020177968
-6.0739587e-05
0.00013895438
4.4465859e-05
0.000107557
0.00013011561
-0.0001262616
0.00011549825
0.00012007229
-0.00029065293
0.00015854612
6.8513728e-05
-0.00035622253
7.0122678e-05
6.4778809e-05
-0.00017606278
-0.00026301338
0.00012485539
-6.2330555e-05
-0.00027131642
0.00012445267
-8.6295343e-05
-0.00015340386
0.00014975837
-0.00024533836
0.00015493707
-1.3002108e-05
8.111365e-05
-0.0002214805
-5.3994959e-05
9.186304e-05
-0.00024244871
8.0693423e-05
-0.00017192049
-9.2431364e-05
-2.4950144e-07
0.00010799853
-0.00017018467
-0.00016918412
0.00014116578
-5.8174849e-05
-0.00025158298
0.00015194021
-4.6354534e-05
-0.00014383108
-0.0002065924
7.5434559e-05
4.2740603e-05
-0.00029537582
3.8213009e-05
0.00020573344
-0.0001819216
-9.2842205e-05
0.00018924716
4.6781651e-05
-0.00010694171
7.0943583e-05
0.00010885272
-2.7926412e-05
0.00016752848
-0.00020851144
9.4557521e-05
0.00012871406
1.8271174e-05
-0.00027744522
0.00032397916
0.00014459412
-0.00021329623
-3.9531853e-05
0.00010191961
7.3559768e-05
-0.00060221892
3.4355012e-05
0.00028767687
-0.00069060019
0.00010710094
0.00043358886
-0.00021423809
0.00010123638
0.00031733952
0.00031880955
5.9585238e-05
-0.00014234011
0.00070242339
-8.3576684e-07
-0.00049564986
0.00061397952
-1.6045913e-05
-0.00041660354
2.1586622e-05
0.00010747549
-0.00018272094
-0.00060887735
0.00020002914
-0.00012872567
-0.00058509726
0.00022285736
-0.00011078678
-0.00036537428
0.00021056967
-0.0005207725
0.00017206625
7.3333242e-05
-3.115207e-05
-0.00019874198
-3.7395098e-05
0.00014930752
-0.00022361202
0.00013837276
-0.00040685158
-1.933865e-05
0.0001749729
4.9787643e-05
-0.00010215121
-0.000108814
0.00040450086
-3.0372441e-05
-0.00016532359
0.00012673238
0.00011217613
-0.00012189406
-0.00054936622
0.00022662706
-3.9005083e-05
-0.00062621485
0.00012252104
0.0002387069
-0.00047462359
-9.0470138e-05
0.00027862822
5.6080826e-05
-9.9546159e-05
-0.00010518639
0.00051300873
-1.9187143e-05
5.0109653e-05
-0.00046498802
0.00016101433
-1.7519042e-06
0.00019739495
0.00028100774
-4.4424447e-05
9.0987147e-05
0.00036414092
-0.00015044727
-5.5521811e-05
0.00012949927
-0.00028844523
-0.00010012154
-0.00024576297
-0.00010734657
-0.00025194423
-0.00023102713
-7.8640873e-05
-0.00014860998
-1.9553146e-05
0.00023405979
-0.0001053888
3.5354237e-05
0.00069987294
-3.8441981e-06
0.00015340893
0.00054651764
-3.7210473e-06
0.00033038244
-5.4732083e-05
-9.7362246e-05
6.0550076e-05
-0.00011802936
-0.00018426697
-0.00017141079
-0.00014557683
-0.00024451059
-5.9745583e-05
-0.00033560428
-0.00015674995
-0.00050403741
-9.9001469e-05
-2.3325139e-05
-5.751802e-05
7.908275e-05
-3.7941947e-05
6.0261976e-05
8.9041668e-05
-0.00030557779
-0.00011020223
-3.5465195e-05
-6.2425848e-05
-0.00034789121
0.00017076532
0.00028933721
-7.5900647e-05
0.00012633176
0.00048478486
-9.2444613e-05
0.00013459994
0.00018874963
-0.0001092575
5.3861094e-05
-0.00017830912
-9.0000967e-05
1.9366105e-05
-0.00022802169
-0.00037131076
-4.5078882e-05
4.0151537e-05
-0.00040513987
-3.7768005e-06
0.00012503838
0.00022433985
0.00010624403
-0.00014407182
-0.00019773521
6.3697394e-05
-0.00014812676
0.00010259836
0.00013314545
-0.0002685897
-1.0694919e-06
2.2116244e-05
-4.4919468e-05
-1.7777872e-05
-3.1083338e-05
-0.00019692836
-1.9749472e-05
-0.00015300304
3.3626185e-05
-5.7037536e-05
-0.00028207557
0.00011038269
-5.891349e-05
-0.00016411765
0.00017920677
-0.00010985303
9.0198007e-05
0.00044503279
2.8403271e-05
0.00031657007
0.00029968195
0.0001103398
0.00022488857
0.00020070757
-6.647404e-05
4.8228445e-05
0.00019740721
1.5931831e-05
-3.4108872e-05
6.9830964e-05
-1.3564401e-05
1.356416e-05
-0.00027835817
-7.335438e-05
-0.00047289859
-5.4838137e-05
-1.7791299e-05
5.9441997e-05
-8.517041e-05
-0.00021187975
0.00038398549
-9.1109117e-05
-0.00025865404
2.0888545e-05
-0.00020573114
-0.00015621553
-0.00044575177
2.1422656e-06
8.784129e-05
-0.00043301226
0.00016725433
0.00020770008
-0.00018360585
6.7474309e-05
6.9256475e-05
0.0001138255
1.5201626e-05
1.3831757e-05
0.0001274745
-0.00017107354
2.7882657e-05
-0.00032334413
-0.00010853369
1.2948174e-05
-0.00047036641
-0.00013472042
0.00024698945
-0.00018985786
6.7893289e-05
0.00021015092
-0.00014940142
1.9220205e-05
0.00012145433
6.528931e-05
-0.0001783342
-0.00019575571
-0.0001779888
-0.00020721212
-0.0003059233
-0.00019343298
-0.00034037852
-8.9399478e-05
-0.00030727302
-1.4487728e-05
-0.00020840503
-2.5416081e-05
8.668709e-05
7.7220751e-05
0.00027252959
0.00010648909
0.00033112639
9.5809586e-05
0.00041118836
8.7513009e-05
0.00051119447
-0.00010551121
0.00036475742
-0.00021944973
-0.00020467839
-6.3595027e-05
0.00024407623
0.00020245247
0.00018037526
0.00030518414
6.1331425e-05
6.0375171e-05
-4.5819746e-05
-0.00016537534
1.8137053e-06
-0.00015741071
5.180682e-06
0.0001069393
3.840779e-05
0.00040480175
6.6774703e-06
0.00029604155
-7.8001566e-05
1.0948235e-06
-8.039461e-05
-0.00012837743
-0.00015687577
-0.00018529721
-0.00015117258
-5.6738935e-05
-9.1017573e-05
0.0001520236
8.4302016e-05
-0.00012209813
9.8675067e-05
6.9118042e-05
8.8827066e-05
-0.00022765977
0.00012233194
6.7671911e-05
6.8159807e-05
7.8888369e-05
-1.2625641e-05
0.00014901035
7.1857261e-05
-7.2271508e-05
0.00016095471
2.9698653e-05
-0.00013936326
0.00014240242
4.5435061e-05
-0.00017640287
0.00014211518
-3.5716539e-05
-0.00019497998
0.00016555303
-8.1307243e-05
-0.00015530441