/*--------------------------------*- C++ -*----------------------------------*\
| =========                 |                                                 |
| \\      /  F ield         | OpenFOAM: The Open Source CFD Toolbox           |
|  \\    /   O peration     | Version:  v2012                                 |
|   \\  /    A nd           | Website:  www.openfoam.com                      |
|    \\/     M anipulation  |                                                 |
\*---------------------------------------------------------------------------*/
FoamFile
{
    version     2.0;
    format      ascii;
    class       volScalarField;
    location    "500/bottomWater";
    object      T;
}
// * * * * * * * * * * * * * * * * * * * * * * * * * * * * * * * * * * * * * //

dimensions      [0 0 0 1 0 0 0];


internalField   nonuniform List<scalar> 
1460
(
970.19965
968.7826
967.91361
967.23266
966.83029
964.64628
962.68274
961.97197
957.99515
949.76122
949.71979
949.96543
944.49565
944.80527
943.50917
939.17081
936.03005
934.94242
933.87421
930.35979
927.05406
926.05363
926.73724
927.91805
929.33253
930.80328
933.57641
936.38851
939.49622
944.58421
969.43254
968.85198
968.25929
966.80228
965.22491
963.76809
963.57031
959.05469
953.5199
948.80463
947.49982
945.59466
941.70916
939.00573
937.23354
934.99489
933.64829
931.09989
929.59605
927.61558
926.32365
925.57436
926.03402
926.96173
927.92344
929.77514
930.49711
932.05116
935.15781
940.95546
969.82596
969.66612
968.51288
966.96402
963.3267
964.20102
963.91184
956.25932
952.87457
949.12928
946.74474
942.57122
940.17497
939.46174
937.83653
936.70125
934.07157
931.45981
929.8356
927.89813
926.27435
925.57119
926.19508
927.35556
928.68068
930.80463
932.02608
932.50741
934.62701
933.21958
970.06642
970.74119
969.12341
968.43093
962.20457
965.89939
962.6792
956.15209
953.56913
952.98119
949.43301
943.02816
939.3022
939.94377
938.73076
938.6805
937.86267
933.68454
929.87535
927.49602
925.27434
925.34982
926.3006
927.45937
928.74197
930.35177
932.30166
932.50265
934.4116
934.44046
970.1686
970.41103
970.35958
970.10159
962.22373
961.33013
960.99253
957.98087
954.82917
953.27046
947.80287
940.49846
939.33602
939.17446
938.04319
937.21574
936.5781
934.94991
930.21113
926.84075
925.08645
925.36513
926.3188
927.28824
928.49731
929.47203
930.58712
931.65509
932.76863
933.28574
975.36003
974.94701
972.36098
970.57082
970.25663
970.67243
966.44788
965.96885
961.15812
954.20215
953.34995
950.93144
939.19566
935.2641
938.08614
938.79591
936.40295
933.70595
931.35705
928.71282
928.22268
928.48163
929.08779
928.29677
930.34249
932.76183
933.98513
935.34063
937.04148
940.20042
973.48245
972.57877
971.03131
968.33975
967.85491
967.75623
965.55222
963.52993
960.14597
951.70103
951.36787
950.2818
936.06103
932.94728
935.4472
935.39987
933.37838
931.29116
929.5996
928.57665
927.61912
926.63219
926.76966
928.26662
929.00715
929.76929
930.7686
931.83567
932.80802
935.69877
973.58339
972.92442
968.47528
967.45851
966.94769
967.10599
965.96254
959.66296
960.02955
950.78358
947.5696
947.04532
936.24768
933.74441
936.57963
935.74059
933.57858
930.55449
929.42352
928.49972
927.64598
926.67726
926.70156
928.8198
930.62336
930.99346
931.39506
932.06353
932.94096
935.38309
973.67986
973.60544
969.11945
966.96498
965.86373
966.75106
966.9287
959.77743
960.17177
953.28258
945.70649
945.54338
937.14093
936.27493
936.96859
937.28959
933.82452
930.36184
927.74996
928.02934
926.91768
926.76431
926.80633
928.21323
930.24065
930.48661
930.84554
931.17065
932.84912
934.9499
971.97332
972.70384
970.13717
969.79676
965.61996
964.17316
963.61027
959.57087
960.60281
956.5148
947.93412
945.90578
938.87436
936.43132
936.08373
935.80461
933.47142
930.00644
925.39588
925.98826
925.14339
926.11612
926.74662
927.59823
928.62216
928.58672
929.22602
928.34142
930.94619
933.34608
971.9072
971.37224
970.61806
971.71335
972.65814
973.35695
962.76101
955.54544
952.88583
951.05956
949.18569
951.70199
938.97
928.59767
930.48065
931.79984
932.51217
928.81921
934.38121
933.06942
932.58618
931.61701
931.92077
930.63314
932.25279
931.11374
929.23303
931.09154
933.16577
936.55863
971.85691
971.71763
969.94572
969.58206
970.19436
970.91987
964.91765
953.88182
951.01414
950.13186
947.7651
952.45051
936.581
927.60771
931.87034
932.63626
932.72772
931.00595
930.58403
928.41192
929.13224
928.48323
928.21981
929.12845
929.79491
929.43618
928.99593
930.48069
930.52265
932.58589
972.2188
972.04895
969.65423
968.00454
968.12103
969.88066
966.0156
954.78121
954.89098
952.59032
946.8866
944.84226
940.74692
930.37598
932.32597
933.10264
932.26777
930.77908
929.15173
927.30932
928.60188
928.50285
928.22571
928.9904
929.69635
929.46449
928.76315
930.49852
931.15659
932.46938
972.94506
973.01127
970.93843
967.80509
967.89978
969.34633
966.56846
956.1775
957.87732
956.57951
952.3738
947.96237
939.8871
928.58047
928.66504
930.83084
931.28055
930.72147
928.00852
927.88514
928.57396
928.64741
928.24885
928.87082
929.53535
929.27945
928.26236
929.17732
929.37654
930.67939
972.43886
972.51547
971.16593
967.42378
967.09683
967.37327
966.42984
958.02986
958.91525
957.87859
953.79286
950.94361
939.46501
928.70176
925.9263
923.69548
922.66577
925.27872
925.05479
926.40511
925.9851
926.86563
927.28293
927.82118
928.43495
928.13218
927.60304
927.21353
927.80773
929.67903
974.34967
973.27552
971.98931
970.42035
969.70795
970.03068
970.52503
958.8839
955.23321
954.36801
953.55017
950.94192
939.94768
925.03967
918.95178
917.58569
916.514
916.26904
927.20036
929.47563
931.23639
932.08763
935.15798
934.66124
935.0771
933.54447
932.66315
930.14311
929.47186
934.49668
972.99052
972.42169
971.56476
969.30313
968.66098
968.95712
969.26599
957.21016
955.25919
954.64757
954.60539
953.3371
938.94014
919.2887
918.99998
918.80934
918.72182
916.27547
922.39734
927.00242
928.45133
929.50888
931.03559
930.74846
930.3492
929.59677
928.59083
927.56065
927.6661
931.17486
973.05214
972.90729
971.40967
968.7815
968.35698
969.21119
968.83144
957.02127
956.15807
954.60161
954.80253
953.94583
938.25364
919.6153
920.55903
921.34221
920.3371
917.74232
922.49574
926.11569
928.48765
929.49573
930.33015
929.70074
929.72541
929.38397
927.5417
927.49344
927.65084
927.75544
972.95322
972.47949
970.42243
967.69231
968.21376
968.41976
967.40995
956.93261
957.57447
957.02227
956.2481
955.23045
936.38478
916.74287
915.67261
917.07579
919.24398
918.46102
923.10946
926.46689
928.60705
929.37584
929.70323
929.24997
929.07409
929.03911
926.9645
926.92414
926.81903
927.47913
972.29216
971.87636
969.40335
967.2448
966.98408
966.44776
965.20902
956.56109
957.36486
957.51446
957.0098
955.72389
933.10581
913.1876
912.2978
913.44872
915.27448
917.90511
923.02958
924.95883
924.93501
924.99325
927.30594
927.78792
927.99844
927.72719
927.07782
926.55316
926.35478
927.03087
975.48946
974.44314
972.60308
971.9267
972.06819
972.28184
963.01316
955.34199
954.14332
953.26731
950.48664
943.84426
932.88774
912.02186
927.74192
925.90294
929.14776
929.3013
929.55652
927.39286
928.14158
929.11329
930.54829
931.99136
929.46501
933.59971
973.70572
972.84119
972.12403
971.32685
970.82578
970.68523
966.09178
955.77018
955.59894
955.90462
953.00039
948.91053
939.94293
908.55372
923.35849
923.90655
925.82465
927.28027
928.11104
927.28354
928.16173
927.75314
928.43484
929.02641
927.86018
931.63954
973.58963
973.45695
972.13634
971.14047
970.85722
970.23999
966.26512
956.44278
956.13448
956.86992
953.79874
950.836
942.96013
904.41761
922.73246
923.64316
922.73095
926.24577
926.76873
927.28202
928.15023
927.33369
927.13731
928.82693
927.85065
927.65209
972.75898
972.6283
970.2208
970.21638
969.65312
969.07312
966.42251
957.89411
958.28744
958.24789
957.75766
955.13967
947.18751
904.55366
922.53775
924.47426
921.41678
924.08127
925.80511
926.8126
928.28112
927.08329
926.7645
927.95316
927.41298
927.39265
972.6632
971.55238
969.61708
968.87867
968.35455
967.81313
966.4912
959.94711
959.45392
959.20656
958.96976
956.86626
950.39912
909.60274
919.82726
919.89103
920.75857
923.70692
925.75506
926.33853
926.71392
926.52249
926.26428
926.38063
926.35262
926.18139
977.59697
976.48257
973.8582
975.70382
974.52393
971.17696
963.21412
958.31357
955.02404
949.91634
945.41953
937.81616
927.1556
913.76931
924.15077
930.16219
927.66309
929.38074
929.15146
929.47912
929.2692
930.40686
930.10175
932.73859
933.30768
935.99796
975.12062
974.17132
972.9889
973.06958
972.79534
970.09343
960.25422
956.41717
953.83474
950.98206
947.60441
941.61368
932.69569
912.41066
922.91271
927.43741
925.39105
926.64225
927.86359
928.16164
928.57509
929.45417
928.79463
929.77371
930.0341
931.96612
975.00776
975.18954
972.99434
971.01393
971.9317
969.27878
960.98103
958.56191
954.01144
957.26888
952.73346
942.17745
934.56954
912.26606
926.54208
927.80477
925.19997
925.49605
927.27567
927.31837
928.26841
929.29659
928.58576
929.51109
930.02913
931.20701
975.06263
974.94002
971.22077
970.50426
970.22784
969.38071
962.93876
962.25188
957.80779
959.97743
958.13459
946.27871
939.50186
912.90041
927.78662
928.11424
926.25399
925.24125
926.48013
926.56251
928.27062
928.92069
928.17186
929.14662
929.9381
930.48941
974.50311
974.08295
971.18968
970.59205
968.80554
968.50643
964.60537
962.82062
962.33795
961.82302
958.2946
951.20458
944.87088
911.57076
920.08727
921.4705
925.316
925.52222
925.82353
926.08473
927.17614
927.51832
927.57721
927.95985
928.45062
928.85353
980.59315
979.00055
976.27882
973.99792
970.68587
967.46443
964.7929
962.66285
965.34579
960.82219
951.91659
933.8895
929.14319
928.48041
927.99805
928.80719
926.22322
929.5126
931.49195
933.53773
929.78487
930.99247
931.01956
928.38579
929.87698
930.54301
930.70793
933.65314
935.79045
938.78983
977.39877
975.71192
973.41735
970.72496
968.21291
965.53527
962.46241
959.86455
962.9999
962.31263
950.69443
935.79098
931.16461
930.64527
932.71959
933.86372
928.05732
928.88332
930.30223
931.96336
928.71633
927.98511
928.53517
929.02071
929.95795
930.463
930.33174
931.58705
932.78364
934.46953
977.11374
976.00628
972.54586
969.88431
967.15854
965.30648
962.14663
959.15097
958.2854
961.99607
949.33873
935.65085
932.57557
932.01123
933.63842
936.73185
930.227
928.54757
929.32042
931.60078
928.18897
926.70457
928.23488
929.01088
930.26519
930.71107
930.38679
931.29973
932.43204
933.75034
977.13564
975.98691
972.79655
970.41568
967.19679
964.04119
961.53631
958.75017
956.28453
956.53817
948.60454
936.5376
936.8489
932.08039
934.72373
938.9197
932.26522
928.07835
927.66205
930.54484
929.91579
928.0617
928.18823
929.04437
930.28961
930.60124
929.79484
931.59142
932.28929
933.20916
976.46217
975.21787
972.95334
970.80957
968.37537
967.30173
963.33042
959.94824
956.54416
952.21586
948.18071
941.8707
941.6061
936.19435
933.21716
931.97394
931.82567
926.16869
925.40431
927.71342
927.67253
926.93448
927.46602
928.30503
929.02073
928.9625
928.75361
929.61353
930.91811
931.74283
981.40817
979.58332
977.13383
974.62037
971.86246
966.95032
972.47447
970.41702
971.38623
969.72019
967.12333
955.17239
953.03144
947.73521
939.75183
939.25233
940.77857
940.82374
934.46028
933.76982
933.89892
934.66596
934.68367
932.66124
930.20375
929.41911
930.60372
932.22546
935.39662
938.38776
978.63086
976.36394
974.13179
972.09077
970.26256
967.32286
969.51863
969.01208
970.65662
967.78971
967.59143
959.89517
954.34371
945.21096
939.71599
940.92102
942.6253
941.2132
933.749
933.09566
931.44802
931.58613
931.91786
931.51878
930.62091
931.00576
931.43219
932.21739
934.08277
935.71679
978.60737
976.77099
972.63659
970.62835
968.62351
967.31732
967.79858
968.39289
970.53955
965.90125
961.87872
956.58717
953.26702
946.48736
942.86371
945.24825
945.17542
941.34126
933.46272
932.55578
931.01728
930.47157
931.6169
931.23664
930.65689
930.90343
930.82257
932.25744
934.1889
935.44551
978.26521
977.12379
974.47287
969.06307
968.70599
967.10781
967.00767
965.96375
964.20156
959.2942
955.34751
954.94528
951.80977
947.49177
946.72767
946.89397
945.40811
941.7362
932.77942
932.68818
932.84249
931.48733
931.13488
931.00018
930.70572
930.77064
930.97489
931.16814
933.9837
935.13648
975.51678
974.30867
973.40041
971.8885
969.9553
967.43803
967.73062
967.69731
965.1858
957.4594
954.07958
953.89446
950.83563
947.38815
945.76953
945.25446
944.2033
941.68163
930.97232
929.03751
930.12422
929.82105
929.81623
929.8291
929.9379
929.82949
929.60439
929.46567
931.01496
932.72469
977.98191
976.95887
974.63224
976.76542
978.04233
978.4474
979.12763
976.7925
977.09937
974.57113
965.77592
960.69927
960.32149
956.63497
956.2654
943.17983
943.80468
943.34105
939.09377
939.20679
937.05932
931.93366
931.7765
930.54468
931.1487
930.35524
930.93036
930.64131
933.64707
935.77352
976.05164
974.81273
973.93652
973.03421
975.15584
976.19337
976.16418
974.20631
974.26169
973.69451
970.5639
963.53262
962.70008
956.52239
955.54548
943.30693
943.60867
943.26301
936.40296
936.98396
935.80815
931.81407
930.89432
931.07657
930.41478
930.78076
930.86224
931.27479
932.53949
933.84479
976.79038
977.03517
973.94589
972.49438
972.48898
973.54094
974.42366
974.65796
975.18938
973.19419
971.46544
968.00283
964.85603
955.03239
955.34559
944.59635
944.79056
942.70662
935.71413
933.60652
936.07858
931.99599
931.70621
931.19236
930.49327
930.5775
929.92731
931.34637
933.56583
934.05894
977.39819
977.52287
976.24227
973.86623
973.52991
972.98391
972.82521
973.55715
973.8131
970.4088
965.21757
964.24173
962.79465
953.8919
954.83602
946.14524
945.90107
945.05879
937.42783
932.23413
935.19154
932.53947
932.10249
931.25481
930.45644
930.32644
929.63016
930.5049
933.27569
934.15056
977.04041
976.91076
975.96246
975.18866
974.11076
972.97145
972.20806
973.01707
973.82068
971.08001
964.50845
958.4097
959.86841
954.81934
952.72265
949.92859
945.59971
942.26849
938.24689
930.43487
928.65648
929.70357
930.24721
930.15955
929.69302
929.30894
928.82271
929.45765
930.85439
932.21397
976.0324
975.60269
974.80621
974.28282
974.76385
976.6596
978.72606
981.13377
979.7809
970.95811
966.56397
964.54806
960.10307
954.91244
955.79045
955.31334
947.30382
941.79089
937.52214
934.90366
932.60812
931.24845
930.60677
930.06899
930.39761
930.93325
931.0654
931.06176
932.89315
934.30504
976.33251
976.16533
975.52122
973.75344
974.04795
974.78075
975.90067
976.72637
976.69414
970.28171
967.32587
968.03919
961.12531
954.11855
953.33742
952.44112
944.37916
941.15643
935.78483
933.81951
932.6153
931.47913
930.21629
930.30406
929.75678
930.6853
930.43574
931.70819
932.0981
932.74578
976.55395
977.19869
975.7466
973.70183
974.07373
974.93888
974.97291
976.41125
976.75687
971.83804
970.44331
969.44547
962.15481
952.74029
951.96897
951.50262
943.31042
939.94358
935.48315
933.86685
935.32809
931.7764
930.16695
930.21751
929.33404
929.65412
930.1254
931.68752
933.04199
932.9034
976.81462
977.33593
977.06738
975.53938
974.26977
975.23958
973.3614
976.24949
976.77063
973.1173
972.42119
969.58249
960.61123
950.68904
952.12768
951.4228
942.81949
939.01726
935.0804
933.88017
934.46469
930.74065
929.51674
930.55755
929.08799
929.14048
930.11987
931.22889
933.07585
933.07033
976.73326
976.81638
976.74261
976.19094
976.03181
975.85152
973.40877
973.66764
975.54223
972.59111
971.87275
968.61364
961.08722
948.31085
948.69975
949.29219
941.49216
939.35234
936.73737
934.13167
931.90923
929.82944
929.00235
929.18136
928.79835
928.72958
929.95736
931.00035
931.9052
932.28457
)
;

boundaryField
{
    minX
    {
        type            zeroGradient;
    }
    maxX
    {
        type            zeroGradient;
    }
    minY
    {
        type            fixedValue;
        value           uniform 1073;
    }
    minZ
    {
        type            zeroGradient;
    }
    maxZ
    {
        type            zeroGradient;
    }
    bottomWater_to_rightSolid
    {
        type            compressible::turbulentTemperatureCoupledBaffleMixed;
        refValue        nonuniform List<scalar> 
130
(
753.43893
761.38171
769.68346
777.93424
785.81768
793.10022
799.62514
805.29705
810.05983
813.88674
816.76547
818.69248
819.65979
747.54693
756.84929
766.35733
775.57049
784.17755
791.97887
798.86525
804.78163
809.70298
813.63004
816.56654
818.53466
819.52702
735.76189
748.19178
760.24945
771.37581
781.34862
790.09519
797.62053
803.96003
809.15608
813.2558
816.3005
818.32372
819.3402
718.2149
736.49449
752.63491
766.46805
778.19983
788.08922
796.34831
803.15756
808.65407
812.94303
816.10326
818.18836
819.22862
697.57197
725.43303
746.39202
762.81402
776.01468
786.76354
795.54333
802.67569
808.37585
812.79416
816.03477
818.16372
819.22029
697.71256
725.56377
746.51855
762.93698
776.11794
786.84914
795.62055
802.75282
808.45507
812.87664
816.12217
818.25708
819.31803
718.63507
736.85903
752.96329
766.7656
778.4647
788.32348
796.56589
803.36819
808.86367
813.15807
816.331
818.42996
819.47686
736.37945
748.73754
760.73271
771.81669
781.74649
790.45635
797.95262
804.27167
809.45754
813.55529
816.60496
818.63666
819.65636
748.20857
757.49765
766.94556
776.1065
784.66609
792.42385
799.26987
805.15058
810.04726
813.95891
816.89441
818.85832
819.84579
754.05721
762.02398
770.3151
778.52996
786.35833
793.58398
800.05998
805.68876
810.41976
814.22861
817.09823
819.01974
819.98428
)
;
        refGradient     uniform 0;
        valueFraction   uniform 0.99248593;
        value           nonuniform List<scalar> 
130
(
754.80281
762.6503
770.86436
779.03996
786.86624
794.10123
800.58439
806.22278
810.95709
814.76362
817.62874
819.54964
820.51356
748.9179
758.11574
767.55682
776.69438
785.24408
792.99152
799.83255
805.71217
810.5963
814.49866
817.40642
819.37928
820.38223
737.18593
749.52076
761.49795
772.53754
782.44204
791.12603
798.59887
804.89533
810.05007
814.11501
817.13391
819.14637
820.16926
719.71537
737.89621
753.92978
767.65878
779.30282
789.13528
797.33595
804.09561
809.54878
813.80064
816.93319
819.00112
820.03864
699.16521
726.89358
747.69563
764.00078
777.12444
787.80792
796.52613
803.60771
809.26361
813.64679
816.86392
818.97666
820.02399
699.31951
727.0254
747.83318
764.1571
777.24058
787.89341
796.60087
803.68777
809.34974
813.73852
816.96254
819.08507
820.14108
720.19439
738.27579
754.2764
767.97466
779.58032
789.36901
797.5558
804.31237
809.76611
814.02667
817.18221
819.27519
820.32042
737.92202
750.10686
761.99736
773.00621
782.85914
791.50351
798.94355
805.21594
810.36203
814.4273
817.453
819.48106
820.50595
749.66676
758.85579
768.1741
777.25277
785.7559
793.45945
800.25339
806.08641
810.9434
814.82202
817.7402
819.69985
820.69012
755.4496
763.33683
771.54604
779.6825
787.43641
794.60152
801.0302
806.61382
811.30876
815.0982
817.95409
819.86796
820.82813
)
;
        Tnbr            T;
        thicknessLayers List<scalar> 0();
        kappaLayers     List<scalar> 0();
        kappaMethod     fluidThermo;
        kappa           none;
        alphaAni        none;
        alpha           none;
        field           T;
    }
    bottomWater_to_leftSolid
    {
        type            compressible::turbulentTemperatureCoupledBaffleMixed;
        refValue        nonuniform List<scalar> 
130
(
907.13544
907.085
906.97461
906.8011
906.56002
906.31521
906.05808
905.7799
905.49656
905.22431
904.95943
904.73041
904.60388
907.17175
907.12027
907.00283
906.83458
906.61434
906.37577
906.11851
905.83656
905.56383
905.28017
905.00269
904.78687
904.64093
907.21577
907.16241
907.04688
906.87557
906.67523
906.4482
906.18571
905.88375
905.61087
905.34494
905.0884
904.87125
904.70349
907.27266
907.21678
907.09907
906.93319
906.73647
906.50583
906.23615
905.9265
905.65115
905.39376
905.15141
904.92815
904.72002
907.36713
907.30843
907.19198
907.03159
906.83228
906.59565
906.31964
906.00921
905.71992
905.44852
905.19722
904.97626
904.81611
907.51105
907.4503
907.32554
907.1557
906.94061
906.69038
906.39988
906.09335
905.78877
905.49027
905.20235
904.95158
904.79022
907.67407
907.60799
907.4774
907.29363
907.06351
906.79739
906.4956
906.17451
905.84367
905.51276
905.20832
904.9593
904.81927
907.8243
907.76132
907.63773
907.45858
907.23031
906.96537
906.68319
906.3828
906.06032
905.72135
905.41844
905.18481
905.04554
907.96982
907.91603
907.80322
907.63618
907.41984
907.16439
906.8852
906.59743
906.29939
905.9833
905.67856
905.43437
905.30331
908.0487
908.00068
907.89798
907.74042
907.5345
907.28548
907.0008
906.71215
906.42678
906.12833
905.8496
905.60833
905.44607
)
;
        refGradient     uniform 0;
        valueFraction   uniform 0.99248593;
        value           nonuniform List<scalar> 
130
(
907.60911
907.56086
907.45091
907.27675
906.97824
906.7286
906.47082
906.17214
905.86715
905.58532
905.2816
904.99917
904.86488
907.6587
907.61309
907.47724
907.3077
907.05773
906.81008
906.55051
906.24034
905.97744
905.66515
905.32528
905.09594
904.89822
907.7059
907.6535
907.52871
907.33056
907.12925
906.90602
906.63842
906.27559
906.01143
905.7397
905.45436
905.21752
904.96485
907.76124
907.70266
907.56728
907.38637
907.18917
906.95625
906.67929
906.30697
906.03974
905.78542
905.5411
905.30987
904.93339
907.85777
907.79116
907.66106
907.49633
907.2946
907.05567
906.77181
906.41453
906.12372
905.8525
905.60131
905.36622
905.15864
908.01443
907.95097
907.80542
907.63237
907.40548
907.15489
906.83733
906.51968
906.21374
905.9136
905.60129
905.29923
905.09142
908.19095
908.116
907.96937
907.77088
907.52424
907.252
906.92267
906.57858
906.22465
905.86369
905.5312
905.23678
905.09567
908.33297
908.26138
908.13184
907.94271
907.70162
907.41975
907.14189
906.8435
906.50462
906.11021
905.78419
905.55078
905.38956
908.48884
908.43448
908.31539
908.1438
907.92099
907.65887
907.376
907.09648
906.80676
906.47235
906.12053
905.83252
905.71333
908.56483
908.51779
908.4153
908.25478
908.04921
907.80071
907.49976
907.21517
906.94607
906.62772
906.34568
906.0817
905.86394
)
;
        Tnbr            T;
        thicknessLayers List<scalar> 0();
        kappaLayers     List<scalar> 0();
        kappaMethod     fluidThermo;
        kappa           none;
        alphaAni        none;
        alpha           none;
        field           T;
    }
    bottomWater_to_heater
    {
        type            compressible::turbulentTemperatureCoupledBaffleMixed;
        refValue        nonuniform List<scalar> 
92
(
734.28157
736.39798
740.50389
746.32259
724.84389
727.32504
732.1723
739.08736
705.00857
708.19485
714.59628
724.03002
345.68364
342.95291
342.97879
345.67107
422.71187
419.34127
419.53766
423.06374
488.61487
485.75449
486.42557
490.10454
544.64623
542.86244
544.72706
549.15939
672.84819
590.92846
676.84724
591.06718
685.44505
595.6562
699.31406
603.19628
345.68364
345.67107
422.71187
423.06374
488.61487
490.10454
544.64623
549.15939
590.92846
603.19628
345.68463
345.68463
342.98657
343.02646
345.7253
345.7253
422.72661
422.72661
419.40608
419.62573
423.16179
423.16179
488.63258
488.63258
485.83101
486.53482
490.23629
490.23629
544.68184
544.68184
542.95682
544.85408
549.30785
549.30785
591.00617
591.00617
591.17572
595.77831
603.32866
603.32866
673.32906
677.32203
685.91346
699.76884
705.63367
708.82348
715.23164
724.66341
725.49677
727.96301
732.79758
739.71588
734.8661
736.97772
741.07893
746.89142
)
;
        refGradient     uniform 0;
        valueFraction   nonuniform List<scalar> 
92
(
0.99248593
0.99248593
0.99248593
0.99248593
0.99248593
0.99248593
0.99248593
0.99248593
0.99248593
0.99248593
0.99248593
0.99248593
0.99248593
0.99248593
0.99248593
0.99248593
0.99248593
0.99248593
0.99248593
0.99248593
0.99248593
0.99248593
0.99248593
0.99248593
0.99248593
0.99248593
0.99248593
0.99248593
0.99248593
0.99248593
0.99248593
0.99248593
0.99248593
0.99248593
0.99248593
0.99248593
0.99248593
0.99248593
0.99248593
0.99248593
0.99248593
0.99248593
0.99248593
0.99248593
0.99248593
0.99248593
0.99248593
0.99248593
0.99248593
0.99248593
0.99248593
0.99248593
0.99248593
0.99248593
0.99248593
0.99248593
0.99248593
0.99248593
0.99248593
0.99248593
0.99248593
0.99248593
0.99248593
0.99248593
0.99248593
0.99248593
0.99248593
0.99248593
0.99248593
0.99248593
0.99248593
0.99248593
0.99248593
0.99248593
0.99248593
0.99248593
0.99248593
0.99248593
0.99248593
0.99248593
0.99248593
0.99248593
0.99248593
0.99248593
0.99248593
0.99248593
0.99248593
0.99248593
0.99248593
0.99248593
0.99248593
0.99248593
)
;
        value           nonuniform List<scalar> 
92
(
735.82119
737.91318
741.982
747.75219
726.43377
728.89368
733.70242
740.54796
706.68937
709.83088
716.16745
725.52259
350.03682
347.28092
347.29634
349.96034
426.44321
423.09574
423.28921
426.78816
491.85344
489.02164
489.69344
493.33731
547.44219
545.66378
547.52488
551.94017
674.65407
593.34988
678.61641
593.4809
687.15827
598.0441
700.93679
605.54124
350.09599
349.92677
426.59842
426.71187
492.0289
493.21781
547.67098
551.82983
593.62957
605.49867
350.05392
350.06383
347.3824
347.42809
349.99368
350.08726
426.55857
426.54318
423.26318
423.48977
426.83811
426.95563
491.98338
491.96415
489.1959
489.91765
493.40753
493.54236
547.64855
547.59257
545.90053
547.81512
552.03988
552.1853
593.66516
593.59989
593.74574
598.30439
605.64481
605.79687
675.3042
679.24475
687.76226
701.5124
707.45022
710.60389
716.96001
726.31301
727.21993
729.65188
734.42913
741.26291
736.46992
738.5686
742.64345
748.35368
)
;
        Tnbr            T;
        thicknessLayers List<scalar> 0();
        kappaLayers     List<scalar> 0();
        kappaMethod     fluidThermo;
        kappa           none;
        alphaAni        none;
        alpha           none;
        field           T;
    }
}


// ************************************************************************* //
