/*--------------------------------*- C++ -*----------------------------------*\
| =========                 |                                                 |
| \\      /  F ield         | OpenFOAM: The Open Source CFD Toolbox           |
|  \\    /   O peration     | Version:  v2012                                 |
|   \\  /    A nd           | Website:  www.openfoam.com                      |
|    \\/     M anipulation  |                                                 |
\*---------------------------------------------------------------------------*/
FoamFile
{
    version     2.0;
    format      ascii;
    class       volScalarField;
    location    "710/bottomWater";
    object      p;
}
// * * * * * * * * * * * * * * * * * * * * * * * * * * * * * * * * * * * * * //

dimensions      [1 -1 -2 0 0 0 0];


internalField   nonuniform List<scalar> 
1460
(
353.46209
353.46484
353.46561
353.46272
353.45254
353.4372
353.41931
353.41899
353.43346
353.41793
353.42943
353.44931
353.47341
353.47569
353.47162
353.46575
353.47089
353.474
353.46468
353.47771
353.48211
353.47117
353.46921
353.47833
353.47625
353.4781
353.48326
353.47971
353.47936
353.47322
274.42242
274.41317
274.47742
274.51493
274.52633
274.49547
274.45656
274.45146
274.44615
274.45033
274.46463
274.50647
274.48376
274.40511
274.40704
274.43437
274.45716
274.47991
274.4547
274.50018
274.48132
274.41062
274.40018
274.40098
274.38693
274.41742
274.44701
274.46636
274.46385
274.43437
196.32993
196.26731
196.24595
196.23627
196.22939
196.22372
196.25755
196.28231
196.29475
196.28941
196.23279
196.24112
196.23715
196.26293
196.28294
196.28297
196.26052
196.26232
196.27074
196.23807
196.24986
196.25368
196.28682
196.30443
196.28348
196.26599
196.25866
196.26644
196.25524
196.28231
117.69629
117.66605
117.66161
117.67301
117.66044
117.65668
117.65446
117.6618
117.68517
117.67256
117.66594
117.65557
117.66496
117.68048
117.69558
117.63061
117.68925
117.68968
117.65633
117.64277
117.64487
117.65593
117.67319
117.69551
117.68267
117.62996
117.68245
117.66601
117.64919
117.63983
39.290677
39.271048
39.268218
39.266018
39.259488
39.243932
39.238687
39.230457
39.23246
39.229514
39.228837
39.248365
39.217024
39.240467
39.258935
39.257342
39.232324
39.231522
39.213165
39.249939
39.255659
39.23246
39.235871
39.235767
39.246007
39.250668
39.225609
39.229149
39.242273
39.266651
353.45466
353.46051
353.45761
353.42631
353.42157
353.41993
353.42186
353.4245
353.43024
353.42534
353.42147
353.42582
353.45542
353.4731
353.46164
353.45907
353.4545
353.46094
353.45798
353.47714
353.46942
353.47021
353.46922
353.46185
353.4689
353.4668
353.47363
353.46531
353.48011
353.47265
274.42078
274.456
274.48324
274.44612
274.44728
274.43946
274.44311
274.44528
274.43424
274.442
274.44974
274.44316
274.49571
274.48732
274.41585
274.40479
274.41535
274.41684
274.41888
274.43544
274.40656
274.39028
274.39179
274.40577
274.41145
274.39714
274.39307
274.40765
274.42844
274.39931
196.28374
196.24688
196.23598
196.25351
196.25072
196.27241
196.29842
196.30827
196.30351
196.28804
196.26815
196.27575
196.25634
196.23106
196.25437
196.28582
196.31303
196.2884
196.27289
196.2512
196.27598
196.28862
196.28996
196.27874
196.25071
196.29886
196.28011
196.2782
196.23739
196.29585
117.67671
117.65964
117.65632
117.64053
117.62836
117.64468
117.6696
117.67005
117.66585
117.66077
117.65211
117.66618
117.67636
117.65743
117.65214
117.67875
117.68306
117.64717
117.61983
117.63569
117.62267
117.65997
117.67395
117.6422
117.65542
117.66808
117.68858
117.64408
117.6521
117.66526
39.264732
39.266426
39.261017
39.247917
39.233483
39.211881
39.222107
39.226903
39.24602
39.240071
39.239599
39.220484
39.214742
39.234098
39.236339
39.219617
39.230884
39.217154
39.227954
39.257684
39.266091
39.25083
39.256002
39.262829
39.257181
39.238869
39.235476
39.244234
39.256045
39.245745
353.44304
353.45666
353.43357
353.44186
353.44107
353.43871
353.43505
353.43338
353.43157
353.42776
353.42716
353.42916
353.44687
353.46432
353.45542
353.45264
353.45827
353.45893
353.46077
353.4654
353.47306
353.471
353.46432
353.48278
353.48351
353.471
353.46917
353.47178
353.47253
353.47257
274.45217
274.46673
274.4288
274.42267
274.42603
274.42824
274.43046
274.42506
274.42479
274.43158
274.43658
274.4467
274.46947
274.51009
274.44708
274.409
274.40123
274.40189
274.41617
274.40741
274.38975
274.39712
274.40027
274.45805
274.47123
274.40686
274.40659
274.39429
274.39179
274.39189
196.27493
196.2379
196.26659
196.26381
196.29353
196.29662
196.29769
196.29577
196.29614
196.28993
196.26458
196.24411
196.24427
196.23549
196.22886
196.26341
196.30372
196.29885
196.29365
196.29063
196.30742
196.28399
196.24996
196.23098
196.25034
196.28363
196.28247
196.30774
196.31693
196.34303
117.66005
117.65304
117.6458
117.70705
117.71546
117.71712
117.71319
117.69007
117.68353
117.66879
117.66512
117.66063
117.6668
117.66603
117.656
117.65701
117.68777
117.66742
117.63458
117.65246
117.66856
117.68362
117.63463
117.65915
117.64813
117.65805
117.6682
117.67797
117.6688
117.69016
39.291816
39.258554
39.242605
39.238639
39.241048
39.240568
39.238976
39.254906
39.256006
39.252023
39.244641
39.241997
39.221419
39.234965
39.251596
39.238727
39.238827
39.239529
39.267968
39.273847
39.270255
39.262708
39.251947
39.255251
39.241154
39.227552
39.254731
39.254875
39.262281
39.262329
353.43826
353.44114
353.43275
353.43667
353.42624
353.42104
353.41262
353.4134
353.42898
353.4165
353.42691
353.43073
353.42643
353.43717
353.43125
353.44043
353.44188
353.43223
353.46682
353.48467
353.48369
353.48039
353.47125
353.49828
353.46872
353.48221
353.47525
353.47132
353.47171
353.47623
274.44961
274.45791
274.43678
274.4277
274.43015
274.44561
274.45036
274.45449
274.46861
274.44087
274.42856
274.42002
274.44099
274.44511
274.44265
274.42568
274.43275
274.42005
274.45689
274.46262
274.38912
274.3871
274.41358
274.46801
274.41526
274.45501
274.44871
274.40801
274.38704
274.39424
196.28102
196.24662
196.2842
196.30119
196.28965
196.27888
196.26841
196.27234
196.24756
196.28187
196.29889
196.28819
196.27694
196.27021
196.28415
196.2959
196.28367
196.30646
196.23717
196.21954
196.30368
196.27562
196.25898
196.25035
196.28643
196.26506
196.21946
196.24271
196.25222
196.3087
117.64219
117.64602
117.66766
117.71045
117.68547
117.66236
117.65569
117.64262
117.65786
117.65298
117.69124
117.67571
117.62517
117.63463
117.65439
117.64936
117.65835
117.65963
117.64314
117.62634
117.66284
117.68508
117.60886
117.64952
117.64802
117.67134
117.67124
117.64883
117.67169
117.68578
39.259319
39.229253
39.234483
39.255301
39.238807
39.237006
39.235672
39.258245
39.26856
39.258144
39.238806
39.242422
39.246368
39.267178
39.282965
39.242285
39.254236
39.223592
39.232557
39.249601
39.261099
39.276032
39.26684
39.256745
39.231412
39.220823
39.248195
39.241538
39.242823
39.253385
353.4423
353.45451
353.43934
353.44047
353.43199
353.43386
353.44277
353.4513
353.44761
353.42453
353.43391
353.44364
353.43764
353.45858
353.46637
353.48287
353.48082
353.47849
353.4744
353.4756
353.47748
353.48248
353.47324
353.47811
353.46155
353.46976
274.4505
274.45519
274.4456
274.42407
274.44558
274.44752
274.4756
274.51839
274.49361
274.42342
274.42781
274.41106
274.41622
274.42824
274.44299
274.47081
274.42283
274.38662
274.43817
274.45287
274.47365
274.49057
274.48988
274.46203
274.40716
274.40422
196.27877
196.2534
196.30707
196.26082
196.26442
196.26328
196.23966
196.2383
196.23458
196.27853
196.29014
196.31242
196.29705
196.3151
196.2637
196.23264
196.2964
196.25411
196.26445
196.26162
196.25832
196.26125
196.265
196.25336
196.253
196.28493
117.65742
117.68121
117.68413
117.69
117.67244
117.67694
117.65866
117.65624
117.66322
117.67099
117.67256
117.68447
117.67516
117.69112
117.65032
117.64602
117.62744
117.67369
117.60754
117.64245
117.65558
117.70228
117.69025
117.67123
117.65636
117.67808
39.228693
39.215605
39.228631
39.22818
39.227568
39.220784
39.222489
39.250605
39.257023
39.234643
39.250912
39.254098
39.253511
39.241056
39.222397
39.263334
39.269733
39.264837
39.263
39.231801
39.215556
39.229976
39.228374
39.224258
39.23667
39.243504
353.44029
353.43424
353.44914
353.43891
353.44813
353.45454
353.45284
353.46646
353.45299
353.43383
353.4439
353.44125
353.42964
353.45684
353.45619
353.47373
353.46439
353.46732
353.48297
353.47856
353.48054
353.49051
353.47986
353.48829
353.47486
353.47838
274.4319
274.42245
274.47321
274.49222
274.48971
274.49969
274.49687
274.51598
274.457
274.42267
274.42504
274.42241
274.45207
274.41152
274.4063
274.43356
274.38736
274.40694
274.46831
274.47143
274.4861
274.49555
274.4883
274.48522
274.42658
274.41059
196.30015
196.2859
196.25926
196.27516
196.26622
196.26227
196.25176
196.23401
196.22656
196.25665
196.28244
196.29377
196.27695
196.29714
196.27419
196.26612
196.2776
196.2383
196.23396
196.28255
196.259
196.26178
196.2585
196.2339
196.23306
196.26625
117.69122
117.66632
117.66176
117.64719
117.67874
117.68458
117.67516
117.66622
117.67354
117.66947
117.68434
117.67378
117.65121
117.66652
117.63378
117.63352
117.6646
117.63828
117.64513
117.67007
117.69634
117.71347
117.68773
117.67168
117.67105
117.66918
39.233527
39.227616
39.241796
39.2515
39.237822
39.229469
39.23073
39.248904
39.239097
39.240207
39.248731
39.254795
39.258559
39.233553
39.246123
39.25752
39.24434
39.248793
39.240498
39.213343
39.22148
39.234287
39.224649
39.237987
39.240042
39.246545
353.44761
353.4432
353.43762
353.45657
353.45904
353.45764
353.456
353.45727
353.45661
353.45722
353.45639
353.45297
353.45246
353.46378
353.47331
353.47572
353.47329
353.46527
353.46859
353.47279
353.46582
353.45921
353.45631
353.47872
353.45962
353.46348
353.46313
353.46192
353.46094
353.46748
274.42733
274.41906
274.43672
274.4882
274.52307
274.48071
274.4356
274.42151
274.40502
274.40813
274.42487
274.43674
274.41343
274.44648
274.4675
274.48452
274.46252
274.42071
274.39059
274.3933
274.39567
274.38803
274.4028
274.47457
274.45273
274.4357
274.43752
274.41308
274.3924
274.39782
196.3081
196.26101
196.25584
196.23798
196.23999
196.25371
196.26119
196.25365
196.27906
196.29798
196.30076
196.2866
196.29049
196.24373
196.26703
196.27444
196.25231
196.28068
196.28959
196.31927
196.32069
196.267
196.2519
196.22606
196.25937
196.27028
196.25223
196.26005
196.26938
196.30412
117.70456
117.68815
117.66339
117.66962
117.6699
117.67717
117.66534
117.64195
117.67488
117.66867
117.65048
117.62561
117.66663
117.65094
117.67873
117.67061
117.65354
117.62737
117.66638
117.67717
117.67248
117.65679
117.62997
117.62867
117.64673
117.65411
117.63011
117.62933
117.64265
117.66821
39.23913
39.233756
39.231299
39.23572
39.245231
39.223386
39.227986
39.248933
39.248481
39.25191
39.273712
39.275674
39.236305
39.236038
39.224754
39.234017
39.233034
39.251515
39.252545
39.266671
39.268249
39.257672
39.24998
39.2395
39.225579
39.216673
39.242539
39.250914
39.244729
39.253377
353.44441
353.44111
353.44191
353.44764
353.45298
353.4578
353.45392
353.45911
353.45723
353.44568
353.46674
353.46483
353.46814
353.46838
353.46729
353.47563
353.47015
353.46938
353.46301
353.4733
353.46905
353.47081
353.46718
353.47616
353.4588
353.4694
353.46491
353.47193
353.47527
353.47562
274.42233
274.41581
274.4397
274.45014
274.4672
274.44137
274.3992
274.40303
274.42323
274.42472
274.46805
274.45351
274.41163
274.41098
274.41446
274.46345
274.46844
274.43596
274.40104
274.3861
274.39069
274.39274
274.39878
274.43996
274.4237
274.40014
274.39015
274.38479
274.38613
274.3933
196.30503
196.28651
196.26513
196.26621
196.23632
196.24401
196.26201
196.30175
196.29519
196.27307
196.2392
196.24914
196.31412
196.2856
196.26462
196.25455
196.26013
196.254
196.28167
196.30896
196.31488
196.30757
196.28298
196.23417
196.27746
196.28031
196.29488
196.29841
196.31553
196.35182
117.69947
117.6666
117.65408
117.67633
117.67177
117.64096
117.67987
117.69285
117.7024
117.65756
117.65482
117.65312
117.66347
117.69379
117.63126
117.67079
117.6603
117.63957
117.64361
117.67607
117.68796
117.67644
117.65683
117.64731
117.64873
117.68812
117.67926
117.6891
117.6925
117.69681
39.247313
39.247784
39.271406
39.233473
39.243527
39.250391
39.259688
39.274026
39.254598
39.250387
39.265891
39.250891
39.243279
39.240145
39.252008
39.247195
39.237987
39.256339
39.255344
39.270086
39.276325
39.267629
39.259314
39.261819
39.254058
39.239098
39.2581
39.264751
39.27153
39.279909
353.44423
353.4632
353.44516
353.45244
353.44282
353.44662
353.44913
353.44704
353.45693
353.46628
353.47226
353.47312
353.47963
353.47243
353.4706
353.47781
353.45622
353.46209
353.45732
353.46287
353.45508
353.46409
353.46358
353.46087
353.46036
353.46748
353.46545
353.47768
353.466
353.46942
274.44272
274.46419
274.4428
274.41538
274.4284
274.42969
274.42012
274.42856
274.44688
274.47226
274.48624
274.47784
274.45054
274.42191
274.39055
274.44144
274.40933
274.40424
274.3994
274.4056
274.40218
274.39175
274.3867
274.41192
274.41413
274.4009
274.41589
274.43691
274.41366
274.39354
196.28542
196.23292
196.27837
196.27182
196.31764
196.28375
196.29192
196.26635
196.22133
196.26188
196.25812
196.27192
196.26719
196.28529
196.29132
196.27735
196.29351
196.30936
196.30163
196.30307
196.28486
196.31823
196.29936
196.28469
196.30392
196.29448
196.28719
196.26801
196.27089
196.28455
117.66897
117.64941
117.6361
117.67806
117.67768
117.66592
117.67669
117.64654
117.65375
117.65928
117.66298
117.66261
117.68128
117.62617
117.6836
117.61498
117.66058
117.66151
117.64064
117.62595
117.62036
117.6541
117.66207
117.61272
117.63096
117.6515
117.6158
117.63131
117.60699
117.66983
39.239838
39.256277
39.256075
39.237477
39.228882
39.248107
39.244111
39.260662
39.248822
39.230009
39.227327
39.222456
39.219182
39.247809
39.258413
39.260038
39.249897
39.241482
39.238605
39.271199
39.283521
39.252665
39.24534
39.25544
39.260376
39.220084
39.257242
39.270017
39.253116
39.254479
353.45055
353.44843
353.44261
353.45203
353.43648
353.46592
353.44998
353.45606
353.45677
353.45571
353.46323
353.46276
353.46623
353.4657
353.4644
353.46361
353.46625
353.4725
353.45902
353.47393
353.47811
353.47
353.46737
353.46318
353.47202
353.47717
353.47056
353.4764
353.47877
353.47025
274.46637
274.44361
274.4205
274.41971
274.43429
274.45209
274.42343
274.40556
274.40602
274.42739
274.43715
274.43959
274.42969
274.40296
274.40602
274.40336
274.45802
274.4745
274.43785
274.47711
274.47213
274.42068
274.4174
274.44435
274.46828
274.47424
274.45312
274.4818
274.4624
274.43763
196.25576
196.25387
196.28255
196.28937
196.30194
196.2404
196.27909
196.30134
196.30924
196.29596
196.29582
196.30256
196.28935
196.31596
196.31834
196.27643
196.25014
196.26835
196.29214
196.25321
196.24674
196.29062
196.2885
196.27
196.27217
196.26542
196.27688
196.26382
196.27269
196.2842
117.67488
117.63621
117.67516
117.70375
117.66477
117.6636
117.64562
117.69655
117.70464
117.62947
117.65259
117.65037
117.63725
117.70337
117.68229
117.65699
117.63656
117.68468
117.65895
117.64236
117.64325
117.64146
117.67174
117.65792
117.68481
117.69078
117.6689
117.66869
117.66419
117.64242
39.244865
39.259995
39.252269
39.255792
39.236922
39.25622
39.255796
39.247911
39.24874
39.261146
39.277301
39.269245
39.24759
39.24173
39.262281
39.248537
39.251754
39.237049
39.229791
39.248088
39.263352
39.24322
39.229536
39.220447
39.227208
39.225628
39.230493
39.251045
39.226516
39.250957
)
;

boundaryField
{
    minX
    {
        type            calculated;
        value           nonuniform List<scalar> 
50
(
353.46209
274.42242
196.32993
117.69629
39.290677
353.45466
274.42078
196.28374
117.67671
39.264732
353.44304
274.45217
196.27493
117.66005
39.291816
353.43826
274.44961
196.28102
117.64219
39.259319
353.4423
274.4505
196.27877
117.65742
39.228693
353.44029
274.4319
196.30015
117.69122
39.233527
353.44761
274.42733
196.3081
117.70456
39.23913
353.44441
274.42233
196.30503
117.69947
39.247313
353.44423
274.44272
196.28542
117.66897
39.239838
353.45055
274.46637
196.25576
117.67488
39.244865
)
;
    }
    maxX
    {
        type            calculated;
        value           nonuniform List<scalar> 
50
(
353.47322
274.43437
196.28231
117.63983
39.266651
353.47265
274.39931
196.29585
117.66526
39.245745
353.47257
274.39189
196.34303
117.69016
39.262329
353.47623
274.39424
196.3087
117.68578
39.253385
353.46976
274.40422
196.28493
117.67808
39.243504
353.47838
274.41059
196.26625
117.66918
39.246545
353.46748
274.39782
196.30412
117.66821
39.253377
353.47562
274.3933
196.35182
117.69681
39.279909
353.46942
274.39354
196.28455
117.66983
39.254479
353.47025
274.43763
196.2842
117.64242
39.250957
)
;
    }
    minY
    {
        type            calculated;
        value           nonuniform List<scalar> 
292
(
392.4
392.4
392.4
392.4
392.4
392.4
392.4
392.4
392.4
392.4
392.4
392.4
392.4
392.4
392.4
392.4
392.4
392.4
392.4
392.4
392.4
392.4
392.4
392.4
392.4
392.4
392.4
392.4
392.4
392.4
392.4
392.4
392.4
392.4
392.4
392.4
392.4
392.4
392.4
392.4
392.4
392.4
392.4
392.4
392.4
392.4
392.4
392.4
392.4
392.4
392.4
392.4
392.4
392.4
392.4
392.4
392.4
392.4
392.4
392.4
392.4
392.4
392.4
392.4
392.4
392.4
392.4
392.4
392.4
392.4
392.4
392.4
392.4
392.4
392.4
392.4
392.4
392.4
392.4
392.4
392.4
392.4
392.4
392.4
392.4
392.4
392.4
392.4
392.4
392.4
392.4
392.4
392.4
392.4
392.4
392.4
392.4
392.4
392.4
392.4
392.4
392.4
392.4
392.4
392.4
392.4
392.4
392.4
392.4
392.4
392.4
392.4
392.4
392.4
392.4
392.4
392.4
392.4
392.4
392.4
392.4
392.4
392.4
392.4
392.4
392.4
392.4
392.4
392.4
392.4
392.4
392.4
392.4
392.4
392.4
392.4
392.4
392.4
392.4
392.4
392.4
392.4
392.4
392.4
392.4
392.4
392.4
392.4
392.4
392.4
392.4
392.4
392.4
392.4
392.4
392.4
392.4
392.4
392.4
392.4
392.4
392.4
392.4
392.4
392.4
392.4
392.4
392.4
392.4
392.4
392.4
392.4
392.4
392.4
392.4
392.4
392.4
392.4
392.4
392.4
392.4
392.4
392.4
392.4
392.4
392.4
392.4
392.4
392.4
392.4
392.4
392.4
392.4
392.4
392.4
392.4
392.4
392.4
392.4
392.4
392.4
392.4
392.4
392.4
392.4
392.4
392.4
392.4
392.4
392.4
392.4
392.4
392.4
392.4
392.4
392.4
392.4
392.4
392.4
392.4
392.4
392.4
392.4
392.4
392.4
392.4
392.4
392.4
392.4
392.4
392.4
392.4
392.4
392.4
392.4
392.4
392.4
392.4
392.4
392.4
392.4
392.4
392.4
392.4
392.4
392.4
392.4
392.4
392.4
392.4
392.4
392.4
392.4
392.4
392.4
392.4
392.4
392.4
392.4
392.4
392.4
392.4
392.4
392.4
392.4
392.4
392.4
392.4
392.4
392.4
392.4
392.4
392.4
392.4
392.4
392.4
392.4
392.4
392.4
392.4
392.4
392.4
392.4
392.4
392.4
392.4
392.4
392.4
392.4
392.4
392.4
392.4
)
;
    }
    minZ
    {
        type            calculated;
        value           nonuniform List<scalar> 
150
(
353.46209
274.42242
196.32993
117.69629
39.290677
353.46484
274.41317
196.26731
117.66605
39.271048
353.46561
274.47742
196.24595
117.66161
39.268218
353.46272
274.51493
196.23627
117.67301
39.266018
353.45254
274.52633
196.22939
117.66044
39.259488
353.4372
274.49547
196.22372
117.65668
39.243932
353.41931
274.45656
196.25755
117.65446
39.238687
353.41899
274.45146
196.28231
117.6618
39.230457
353.43346
274.44615
196.29475
117.68517
39.23246
353.41793
274.45033
196.28941
117.67256
39.229514
353.42943
274.46463
196.23279
117.66594
39.228837
353.44931
274.50647
196.24112
117.65557
39.248365
353.47341
274.48376
196.23715
117.66496
39.217024
353.47569
274.40511
196.26293
117.68048
39.240467
353.47162
274.40704
196.28294
117.69558
39.258935
353.46575
274.43437
196.28297
117.63061
39.257342
353.47089
274.45716
196.26052
117.68925
39.232324
353.474
274.47991
196.26232
117.68968
39.231522
353.46468
274.4547
196.27074
117.65633
39.213165
353.47771
274.50018
196.23807
117.64277
39.249939
353.48211
274.48132
196.24986
117.64487
39.255659
353.47117
274.41062
196.25368
117.65593
39.23246
353.46921
274.40018
196.28682
117.67319
39.235871
353.47833
274.40098
196.30443
117.69551
39.235767
353.47625
274.38693
196.28348
117.68267
39.246007
353.4781
274.41742
196.26599
117.62996
39.250668
353.48326
274.44701
196.25866
117.68245
39.225609
353.47971
274.46636
196.26644
117.66601
39.229149
353.47936
274.46385
196.25524
117.64919
39.242273
353.47322
274.43437
196.28231
117.63983
39.266651
)
;
    }
    maxZ
    {
        type            calculated;
        value           nonuniform List<scalar> 
150
(
353.45055
274.46637
196.25576
117.67488
39.244865
353.44843
274.44361
196.25387
117.63621
39.259995
353.44261
274.4205
196.28255
117.67516
39.252269
353.45203
274.41971
196.28937
117.70375
39.255792
353.43648
274.43429
196.30194
117.66477
39.236922
353.46592
274.45209
196.2404
117.6636
39.25622
353.44998
274.42343
196.27909
117.64562
39.255796
353.45606
274.40556
196.30134
117.69655
39.247911
353.45677
274.40602
196.30924
117.70464
39.24874
353.45571
274.42739
196.29596
117.62947
39.261146
353.46323
274.43715
196.29582
117.65259
39.277301
353.46276
274.43959
196.30256
117.65037
39.269245
353.46623
274.42969
196.28935
117.63725
39.24759
353.4657
274.40296
196.31596
117.70337
39.24173
353.4644
274.40602
196.31834
117.68229
39.262281
353.46361
274.40336
196.27643
117.65699
39.248537
353.46625
274.45802
196.25014
117.63656
39.251754
353.4725
274.4745
196.26835
117.68468
39.237049
353.45902
274.43785
196.29214
117.65895
39.229791
353.47393
274.47711
196.25321
117.64236
39.248088
353.47811
274.47213
196.24674
117.64325
39.263352
353.47
274.42068
196.29062
117.64146
39.24322
353.46737
274.4174
196.2885
117.67174
39.229536
353.46318
274.44435
196.27
117.65792
39.220447
353.47202
274.46828
196.27217
117.68481
39.227208
353.47717
274.47424
196.26542
117.69078
39.225628
353.47056
274.45312
196.27688
117.6689
39.230493
353.4764
274.4818
196.26382
117.66869
39.251045
353.47877
274.4624
196.27269
117.66419
39.226516
353.47025
274.43763
196.2842
117.64242
39.250957
)
;
    }
    bottomWater_to_rightSolid
    {
        type            calculated;
        value           nonuniform List<scalar> 
130
(
-0.0084775964
-0.026835477
0.0099387491
0.015658808
-0.0075400058
-0.0041293505
-0.0042325583
0.0060068668
0.010668053
-0.01439065
-0.010851077
0.0022725596
0.026650678
-0.022846349
-0.012046132
0.017683558
0.026091076
0.010829867
0.01600218
0.022828887
0.017181241
-0.0011308962
-0.0045240102
0.0042343285
0.016045275
0.0057449938
-0.00047086201
0.02796777
0.033847061
0.030255106
0.022707737
0.011947038
0.015250877
0.001154045
-0.012447631
0.014731162
0.014875295
0.022281313
0.022328534
-0.016407883
-0.0074427708
0.0096008182
0.021098934
0.036032057
0.026839794
0.016744856
-0.0085877882
-0.019176539
0.0081945091
0.0015383266
0.0028231338
0.013385369
0.0010556577
-0.01760273
0.023333726
0.02973328
0.024836705
0.022999597
-0.0081989024
-0.02444424
-0.010023978
-0.011625841
-0.015741995
-0.003329614
0.0035035476
-0.0064465241
0.0061226004
0.017520195
0.004339929
0.0087928575
0.00049845919
-0.026657052
-0.018519647
-0.0057127095
-0.01535125
-0.0020126559
4.1847187e-05
0.0065451413
0.011514808
0.012544657
0.026670891
0.028249267
0.017672077
0.0099796914
-0.00049969763
-0.014421208
-0.02332713
0.0025387748
0.010914127
0.0047290897
0.013376645
0.016338648
0.015344366
0.030086453
0.036325078
0.027628508
0.019314202
0.021819165
0.014058181
-0.00090223145
0.018099543
0.024751393
0.031529976
0.039909014
0.001482441
-0.0013949428
0.031199462
0.043521406
0.012664603
0.0053401327
0.015439944
0.020375577
-0.019916307
0.01724164
0.030016738
0.013116337
0.014478656
-0.0029511362
-0.010209367
0.0080879764
0.023351801
0.0032196691
-0.010464423
-0.019552534
-0.012792077
-0.014372044
-0.0095072318
0.01104499
-0.013484404
0.010956536
)
;
    }
    bottomWater_to_leftSolid
    {
        type            calculated;
        value           nonuniform List<scalar> 
130
(
0.050676949
0.031047831
0.028217985
0.026017791
0.019488135
0.0039324504
-0.0013127871
-0.0095427741
-0.0075400499
-0.010485803
-0.011163085
0.008365352
-0.02297588
0.024732002
0.026426247
0.021017052
0.0079169887
-0.0065173054
-0.028119245
-0.017892954
-0.013096535
0.0060199489
7.1013218e-05
-0.00040051617
-0.019516221
-0.025257911
0.051816009
0.018554225
0.0026053881
-0.0013606262
0.0010476056
0.000568494
-0.0010242068
0.014906157
0.01600609
0.012022632
0.0046410102
0.0019969246
-0.018580946
0.019318793
-0.010746916
-0.0055165744
0.015300597
-0.0011931685
-0.0029937589
-0.0043279339
0.018244578
0.028559507
0.018143864
-0.001194248
0.0024224916
0.0063684205
-0.011307434
-0.024394942
-0.011368962
-0.011820448
-0.012432303
-0.019215561
-0.01751128
0.010604915
0.017022994
-0.0053567497
0.010911935
0.014097818
0.013510653
-0.0064729583
-0.012384379
0.0017964884
0.011500062
-0.002178456
-0.010531363
-0.0092704758
0.0089042981
-0.00090286968
0.00020703882
0.0087305915
0.014795235
0.018558876
-0.00087042708
-0.0062436764
-0.008700914
-0.0042796099
0.0052306436
-0.016614153
-0.012014401
0.0089332114
0.008480808
0.011909611
0.033712196
0.035673506
-0.003694734
0.0073132368
0.0077839739
0.031406475
-0.0065269621
0.0035265694
0.010391225
0.019687581
0.034026049
0.014598324
0.010386633
0.025891295
0.01089121
0.0032791059
-0.00016235051
0.016277354
0.016075472
-0.0025233823
-0.01111791
0.0081065479
0.00411149
0.020662432
0.0088218869
-0.009990906
-0.012673173
-0.017544099
-0.020817701
0.004864924
0.019994764
0.012269393
0.015791938
-0.0030776342
0.016220146
0.01579618
0.0079109906
0.0087396781
0.021146453
0.037300894
0.02924534
0.0075901891
)
;
    }
    bottomWater_to_heater
    {
        type            calculated;
        value           nonuniform List<scalar> 
92
(
0.00046660068
0.018934912
0.017341542
-0.0076756017
-0.0059023971
-0.0036606864
-0.020383317
-0.0091156568
-0.0050350319
0.011595605
-0.0012731317
-0.0011733411
353.43717
353.43125
353.44043
353.44188
274.44511
274.44265
274.42568
274.43275
196.27021
196.28415
196.2959
196.28367
117.63463
117.65439
117.64936
117.65835
0.027178404
39.267178
0.042965266
39.282965
0.0022854679
39.242285
0.01423553
39.254236
353.43764
353.45858
274.41622
274.42824
196.29705
196.3151
117.67516
117.69112
39.253511
39.241056
353.42964
353.46378
353.47331
353.47572
353.45684
353.47329
274.45207
274.44648
274.4675
274.48452
274.41152
274.46252
196.27695
196.24373
196.26703
196.27444
196.29714
196.25231
117.65121
117.65094
117.67873
117.67061
117.66652
117.65354
39.258559
39.236038
39.224754
39.234017
39.233553
39.233034
-0.0039620875
-0.01524601
-0.005982683
-0.0069656876
0.00014525818
0.012008035
0.0071945419
-0.0020129018
0.0078087953
0.018413164
0.020037647
0.009897033
0.0017299838
0.022280614
0.0085372366
0.011754145
)
;
    }
}


// ************************************************************************* //
