/*--------------------------------*- C++ -*----------------------------------*\
| =========                 |                                                 |
| \\      /  F ield         | OpenFOAM: The Open Source CFD Toolbox           |
|  \\    /   O peration     | Version:  v2012                                 |
|   \\  /    A nd           | Website:  www.openfoam.com                      |
|    \\/     M anipulation  |                                                 |
\*---------------------------------------------------------------------------*/
FoamFile
{
    version     2.0;
    format      ascii;
    class       volScalarField;
    location    "710/bottomWater";
    object      p_rgh;
}
// * * * * * * * * * * * * * * * * * * * * * * * * * * * * * * * * * * * * * //

dimensions      [1 -1 -2 0 0 0 0];


internalField   nonuniform List<scalar> 
1460
(
0.30208906
0.30484137
0.30560937
0.30271622
0.29254396
0.27719895
0.25931041
0.25899252
0.27346371
0.25793408
0.26943118
0.28931215
0.31340633
0.31568956
0.31161998
0.30575345
0.31089131
0.31400059
0.30467535
0.31771428
0.32210835
0.31116523
0.30921282
0.31833289
0.31625443
0.31809994
0.3232599
0.31971495
0.31936356
0.31322107
-0.25758482
-0.26683252
-0.20257918
-0.16506728
-0.15366926
-0.18453126
-0.22344136
-0.22854197
-0.23385062
-0.22966751
-0.21536983
-0.17353092
-0.19623893
-0.27489229
-0.27296415
-0.24562888
-0.22284487
-0.20009206
-0.22529706
-0.17981572
-0.19868033
-0.26938216
-0.2798157
-0.27901692
-0.29306769
-0.26258032
-0.23299245
-0.2136361
-0.21615211
-0.24563356
0.12993495
0.067312891
0.045945139
0.036270933
0.029394514
0.023718008
0.0575548
0.082306936
0.094747742
0.089413461
0.032789338
0.041117443
0.037152164
0.062927425
0.082936244
0.082966792
0.060521107
0.062322754
0.070740152
0.03807192
0.049863801
0.053679764
0.086824427
0.10442542
0.083479607
0.065991246
0.058664567
0.06644027
0.055239274
0.082314925
-0.023708086
-0.053952694
-0.058394898
-0.046993978
-0.059556062
-0.063315071
-0.065543844
-0.058197197
-0.034830748
-0.047442424
-0.05406377
-0.06443408
-0.05503556
-0.039519177
-0.024418626
-0.089393031
-0.030752298
-0.030319295
-0.063667306
-0.077233116
-0.075129594
-0.064072175
-0.046806025
-0.024489984
-0.037329731
-0.090041457
-0.037554214
-0.053988058
-0.070805946
-0.080166778
0.050676949
0.031047831
0.028217985
0.026017791
0.019488135
0.0039324504
-0.0013127871
-0.0095427741
-0.0075400499
-0.010485803
-0.011163085
0.008365352
-0.02297588
0.00046660068
0.018934912
0.017341542
-0.0076756017
-0.0084775964
-0.026835477
0.0099387491
0.015658808
-0.0075400058
-0.0041293505
-0.0042325583
0.0060068668
0.010668053
-0.01439065
-0.010851077
0.0022725596
0.026650678
0.29466342
0.30050663
0.29760859
0.26630599
0.26156764
0.25993158
0.26186344
0.26450016
0.27023669
0.26533715
0.26146938
0.26581652
0.29542027
0.31309958
0.30163735
0.29906961
0.29449988
0.3009406
0.29797884
0.31713956
0.3094203
0.31020694
0.3092203
0.30184753
0.30889717
0.30680386
0.31363328
0.30531063
0.32011036
0.31264989
-0.25921783
-0.22399615
-0.19676169
-0.23387792
-0.23271677
-0.24053882
-0.23688913
-0.23471882
-0.24576143
-0.23799956
-0.23025524
-0.23683599
-0.18428928
-0.19267939
-0.26414967
-0.27521408
-0.26465089
-0.26316097
-0.26111647
-0.24456194
-0.27344447
-0.28972283
-0.28821414
-0.27422733
-0.26854631
-0.28286006
-0.286928
-0.27234837
-0.25156277
-0.28069096
0.083738748
0.046883857
0.035975726
0.053507996
0.050718779
0.072414646
0.098416068
0.10827265
0.10351305
0.088035926
0.068154065
0.07574622
0.056338473
0.031059553
0.054373806
0.085818533
0.1130294
0.088397656
0.072891192
0.051202488
0.0759849
0.088621602
0.0899579
0.078735312
0.050710338
0.098863367
0.080109072
0.078200979
0.03738996
0.09584787
-0.043285255
-0.060360871
-0.063676137
-0.079470475
-0.091637855
-0.075316055
-0.050399763
-0.049947543
-0.054147923
-0.05923034
-0.067886315
-0.053824548
-0.043635054
-0.062569374
-0.067860665
-0.041248568
-0.036939391
-0.072827569
-0.10017022
-0.08431171
-0.097329756
-0.060030878
-0.046047782
-0.077802809
-0.064583561
-0.051918126
-0.031424609
-0.075916647
-0.067897241
-0.054737724
0.024732002
0.026426247
0.021017052
0.0079169887
-0.0065173054
-0.028119245
-0.017892954
-0.013096535
0.0060199489
7.1013218e-05
-0.00040051617
-0.019516221
-0.025257911
-0.0059023971
-0.0036606864
-0.020383317
-0.0091156568
-0.022846349
-0.012046132
0.017683558
0.026091076
0.010829867
0.01600218
0.022828887
0.017181241
-0.0011308962
-0.0045240102
0.0042343285
0.016045275
0.0057449938
0.28304098
0.29665521
0.27357166
0.28185824
0.28107305
0.27871323
0.27505001
0.27337978
0.27156869
0.26776349
0.26716341
0.26916032
0.28686699
0.30432179
0.29541898
0.29264148
0.29827445
0.29892888
0.30076737
0.30540051
0.31305627
0.31099718
0.30432415
0.32278295
0.32351093
0.31100102
0.30916818
0.31177941
0.31253375
0.3125684
-0.22782909
-0.21326998
-0.25120036
-0.25733386
-0.2539651
-0.25175521
-0.24953877
-0.25494484
-0.25520765
-0.24842073
-0.24341725
-0.23330446
-0.21052757
-0.16990663
-0.23291663
-0.270996
-0.27877219
-0.2781086
-0.26382942
-0.2725874
-0.29024774
-0.28288315
-0.27972895
-0.22195393
-0.20877038
-0.27314433
-0.27341241
-0.28571344
-0.28821052
-0.28811441
0.074927631
0.037900578
0.06659483
0.063814895
0.093534479
0.096617575
0.097687655
0.095766878
0.096138717
0.089932069
0.064583314
0.044111483
0.04427241
0.035489174
0.028856029
0.063406181
0.10372128
0.098849267
0.09365359
0.090630729
0.10742421
0.083990797
0.049963902
0.030983964
0.050344999
0.08363259
0.08247035
0.1077423
0.11693149
0.14303487
-0.059951446
-0.066960579
-0.074198476
-0.012947004
-0.0045415727
-0.002879227
-0.0068064813
-0.029932861
-0.036473451
-0.05120758
-0.054877409
-0.059368097
-0.053196507
-0.053973309
-0.063995084
-0.062986447
-0.032232727
-0.05258017
-0.085418468
-0.067540467
-0.05143619
-0.03638372
-0.085369638
-0.060852859
-0.071867878
-0.061948407
-0.051798801
-0.04203418
-0.051198444
-0.029838834
0.051816009
0.018554225
0.0026053881
-0.0013606262
0.0010476056
0.000568494
-0.0010242068
0.014906157
0.01600609
0.012022632
0.0046410102
0.0019969246
-0.018580946
-0.0050350319
0.011595605
-0.0012731317
-0.0011733411
-0.00047086201
0.02796777
0.033847061
0.030255106
0.022707737
0.011947038
0.015250877
0.001154045
-0.012447631
0.014731162
0.014875295
0.022281313
0.022328534
0.27825899
0.28113715
0.2727469
0.27666549
0.26624331
0.26103825
0.25262002
0.25339673
0.26897755
0.2565039
0.26691192
0.27072704
0.26642613
0.27716706
0.27125363
0.28042503
0.28187731
0.27222796
0.30681547
0.32466988
0.32369164
0.3203914
0.31124974
0.33827923
0.30871835
0.32221094
0.31525301
0.3113244
0.31170979
0.31623213
-0.23039278
-0.22209103
-0.24322142
-0.25230428
-0.24984669
-0.2343913
-0.22963985
-0.22551137
-0.21139439
-0.23912741
-0.25143883
-0.25997575
-0.23900973
-0.23488592
-0.23734593
-0.25432032
-0.24725041
-0.25994882
-0.22310618
-0.21738249
-0.29087822
-0.29290042
-0.26641882
-0.21198765
-0.26474488
-0.22498937
-0.23128893
-0.27199423
-0.29295571
-0.28576446
0.08101521
0.046616882
0.084203316
0.10118569
0.089646714
0.078875275
0.068408296
0.072338879
0.047558799
0.081867951
0.098891513
0.088193526
0.076940995
0.070205143
0.084153579
0.095903008
0.083673182
0.10646456
0.037168746
0.019536496
0.10367931
0.075617448
0.05898443
0.050354446
0.086426576
0.065055993
0.019460487
0.042712754
0.052216833
0.10870282
-0.077805594
-0.073978718
-0.052343976
-0.0095529337
-0.034526594
-0.05764121
-0.064307254
-0.077384576
-0.062135891
-0.067016377
-0.028764265
-0.044287603
-0.094825766
-0.085371863
-0.065608581
-0.070638671
-0.061646397
-0.060369976
-0.076861762
-0.093660834
-0.057164013
-0.034917253
-0.11113578
-0.070480552
-0.071979236
-0.048656325
-0.048759476
-0.071165974
-0.048305676
-0.034223746
0.019318793
-0.010746916
-0.0055165744
0.015300597
-0.0011931685
-0.0029937589
-0.0043279339
0.018244578
0.028559507
0.018143864
-0.001194248
0.0024224916
0.0063684205
0.027178404
0.042965266
0.0022854679
0.01423553
-0.016407883
-0.0074427708
0.0096008182
0.021098934
0.036032057
0.026839794
0.016744856
-0.0085877882
-0.019176539
0.0081945091
0.0015383266
0.0028231338
0.013385369
0.28230263
0.29451371
0.27934344
0.28047013
0.27199385
0.27386339
0.28276763
0.29130396
0.28761157
0.26453491
0.2739087
0.28363756
0.27764166
0.29857876
0.30637316
0.32286795
0.32082145
0.31849392
0.3144006
0.31560277
0.31747539
0.32247519
0.31323582
0.31810919
0.30155277
0.30976422
-0.22949736
-0.22481086
-0.2343995
-0.25592992
-0.23442124
-0.23247566
-0.20440467
-0.16161075
-0.18639479
-0.25657562
-0.2521902
-0.26893645
-0.26378258
-0.25175677
-0.23701363
-0.20918709
-0.25717207
-0.29338048
-0.24183253
-0.22712658
-0.20635297
-0.18942729
-0.19011734
-0.21796882
-0.27284443
-0.27577735
0.078767981
0.053395038
0.10706802
0.060819823
0.064421029
0.063277272
0.039657067
0.038301163
0.034575784
0.078527268
0.090140972
0.11242474
0.097048329
0.11510393
0.06369572
0.032635105
0.096395259
0.054113725
0.064445197
0.061615719
0.058315461
0.061251172
0.064995462
0.053357886
0.05299885
0.084927855
-0.062582132
-0.038794695
-0.035867766
-0.029997619
-0.04756314
-0.043061482
-0.061335279
-0.063762277
-0.056783268
-0.049005257
-0.047436144
-0.035532066
-0.044843875
-0.028882072
-0.069680488
-0.073979115
-0.092558088
-0.046313291
-0.11245541
-0.077552104
-0.064415673
-0.017721718
-0.029754461
-0.048774227
-0.063644738
-0.041921036
-0.011307434
-0.024394942
-0.011368962
-0.011820448
-0.012432303
-0.019215561
-0.01751128
0.010604915
0.017022994
-0.0053567497
0.010911935
0.014097818
0.013510653
0.0010556577
-0.01760273
0.023333726
0.02973328
0.024836705
0.022999597
-0.0081989024
-0.02444424
-0.010023978
-0.011625841
-0.015741995
-0.003329614
0.0035035476
0.28028608
0.27423508
0.28914176
0.27891133
0.28813372
0.29453884
0.2928408
0.3064562
0.29299401
0.27382518
0.28389826
0.28124792
0.26964475
0.29684269
0.29619261
0.31372556
0.30439052
0.30732014
0.32296561
0.3185581
0.32054186
0.33051103
0.31986421
0.32828764
0.31486458
0.31837877
-0.24810366
-0.25755312
-0.20679089
-0.18777876
-0.19029278
-0.1803059
-0.1831348
-0.16401812
-0.22300134
-0.25732708
-0.25496457
-0.25758571
-0.22793445
-0.2684779
-0.27370432
-0.24644476
-0.292638
-0.27306039
-0.21169159
-0.20857356
-0.19390236
-0.18444946
-0.19170009
-0.19477917
-0.25342116
-0.26940867
0.10014627
0.085899058
0.059264516
0.075157959
0.066221271
0.062270568
0.051761915
0.034006014
0.026561032
0.056652588
0.082438701
0.093765625
0.076954525
0.097143218
0.074189137
0.066115574
0.077602671
0.038298585
0.033962367
0.082549639
0.059002396
0.061775956
0.058496368
0.033902506
0.033056184
0.066246557
-0.028778658
-0.053676663
-0.05824112
-0.072813623
-0.041257565
-0.03541931
-0.044844751
-0.053784672
-0.046464712
-0.050533526
-0.035657396
-0.046216776
-0.06879355
-0.053481468
-0.086216375
-0.086476272
-0.055402249
-0.081720606
-0.07487194
-0.049925415
-0.023655492
-0.0065328111
-0.032267423
-0.048321916
-0.048947887
-0.050823405
-0.0064729583
-0.012384379
0.0017964884
0.011500062
-0.002178456
-0.010531363
-0.0092704758
0.0089042981
-0.00090286968
0.00020703882
0.0087305915
0.014795235
0.018558876
-0.0064465241
0.0061226004
0.017520195
0.004339929
0.0087928575
0.00049845919
-0.026657052
-0.018519647
-0.0057127095
-0.01535125
-0.0020126559
4.1847187e-05
0.0065451413
0.28760891
0.2831986
0.27762117
0.29656974
0.29904278
0.29763869
0.29600465
0.29726512
0.29661243
0.29722207
0.29639331
0.29296522
0.29245978
0.30377923
0.31330953
0.31572494
0.31329434
0.30526711
0.30859217
0.31279116
0.30582204
0.29920949
0.29631404
0.31871987
0.29962267
0.30348443
0.30312699
0.30191972
0.30094254
0.30748104
-0.25266711
-0.26094411
-0.24328205
-0.1918031
-0.15693348
-0.1992877
-0.24439629
-0.25849226
-0.27497978
-0.27186863
-0.2551345
-0.24326205
-0.26657018
-0.23351825
-0.21249643
-0.19548313
-0.21748488
-0.25928941
-0.28940742
-0.28669904
-0.28432939
-0.29197409
-0.27719994
-0.20542672
-0.22726652
-0.24430102
-0.24248178
-0.2669222
-0.28759652
-0.28218328
0.10809602
0.061007056
0.055841748
0.037979996
0.039991937
0.053713483
0.061189507
0.053646282
0.079060199
0.09797705
0.10075968
0.086603372
0.090492072
0.043733426
0.067027474
0.074435529
0.052307401
0.080681455
0.089593761
0.11926775
0.12068757
0.067001272
0.051898097
0.026058707
0.05936986
0.070280376
0.052232494
0.060050957
0.069376797
0.10411546
-0.01544352
-0.031845556
-0.056611516
-0.050384472
-0.050100627
-0.042831141
-0.054661126
-0.078047672
-0.045124845
-0.051334706
-0.0695245
-0.09439091
-0.053370646
-0.069058426
-0.041271547
-0.049385469
-0.066456097
-0.09262662
-0.053624962
-0.04282795
-0.047522662
-0.063207117
-0.09003029
-0.091327311
-0.0732749
-0.065894496
-0.089885583
-0.09067089
-0.077350268
-0.051793929
-0.00087042708
-0.0062436764
-0.008700914
-0.0042796099
0.0052306436
-0.016614153
-0.012014401
0.0089332114
0.008480808
0.011909611
0.033712196
0.035673506
-0.003694734
-0.0039620875
-0.01524601
-0.005982683
-0.0069656876
0.011514808
0.012544657
0.026670891
0.028249267
0.017672077
0.0099796914
-0.00049969763
-0.014421208
-0.02332713
0.0025387748
0.010914127
0.0047290897
0.013376645
0.284412
0.28111247
0.28191216
0.28764075
0.29297692
0.29779614
0.2939203
0.29911232
0.29723168
0.28568419
0.30673743
0.30483128
0.30814275
0.30837526
0.30728724
0.3156305
0.31014989
0.30938395
0.30301226
0.31329878
0.30905062
0.31081218
0.3071824
0.31615676
0.2987991
0.30939576
0.30490814
0.31192959
0.31526917
0.31561979
-0.25767161
-0.26419217
-0.24030311
-0.22986165
-0.21280474
-0.23862943
-0.28079609
-0.27697171
-0.2567689
-0.25528377
-0.2119495
-0.22648953
-0.26837314
-0.26901869
-0.26554214
-0.21654861
-0.21156284
-0.24404365
-0.27895822
-0.29389925
-0.28930716
-0.28726359
-0.2812171
-0.24004211
-0.25629811
-0.27986279
-0.28984971
-0.29520575
-0.29386916
-0.28670087
0.1050312
0.086511107
0.065133237
0.066210918
0.036319197
0.044012955
0.062010298
0.10175069
0.095189526
0.07306641
0.039198596
0.049138431
0.11411657
0.085599436
0.064623282
0.054550456
0.060132064
0.054003753
0.081668843
0.10895546
0.11487879
0.10756762
0.082979952
0.034170489
0.077458136
0.080308105
0.094881087
0.098409189
0.11552588
0.15181725
-0.020534498
-0.053402947
-0.065923667
-0.043670672
-0.048228797
-0.07904449
-0.040128109
-0.027153118
-0.017604141
-0.062435797
-0.065182058
-0.066881115
-0.056532431
-0.026212141
-0.088743535
-0.049205852
-0.059695295
-0.08042796
-0.076390778
-0.043925166
-0.032039248
-0.043557816
-0.063171717
-0.072690788
-0.071274248
-0.031882863
-0.040742739
-0.03090321
-0.027495725
-0.023193157
0.0073132368
0.0077839739
0.031406475
-0.0065269621
0.0035265694
0.010391225
0.019687581
0.034026049
0.014598324
0.010386633
0.025891295
0.01089121
0.0032791059
0.00014525818
0.012008035
0.0071945419
-0.0020129018
0.016338648
0.015344366
0.030086453
0.036325078
0.027628508
0.019314202
0.021819165
0.014058181
-0.00090223145
0.018099543
0.024751393
0.031529976
0.039909014
0.28422599
0.30319682
0.28515953
0.29244249
0.28282121
0.28662105
0.28912746
0.28703764
0.29693415
0.30628318
0.31225657
0.31311949
0.31962834
0.31243142
0.31060336
0.31780582
0.29622223
0.30208938
0.2973212
0.30286543
0.29507785
0.30408857
0.30357762
0.30087242
0.30035572
0.30747775
0.30545119
0.31767913
0.30599655
0.30942395
-0.23727768
-0.21581462
-0.23719674
-0.26462075
-0.25160073
-0.25031103
-0.25987792
-0.25144177
-0.23312199
-0.20773925
-0.19376041
-0.2021596
-0.22946472
-0.25809218
-0.28944788
-0.23855789
-0.27066911
-0.27575602
-0.28059562
-0.27439787
-0.2778202
-0.28825005
-0.29329885
-0.26808457
-0.26586932
-0.27909686
-0.26410564
-0.24309199
-0.26634035
-0.28646219
0.085416025
0.03291944
0.078367522
0.071823846
0.11764438
0.083748593
0.091920912
0.066346847
0.021334701
0.061876607
0.058119025
0.071916016
0.067191119
0.085293412
0.091321527
0.077347891
0.093505424
0.10935639
0.1016261
0.10306894
0.084862792
0.11822697
0.099355852
0.084693967
0.10392368
0.094482401
0.087190027
0.068011804
0.07089283
0.084553711
-0.051033028
-0.070593838
-0.083895998
-0.041944574
-0.042323294
-0.054084073
-0.043305705
-0.073455792
-0.066247089
-0.060721254
-0.057017962
-0.057389197
-0.038720583
-0.093834864
-0.036395073
-0.10502478
-0.05941558
-0.058485671
-0.079359396
-0.094052843
-0.099644872
-0.065898591
-0.057926932
-0.10727658
-0.089038961
-0.068496142
-0.10420004
-0.088691217
-0.11300778
-0.050170724
-0.00016235051
0.016277354
0.016075472
-0.0025233823
-0.01111791
0.0081065479
0.00411149
0.020662432
0.0088218869
-0.009990906
-0.012673173
-0.017544099
-0.020817701
0.0078087953
0.018413164
0.020037647
0.009897033
0.001482441
-0.0013949428
0.031199462
0.043521406
0.012664603
0.0053401327
0.015439944
0.020375577
-0.019916307
0.01724164
0.030016738
0.013116337
0.014478656
0.29055249
0.28842775
0.28260516
0.29203404
0.27647915
0.30591976
0.28997586
0.29605744
0.29676617
0.29570766
0.30322936
0.30275643
0.30623228
0.30570272
0.30440326
0.30361254
0.30625217
0.3124961
0.29902188
0.31392881
0.31810678
0.30999862
0.30736621
0.30318267
0.31201655
0.31716737
0.31056384
0.31639556
0.3187724
0.3102542
-0.21362761
-0.23639439
-0.25950291
-0.26028878
-0.24570963
-0.22791105
-0.2565734
-0.27444417
-0.27397889
-0.25260859
-0.24285453
-0.24040574
-0.2503114
-0.27703875
-0.27397939
-0.27663569
-0.22198279
-0.20549769
-0.24214859
-0.20289423
-0.20786584
-0.25931782
-0.26259508
-0.23565309
-0.21172319
-0.20576051
-0.22687752
-0.19820159
-0.21759934
-0.24237037
0.055756012
0.053865106
0.082547715
0.089367103
0.10193874
0.040403865
0.079089824
0.10134439
0.10924213
0.095961232
0.095821151
0.10255539
0.089349412
0.11596435
0.11834377
0.076434483
0.050144759
0.068353482
0.092140562
0.053210958
0.046744333
0.090622282
0.088504807
0.069995266
0.07216797
0.065421811
0.076883279
0.063819212
0.0726854
0.084197884
-0.045117919
-0.083794545
-0.044835628
-0.016250375
-0.055229913
-0.056400334
-0.074382526
-0.023454376
-0.015361267
-0.090527115
-0.067409394
-0.069631207
-0.082748654
-0.016632515
-0.037707351
-0.063007078
-0.083444904
-0.035320998
-0.061047869
-0.077635673
-0.076754123
-0.078543501
-0.048256985
-0.062081183
-0.035192976
-0.02921778
-0.051104048
-0.051312654
-0.055811646
-0.077582855
0.004864924
0.019994764
0.012269393
0.015791938
-0.0030776342
0.016220146
0.01579618
0.0079109906
0.0087396781
0.021146453
0.037300894
0.02924534
0.0075901891
0.0017299838
0.022280614
0.0085372366
0.011754145
-0.0029511362
-0.010209367
0.0080879764
0.023351801
0.0032196691
-0.010464423
-0.019552534
-0.012792077
-0.014372044
-0.0095072318
0.01104499
-0.013484404
0.010956536
)
;

boundaryField
{
    minX
    {
        type            fixedFluxPressure;
        gradient        uniform 0;
        value           nonuniform List<scalar> 
50
(
0.30208906
-0.25758482
0.12993495
-0.023708086
0.050676949
0.29466342
-0.25921783
0.083738748
-0.043285255
0.024732002
0.28304098
-0.22782909
0.074927631
-0.059951446
0.051816009
0.27825899
-0.23039278
0.08101521
-0.077805594
0.019318793
0.28230263
-0.22949736
0.078767981
-0.062582132
-0.011307434
0.28028608
-0.24810366
0.10014627
-0.028778658
-0.0064729583
0.28760891
-0.25266711
0.10809602
-0.01544352
-0.00087042708
0.284412
-0.25767161
0.1050312
-0.020534498
0.0073132368
0.28422599
-0.23727768
0.085416025
-0.051033028
-0.00016235051
0.29055249
-0.21362761
0.055756012
-0.045117919
0.004864924
)
;
    }
    maxX
    {
        type            fixedFluxPressure;
        gradient        uniform 0;
        value           nonuniform List<scalar> 
50
(
0.31322107
-0.24563356
0.082314925
-0.080166778
0.026650678
0.31264989
-0.28069096
0.09584787
-0.054737724
0.0057449938
0.3125684
-0.28811441
0.14303487
-0.029838834
0.022328534
0.31623213
-0.28576446
0.10870282
-0.034223746
0.013385369
0.30976422
-0.27577735
0.084927855
-0.041921036
0.0035035476
0.31837877
-0.26940867
0.066246557
-0.050823405
0.0065451413
0.30748104
-0.28218328
0.10411546
-0.051793929
0.013376645
0.31561979
-0.28670087
0.15181725
-0.023193157
0.039909014
0.30942395
-0.28646219
0.084553711
-0.050170724
0.014478656
0.3102542
-0.24237037
0.084197884
-0.077582855
0.010956536
)
;
    }
    minY
    {
        type            fixedValue;
        value           uniform 0;
    }
    minZ
    {
        type            fixedFluxPressure;
        gradient        uniform 0;
        value           nonuniform List<scalar> 
150
(
0.30208906
-0.25758482
0.12993495
-0.023708086
0.050676949
0.30484137
-0.26683252
0.067312891
-0.053952694
0.031047831
0.30560937
-0.20257918
0.045945139
-0.058394898
0.028217985
0.30271622
-0.16506728
0.036270933
-0.046993978
0.026017791
0.29254396
-0.15366926
0.029394514
-0.059556062
0.019488135
0.27719895
-0.18453126
0.023718008
-0.063315071
0.0039324504
0.25931041
-0.22344136
0.0575548
-0.065543844
-0.0013127871
0.25899252
-0.22854197
0.082306936
-0.058197197
-0.0095427741
0.27346371
-0.23385062
0.094747742
-0.034830748
-0.0075400499
0.25793408
-0.22966751
0.089413461
-0.047442424
-0.010485803
0.26943118
-0.21536983
0.032789338
-0.05406377
-0.011163085
0.28931215
-0.17353092
0.041117443
-0.06443408
0.008365352
0.31340633
-0.19623893
0.037152164
-0.05503556
-0.02297588
0.31568956
-0.27489229
0.062927425
-0.039519177
0.00046660068
0.31161998
-0.27296415
0.082936244
-0.024418626
0.018934912
0.30575345
-0.24562888
0.082966792
-0.089393031
0.017341542
0.31089131
-0.22284487
0.060521107
-0.030752298
-0.0076756017
0.31400059
-0.20009206
0.062322754
-0.030319295
-0.0084775964
0.30467535
-0.22529706
0.070740152
-0.063667306
-0.026835477
0.31771428
-0.17981572
0.03807192
-0.077233116
0.0099387491
0.32210835
-0.19868033
0.049863801
-0.075129594
0.015658808
0.31116523
-0.26938216
0.053679764
-0.064072175
-0.0075400058
0.30921282
-0.2798157
0.086824427
-0.046806025
-0.0041293505
0.31833289
-0.27901692
0.10442542
-0.024489984
-0.0042325583
0.31625443
-0.29306769
0.083479607
-0.037329731
0.0060068668
0.31809994
-0.26258032
0.065991246
-0.090041457
0.010668053
0.3232599
-0.23299245
0.058664567
-0.037554214
-0.01439065
0.31971495
-0.2136361
0.06644027
-0.053988058
-0.010851077
0.31936356
-0.21615211
0.055239274
-0.070805946
0.0022725596
0.31322107
-0.24563356
0.082314925
-0.080166778
0.026650678
)
;
    }
    maxZ
    {
        type            fixedFluxPressure;
        gradient        uniform 0;
        value           nonuniform List<scalar> 
150
(
0.29055249
-0.21362761
0.055756012
-0.045117919
0.004864924
0.28842775
-0.23639439
0.053865106
-0.083794545
0.019994764
0.28260516
-0.25950291
0.082547715
-0.044835628
0.012269393
0.29203404
-0.26028878
0.089367103
-0.016250375
0.015791938
0.27647915
-0.24570963
0.10193874
-0.055229913
-0.0030776342
0.30591976
-0.22791105
0.040403865
-0.056400334
0.016220146
0.28997586
-0.2565734
0.079089824
-0.074382526
0.01579618
0.29605744
-0.27444417
0.10134439
-0.023454376
0.0079109906
0.29676617
-0.27397889
0.10924213
-0.015361267
0.0087396781
0.29570766
-0.25260859
0.095961232
-0.090527115
0.021146453
0.30322936
-0.24285453
0.095821151
-0.067409394
0.037300894
0.30275643
-0.24040574
0.10255539
-0.069631207
0.02924534
0.30623228
-0.2503114
0.089349412
-0.082748654
0.0075901891
0.30570272
-0.27703875
0.11596435
-0.016632515
0.0017299838
0.30440326
-0.27397939
0.11834377
-0.037707351
0.022280614
0.30361254
-0.27663569
0.076434483
-0.063007078
0.0085372366
0.30625217
-0.22198279
0.050144759
-0.083444904
0.011754145
0.3124961
-0.20549769
0.068353482
-0.035320998
-0.0029511362
0.29902188
-0.24214859
0.092140562
-0.061047869
-0.010209367
0.31392881
-0.20289423
0.053210958
-0.077635673
0.0080879764
0.31810678
-0.20786584
0.046744333
-0.076754123
0.023351801
0.30999862
-0.25931782
0.090622282
-0.078543501
0.0032196691
0.30736621
-0.26259508
0.088504807
-0.048256985
-0.010464423
0.30318267
-0.23565309
0.069995266
-0.062081183
-0.019552534
0.31201655
-0.21172319
0.07216797
-0.035192976
-0.012792077
0.31716737
-0.20576051
0.065421811
-0.02921778
-0.014372044
0.31056384
-0.22687752
0.076883279
-0.051104048
-0.0095072318
0.31639556
-0.19820159
0.063819212
-0.051312654
0.01104499
0.3187724
-0.21759934
0.0726854
-0.055811646
-0.013484404
0.3102542
-0.24237037
0.084197884
-0.077582855
0.010956536
)
;
    }
    bottomWater_to_rightSolid
    {
        type            fixedFluxPressure;
        gradient        uniform 0;
        value           nonuniform List<scalar> 
130
(
-0.0084775964
-0.026835477
0.0099387491
0.015658808
-0.0075400058
-0.0041293505
-0.0042325583
0.0060068668
0.010668053
-0.01439065
-0.010851077
0.0022725596
0.026650678
-0.022846349
-0.012046132
0.017683558
0.026091076
0.010829867
0.01600218
0.022828887
0.017181241
-0.0011308962
-0.0045240102
0.0042343285
0.016045275
0.0057449938
-0.00047086201
0.02796777
0.033847061
0.030255106
0.022707737
0.011947038
0.015250877
0.001154045
-0.012447631
0.014731162
0.014875295
0.022281313
0.022328534
-0.016407883
-0.0074427708
0.0096008182
0.021098934
0.036032057
0.026839794
0.016744856
-0.0085877882
-0.019176539
0.0081945091
0.0015383266
0.0028231338
0.013385369
0.0010556577
-0.01760273
0.023333726
0.02973328
0.024836705
0.022999597
-0.0081989024
-0.02444424
-0.010023978
-0.011625841
-0.015741995
-0.003329614
0.0035035476
-0.0064465241
0.0061226004
0.017520195
0.004339929
0.0087928575
0.00049845919
-0.026657052
-0.018519647
-0.0057127095
-0.01535125
-0.0020126559
4.1847187e-05
0.0065451413
0.011514808
0.012544657
0.026670891
0.028249267
0.017672077
0.0099796914
-0.00049969763
-0.014421208
-0.02332713
0.0025387748
0.010914127
0.0047290897
0.013376645
0.016338648
0.015344366
0.030086453
0.036325078
0.027628508
0.019314202
0.021819165
0.014058181
-0.00090223145
0.018099543
0.024751393
0.031529976
0.039909014
0.001482441
-0.0013949428
0.031199462
0.043521406
0.012664603
0.0053401327
0.015439944
0.020375577
-0.019916307
0.01724164
0.030016738
0.013116337
0.014478656
-0.0029511362
-0.010209367
0.0080879764
0.023351801
0.0032196691
-0.010464423
-0.019552534
-0.012792077
-0.014372044
-0.0095072318
0.01104499
-0.013484404
0.010956536
)
;
    }
    bottomWater_to_leftSolid
    {
        type            fixedFluxPressure;
        gradient        uniform 0;
        value           nonuniform List<scalar> 
130
(
0.050676949
0.031047831
0.028217985
0.026017791
0.019488135
0.0039324504
-0.0013127871
-0.0095427741
-0.0075400499
-0.010485803
-0.011163085
0.008365352
-0.02297588
0.024732002
0.026426247
0.021017052
0.0079169887
-0.0065173054
-0.028119245
-0.017892954
-0.013096535
0.0060199489
7.1013218e-05
-0.00040051617
-0.019516221
-0.025257911
0.051816009
0.018554225
0.0026053881
-0.0013606262
0.0010476056
0.000568494
-0.0010242068
0.014906157
0.01600609
0.012022632
0.0046410102
0.0019969246
-0.018580946
0.019318793
-0.010746916
-0.0055165744
0.015300597
-0.0011931685
-0.0029937589
-0.0043279339
0.018244578
0.028559507
0.018143864
-0.001194248
0.0024224916
0.0063684205
-0.011307434
-0.024394942
-0.011368962
-0.011820448
-0.012432303
-0.019215561
-0.01751128
0.010604915
0.017022994
-0.0053567497
0.010911935
0.014097818
0.013510653
-0.0064729583
-0.012384379
0.0017964884
0.011500062
-0.002178456
-0.010531363
-0.0092704758
0.0089042981
-0.00090286968
0.00020703882
0.0087305915
0.014795235
0.018558876
-0.00087042708
-0.0062436764
-0.008700914
-0.0042796099
0.0052306436
-0.016614153
-0.012014401
0.0089332114
0.008480808
0.011909611
0.033712196
0.035673506
-0.003694734
0.0073132368
0.0077839739
0.031406475
-0.0065269621
0.0035265694
0.010391225
0.019687581
0.034026049
0.014598324
0.010386633
0.025891295
0.01089121
0.0032791059
-0.00016235051
0.016277354
0.016075472
-0.0025233823
-0.01111791
0.0081065479
0.00411149
0.020662432
0.0088218869
-0.009990906
-0.012673173
-0.017544099
-0.020817701
0.004864924
0.019994764
0.012269393
0.015791938
-0.0030776342
0.016220146
0.01579618
0.0079109906
0.0087396781
0.021146453
0.037300894
0.02924534
0.0075901891
)
;
    }
    bottomWater_to_heater
    {
        type            fixedFluxPressure;
        gradient        uniform 0;
        value           nonuniform List<scalar> 
92
(
0.00046660068
0.018934912
0.017341542
-0.0076756017
-0.0059023971
-0.0036606864
-0.020383317
-0.0091156568
-0.0050350319
0.011595605
-0.0012731317
-0.0011733411
0.27716706
0.27125363
0.28042503
0.28187731
-0.23488592
-0.23734593
-0.25432032
-0.24725041
0.070205143
0.084153579
0.095903008
0.083673182
-0.085371863
-0.065608581
-0.070638671
-0.061646397
0.027178404
0.027178404
0.042965266
0.042965266
0.0022854679
0.0022854679
0.01423553
0.01423553
0.27764166
0.29857876
-0.26378258
-0.25175677
0.097048329
0.11510393
-0.044843875
-0.028882072
0.013510653
0.0010556577
0.26964475
0.30377923
0.31330953
0.31572494
0.29684269
0.31329434
-0.22793445
-0.23351825
-0.21249643
-0.19548313
-0.2684779
-0.21748488
0.076954525
0.043733426
0.067027474
0.074435529
0.097143218
0.052307401
-0.06879355
-0.069058426
-0.041271547
-0.049385469
-0.053481468
-0.066456097
0.018558876
-0.0039620875
-0.01524601
-0.005982683
-0.0064465241
-0.0069656876
-0.0039620875
-0.01524601
-0.005982683
-0.0069656876
0.00014525818
0.012008035
0.0071945419
-0.0020129018
0.0078087953
0.018413164
0.020037647
0.009897033
0.0017299838
0.022280614
0.0085372366
0.011754145
)
;
    }
}


// ************************************************************************* //
