/*--------------------------------*- C++ -*----------------------------------*\
| =========                 |                                                 |
| \\      /  F ield         | OpenFOAM: The Open Source CFD Toolbox           |
|  \\    /   O peration     | Version:  v2012                                 |
|   \\  /    A nd           | Website:  www.openfoam.com                      |
|    \\/     M anipulation  |                                                 |
\*---------------------------------------------------------------------------*/
FoamFile
{
    version     2.0;
    format      ascii;
    class       volScalarField;
    location    "710/bottomWater";
    object      T;
}
// * * * * * * * * * * * * * * * * * * * * * * * * * * * * * * * * * * * * * //

dimensions      [0 0 0 1 0 0 0];


internalField   nonuniform List<scalar> 
1460
(
967.68803
966.72172
966.26442
966.19788
967.35392
968.689
971.59989
974.74746
975.43997
964.945
958.3715
952.34892
944.93157
934.57348
929.12506
926.13522
924.67283
918.93681
919.07909
917.64804
917.61577
917.86285
918.74713
920.04934
922.12434
920.94172
919.99522
920.75006
920.97597
920.70322
965.79561
965.23376
965.32181
965.53439
966.30477
966.80311
967.50002
969.91813
970.20183
961.83329
958.30081
953.34356
947.84314
944.26415
932.59392
925.22525
925.48677
918.39226
917.6132
918.12829
918.78258
918.82597
918.96565
920.30963
921.8106
920.99577
920.63989
922.0771
922.79006
922.32879
965.87571
965.43263
965.22947
965.31696
966.34552
966.84985
967.3934
968.43784
967.24159
960.03281
957.98336
952.8135
942.62889
943.37229
932.42742
927.07905
925.7843
918.01495
917.16064
918.19472
919.01695
919.02042
919.08447
920.3926
922.04704
922.07563
920.46287
922.2208
923.0009
922.7449
965.96088
965.8053
965.47648
964.64296
964.77619
965.294
965.41102
965.26403
964.50765
954.38568
952.17896
940.00048
939.08081
940.59881
930.62282
928.08396
926.05832
915.82172
916.13105
918.50316
919.04021
918.67715
918.52553
920.00356
921.68592
921.90417
920.24216
922.49697
923.04571
923.57231
965.89088
965.79568
965.66575
965.36691
965.13704
965.13493
965.15047
965.05583
964.79746
950.52478
939.76016
938.13908
938.08893
933.62366
929.02051
928.92364
926.55216
915.36368
915.93076
916.66594
917.40355
917.15129
917.63954
917.83716
920.30666
919.72859
920.09528
922.43131
922.44239
922.64001
968.13969
965.59595
965.59595
967.93789
969.96777
972.06875
974.77031
978.29757
973.20269
960.66259
955.44622
950.84239
946.77995
930.66407
929.50127
928.87925
926.71151
920.87135
919.9337
917.21897
917.04005
917.9231
922.30224
923.99468
923.19524
923.98693
921.89061
922.08065
921.21243
921.25435
965.9205
964.42577
964.2903
965.5886
966.77517
968.18311
970.16491
972.32392
970.44665
957.76078
953.99032
951.04559
947.68095
932.80264
927.65767
926.14659
925.21102
919.77848
918.70151
919.05768
918.7399
918.57082
921.87152
923.38086
922.85349
923.38313
922.32827
922.61443
923.70553
922.77497
965.94104
965.36548
964.16881
965.28214
966.41955
966.64601
966.55062
968.49917
969.26451
962.20163
959.19569
953.50686
947.80821
931.09678
924.72788
924.51606
923.58447
921.1964
920.35606
919.73699
919.06455
918.6334
921.41477
921.50727
922.55223
923.61292
922.55173
923.27446
923.80056
922.91041
966.05324
965.18828
963.79066
963.89931
964.87508
965.31194
965.26607
965.18439
967.3696
963.88569
959.51582
951.99784
944.29773
937.71132
927.41063
926.39522
920.65228
918.55904
918.61618
918.60536
918.91818
919.0079
921.51683
921.12763
922.42014
922.65927
922.22954
923.02904
923.95119
923.65415
965.86147
965.51786
964.96819
964.76713
964.79613
964.85309
964.92091
964.84857
965.85178
963.13874
959.2889
952.6141
940.95547
932.18474
927.87568
925.67178
918.85568
914.5054
915.96727
917.03687
917.53982
918.02293
919.58628
920.18116
920.57837
919.81024
921.43255
923.41923
923.38252
922.78215
970.53675
964.32533
967.84289
969.65045
970.49025
971.36841
973.52241
970.33009
954.69261
949.82408
944.05586
938.14166
932.04784
924.15641
920.97371
924.56837
924.60517
920.83872
917.75948
916.65973
918.4494
921.22362
921.60322
921.06807
920.92985
921.46444
923.60679
924.89784
923.77016
923.29027
966.67293
963.20617
964.25436
965.39535
966.72094
968.11904
969.38409
967.30856
953.63287
948.50109
943.7417
938.97586
933.94852
923.79999
918.82028
919.65137
921.08347
919.97557
918.03484
917.5412
919.16197
921.6529
922.24703
922.17555
922.54013
922.52854
923.63032
924.56384
924.73385
924.01634
965.65755
963.4429
962.75244
964.41794
966.25247
968.19474
969.33159
968.48638
956.75792
951.33561
945.47196
942.69272
936.80599
923.99789
918.64869
918.90722
920.53701
919.97764
918.73989
918.17191
918.9335
921.56644
921.9402
921.97519
922.36925
922.18991
923.70454
924.73975
924.9322
924.10021
963.11818
962.8669
963.17569
963.74348
965.17915
966.1174
966.54224
967.83145
961.65919
956.82735
950.1863
946.40046
939.80182
937.24704
926.53846
918.95346
916.11641
917.73218
916.68129
917.98307
918.83027
921.33517
921.58557
921.67275
921.87488
921.08965
923.84193
925.1299
925.0211
924.31038
964.05281
964.24706
964.37548
964.39988
964.37862
964.2991
964.16109
966.99645
962.9094
959.29322
955.45718
947.55204
936.25706
926.81297
921.21718
917.47372
912.80914
913.7768
915.21821
916.33822
917.74654
919.10753
918.8388
919.42104
919.42392
919.77762
923.73552
924.64717
924.29783
922.8059
972.876
964.62308
968.05372
967.27552
965.42869
965.76981
967.37309
966.24006
961.98636
962.44205
954.0308
941.74186
930.68294
923.48589
921.46009
920.3058
918.41989
915.23029
913.22566
911.64548
913.14377
918.34958
919.16722
918.84827
921.13215
921.05564
924.48452
925.46702
926.38088
927.03739
967.27002
962.14346
963.05301
961.692
961.22685
962.87301
964.1747
962.57343
955.74332
955.66686
949.27624
932.90383
924.52556
917.21403
916.01666
914.50081
913.58023
913.34051
913.07295
914.48831
914.00761
919.94709
921.41383
921.77414
921.43291
922.31354
925.05742
926.00353
926.58387
927.2479
965.22125
962.35756
961.41202
960.9502
961.16488
964.4936
966.23013
967.22367
955.33521
950.92123
949.32978
934.33598
925.54532
916.5348
911.5006
911.87086
911.04284
912.08219
913.19241
915.94763
914.34746
920.09721
921.71197
921.76122
921.68739
921.96104
925.10225
926.80185
926.88657
927.22907
962.0974
962.43669
962.01765
960.95632
961.1407
961.554
962.69384
964.48763
958.4987
951.23533
948.8073
936.8074
933.7331
931.77399
916.04347
909.69623
906.27747
912.68263
914.52017
916.32183
915.61069
920.35747
921.28131
921.4387
921.09619
921.59369
926.85701
927.64371
927.42098
927.40729
963.50715
964.15256
964.07906
962.83667
962.26426
961.89923
962.24312
963.05909
959.53961
953.00509
945.28598
934.98982
926.5187
924.78099
913.43296
909.27268
907.03736
913.05692
914.81865
915.66613
916.50948
919.87815
919.98798
919.88858
919.39034
920.55881
924.69862
925.03785
924.02803
925.16232
969.94973
962.84443
965.51992
961.7344
959.30376
959.27147
960.46304
960.70929
951.84056
956.75383
958.33347
949.81754
925.60464
901.72034
909.0779
909.54361
909.67036
918.05474
919.06297
919.48805
920.18721
921.65118
925.86808
926.38472
927.353
927.40431
966.68613
961.09354
961.37504
957.33654
956.19753
957.75995
960.62904
960.40681
948.62737
951.02748
952.08046
944.44501
924.55899
895.28093
906.84412
909.98181
910.74097
917.80206
919.98428
919.99474
920.40758
922.38603
926.20509
927.3423
927.6332
927.67349
964.88225
961.19538
959.34803
957.42221
956.4217
959.3089
961.27168
960.66431
947.50498
943.49498
944.23543
941.98164
925.28099
901.65516
906.54315
910.04212
916.65638
918.10996
920.61953
919.73807
919.65816
921.91902
925.87455
927.35208
927.8443
927.87446
961.36306
960.91144
959.41431
957.96348
957.43429
958.5314
959.48232
961.02819
951.97144
942.41486
931.30048
936.17544
922.67886
905.97573
912.49009
915.43964
917.82156
918.44524
919.35893
919.62399
919.01098
921.02014
925.22427
926.47372
927.42399
928.10487
961.28748
961.70503
960.11094
955.58766
956.85833
959.24678
959.51066
959.45281
955.92076
944.17861
927.80922
926.81874
919.09997
908.33398
913.15877
914.80011
916.54474
917.97829
918.48705
918.51152
918.46961
919.88826
924.40991
924.65373
924.76751
925.77215
969.41703
964.66049
960.99076
958.75969
955.09778
953.16263
953.3865
954.87319
954.29071
957.76515
955.77563
942.63045
923.46865
903.79883
911.99815
911.58396
915.26619
916.28476
915.72085
915.06947
915.43059
918.15419
921.48545
923.45752
924.25912
923.69963
964.82505
961.29425
959.93562
955.55888
953.11749
951.85829
952.30834
954.15837
950.10692
952.38877
950.82604
932.65176
917.28221
900.50041
908.55268
906.64257
916.76663
917.59119
917.55096
916.30038
915.78374
919.26082
922.78456
925.80664
926.62924
926.04353
964.87161
962.46584
961.42079
956.02906
953.68685
952.46725
951.96058
952.61442
948.52078
948.68946
947.66779
931.64826
913.88394
898.15813
900.66914
905.50877
916.61049
917.34694
917.96156
916.17185
915.70737
918.89255
923.18175
926.47193
927.00645
926.50993
961.71592
960.385
960.51874
957.53678
954.29905
952.27614
951.72733
950.36414
945.8604
942.00973
943.80152
929.25489
912.15491
902.51601
905.8691
913.76409
916.32158
917.48305
917.88228
915.52386
915.16068
919.06592
924.26003
927.6663
927.2797
927.65295
958.84957
958.06961
957.17688
956.45226
956.15301
952.59251
952.27854
951.05301
946.65821
935.42508
932.29249
925.15413
914.32996
905.37877
908.72208
910.93148
913.38153
914.43188
914.74013
914.90737
914.93046
919.25777
924.21667
924.89843
925.13004
925.74976
968.56514
964.6498
962.15932
959.86304
956.55315
954.48387
956.25457
956.99864
957.50019
958.06261
943.16975
925.39396
918.45497
911.02811
911.79469
909.87741
906.66649
907.37558
907.67726
911.25561
917.59299
918.4829
918.1332
917.42152
917.61591
919.13657
921.75905
923.8253
925.53082
926.30865
965.07499
962.06081
961.03799
960.48713
955.94193
952.15456
951.88199
953.18823
952.71975
953.26407
937.05431
924.33664
918.62019
916.44796
916.56767
912.89916
908.57667
908.20133
908.2953
909.71045
917.88595
918.43839
918.60151
918.90421
917.66248
918.85444
921.13103
923.33349
924.76966
925.89398
965.53174
962.96298
963.20221
961.28172
955.96153
951.51745
950.77268
952.79405
953.0074
952.57343
938.90186
925.03534
919.06519
920.68692
918.56902
913.67823
907.74414
902.24973
907.94114
909.7776
917.66559
918.47975
918.80587
918.88935
917.98684
918.7539
921.42248
925.24819
925.37113
926.23567
965.57963
964.19657
962.74342
961.26878
957.62243
951.08172
950.09031
952.82772
953.24658
951.3937
943.98263
921.33228
919.38828
922.67868
917.79343
913.1277
910.37071
907.06816
908.42669
909.90509
917.31743
918.01845
918.26354
918.21098
916.91643
918.69561
922.4682
926.68285
926.33179
926.51005
960.88352
960.85496
959.99916
959.45995
956.72005
950.53764
948.65194
948.86183
948.2945
947.61891
941.99191
921.35648
919.18648
918.0184
919.42249
912.87418
907.38289
907.55127
908.58391
909.90613
915.77857
915.68248
915.68609
915.89452
915.91206
919.20764
923.82735
925.20738
925.23485
925.74039
973.526
967.94448
964.61871
962.28476
959.50054
958.29435
958.34964
952.09887
947.18518
943.27763
939.18473
931.42535
934.43252
927.36486
925.13147
926.98103
920.2508
919.54842
919.03131
914.16517
916.73446
917.49623
918.19965
917.81663
919.24394
919.48566
921.80103
923.12445
923.9355
924.66194
968.32939
964.66574
962.75127
960.84076
957.58303
956.23611
955.51326
952.71596
946.34241
943.16855
941.09695
929.50233
933.74938
925.30698
925.45573
928.32059
920.80015
918.68372
918.89987
917.73372
918.41461
918.88018
919.45436
919.83858
918.94309
919.38942
920.97329
922.55288
923.9465
925.06356
968.7594
966.09129
964.69676
960.27038
956.89885
954.32679
955.36134
952.01356
947.51794
949.72158
942.04796
929.0848
931.92942
928.44129
932.72208
929.10446
920.18692
916.11012
919.3927
917.16834
918.14625
918.87216
919.35971
919.78564
920.08297
919.86882
920.8816
922.39819
924.29164
925.35135
967.16314
965.70874
963.21275
957.84389
954.32482
953.64858
953.97495
951.61898
949.05523
949.72149
947.42855
926.37415
925.568
930.14593
931.12508
926.85653
919.21733
917.46721
916.82089
916.70885
917.98699
918.66339
918.99621
919.15168
919.40479
919.68074
921.22234
922.85982
924.79864
925.62286
961.82386
963.33835
961.53041
957.23163
952.42912
952.09833
951.85293
950.87601
948.62879
945.72612
943.60258
929.16734
924.69706
930.5528
930.1275
927.75605
917.86955
915.33544
915.3808
915.86039
916.85958
917.15017
917.08946
917.37118
917.15845
918.19092
921.67637
923.17687
924.61401
925.22492
969.89872
964.09689
967.97939
966.69293
960.79774
957.1024
955.17992
952.2425
949.93457
948.01398
944.02067
940.46309
939.37096
940.00373
938.55001
930.95685
927.90002
925.11537
923.45831
920.66315
920.78295
918.59498
920.08617
921.07932
921.13095
921.62107
923.9994
922.85073
924.70243
925.74224
967.03502
963.55866
964.25117
963.59334
957.69198
954.60446
952.91579
951.60843
951.02442
949.60359
945.63182
939.60535
938.79746
937.75214
935.61217
930.80898
928.64449
927.36386
924.39603
921.38119
920.40713
919.3457
919.67112
920.0148
920.12651
922.01903
923.56235
923.50279
924.46558
925.35134
964.60802
963.5562
962.21172
962.08918
956.66237
954.60463
952.89239
952.21683
951.4895
950.05412
946.50528
938.36371
938.5179
939.32423
935.92887
930.53593
927.97089
926.69784
925.67948
923.70109
920.75988
919.30843
919.52958
919.837
920.99472
921.96794
922.58221
923.16039
925.28498
925.56102
963.18076
962.66033
961.58706
960.76296
956.32163
953.8708
953.11096
952.32134
950.86691
949.72706
947.28126
937.54999
937.61497
938.45835
936.0552
933.58745
928.4994
918.73146
923.16534
922.14818
919.66496
919.07936
919.32634
918.97044
919.62225
920.2269
921.01545
923.89827
925.69962
925.77465
962.54647
962.22286
961.78327
960.53172
955.58182
951.61017
951.96381
951.77881
950.81257
948.95869
945.90054
936.01276
938.49904
936.70624
934.2913
932.1637
930.44812
917.91965
917.64384
919.58169
918.13511
917.44144
917.06986
917.51715
917.82352
919.3497
921.65675
923.32719
924.54682
924.9214
968.14439
970.2875
973.53556
967.12945
959.24285
952.86636
956.55741
955.04883
950.75241
948.82558
945.35903
944.10768
943.3755
935.44773
927.5368
925.36924
923.78908
922.85062
920.37688
918.60988
918.17444
917.33777
918.9512
919.03629
918.69497
919.96084
923.0004
923.67187
924.56484
925.25594
965.4406
965.72042
967.20647
962.29331
956.48104
952.69426
952.21716
952.5209
949.47138
948.12319
945.67548
942.81626
942.37038
940.31397
928.94308
926.81248
926.67269
924.26844
918.64598
920.13929
919.65995
919.01687
918.56283
918.15179
917.95949
920.46321
922.98906
924.16177
925.36163
925.87114
965.25961
965.91883
966.5849
961.75502
954.69722
952.8644
951.48705
951.73258
949.46592
948.74191
946.96703
943.66148
943.47125
940.76301
931.04778
927.53374
928.59882
924.49006
918.06801
920.26003
919.74679
918.61727
918.74744
917.83372
917.29152
920.14244
922.44262
923.98066
925.29066
926.63899
964.79982
964.38158
964.61885
961.03522
952.69667
952.01007
951.24895
951.13363
949.45657
949.54997
947.91081
942.18334
943.91232
940.85897
933.12307
930.83024
931.05915
925.20345
917.18171
918.72786
918.79627
918.39448
917.87154
917.01857
916.77499
919.78457
922.02683
923.77614
924.63874
925.78491
964.5096
964.35816
964.24249
959.27652
950.82071
951.03966
950.88683
950.31795
949.53037
949.40206
947.9796
946.38893
946.75073
942.10644
934.34336
932.37563
931.22458
925.42133
916.88731
917.542
917.39815
916.39132
916.00334
916.0546
916.31107
919.6665
921.95932
923.06641
924.18663
924.4818
)
;

boundaryField
{
    minX
    {
        type            zeroGradient;
    }
    maxX
    {
        type            zeroGradient;
    }
    minY
    {
        type            fixedValue;
        value           uniform 1073;
    }
    minZ
    {
        type            zeroGradient;
    }
    maxZ
    {
        type            zeroGradient;
    }
    bottomWater_to_rightSolid
    {
        type            compressible::turbulentTemperatureCoupledBaffleMixed;
        refValue        nonuniform List<scalar> 
130
(
750.25142
758.23367
766.6143
774.95055
782.90392
790.244
796.81675
802.53525
807.33444
811.20254
814.1248
816.07344
817.04881
744.48062
753.81004
763.36342
772.63625
781.29895
789.1541
796.08698
802.04771
807.01744
811.00449
813.99842
815.9874
816.97874
732.88532
745.29047
757.35041
768.50554
778.51322
787.29374
794.85945
801.24882
806.51439
810.70242
813.81465
815.86975
816.88831
715.55336
733.74498
749.8352
763.65624
775.40135
785.30113
793.58842
800.44914
806.02901
810.42079
813.65745
815.78571
816.84723
695.04429
722.76164
743.63489
760.00808
773.18121
783.92347
792.72572
799.91353
805.70712
810.23747
813.56168
815.74608
816.83375
695.06643
722.76025
743.61659
759.97637
773.13375
783.86523
792.66421
799.85682
805.66769
810.21238
813.54911
815.74255
816.83377
715.67997
733.81221
749.85349
763.64009
775.3339
785.20081
793.47395
800.33868
805.94084
810.35847
813.62412
815.77885
816.85298
733.1968
745.51511
757.48662
768.55811
778.48983
787.21653
794.75151
801.13411
806.41507
810.62689
813.77053
815.86121
816.90578
744.93195
754.15457
763.60033
772.76107
781.32469
789.10325
795.99481
801.94641
806.93958
810.95722
813.97955
815.99915
817.0103
750.79391
758.64038
766.89295
775.10706
782.95456
790.21474
796.74164
802.44521
807.27663
811.18309
814.13077
816.1054
817.09509
)
;
        refGradient     uniform 0;
        valueFraction   uniform 0.99248593;
        value           nonuniform List<scalar> 
130
(
751.49202
759.41862
767.7418
776.02097
783.91269
791.20129
797.72612
803.42021
808.17895
812.02075
814.93863
816.87271
817.84224
745.75821
755.02851
764.51813
773.72507
782.32632
790.13421
797.01946
802.93837
807.86499
811.83427
814.82064
816.79439
817.77379
734.24455
746.56729
758.54506
769.62696
779.56966
788.2822
795.79544
802.13681
807.36547
811.55178
814.64749
816.68452
817.68418
717.03748
735.10558
751.08127
764.80479
776.48698
786.31319
794.53745
801.34288
806.88963
811.27952
814.49442
816.59904
817.6611
696.64698
724.1923
744.92103
761.18431
774.26925
784.9346
793.67089
800.80438
806.56514
811.09541
814.39647
816.56529
817.65233
696.64677
724.1576
744.8738
761.12905
774.19547
784.84863
793.58275
800.72149
806.52123
811.06904
814.38582
816.56452
817.65219
717.12176
735.12548
751.05617
764.78325
776.38848
786.18129
794.39383
801.20711
806.79192
811.2111
814.46259
816.60133
817.67119
734.56546
746.79152
758.67666
769.67245
779.53173
788.1924
795.67288
802.00592
807.25495
811.46133
814.59263
816.6784
817.71972
746.23173
755.38306
764.7724
773.85342
782.34747
790.0648
796.90795
802.81713
807.78424
811.78904
814.80121
816.8148
817.82118
752.10606
759.82946
768.02494
776.17624
783.9572
791.15991
797.63817
803.30081
808.12112
812.01549
814.94934
816.91755
817.90202
)
;
        Tnbr            T;
        thicknessLayers List<scalar> 0();
        kappaLayers     List<scalar> 0();
        kappaMethod     fluidThermo;
        kappa           none;
        alphaAni        none;
        alpha           none;
        field           T;
    }
    bottomWater_to_leftSolid
    {
        type            compressible::turbulentTemperatureCoupledBaffleMixed;
        refValue        nonuniform List<scalar> 
130
(
926.84367
926.80784
926.72926
926.60408
926.43144
926.21118
925.94165
925.62003
925.23985
924.78472
924.36597
924.06932
923.9149
926.80511
926.76664
926.68427
926.55704
926.38378
926.16367
925.89683
925.5841
925.22824
924.83152
924.4452
924.12272
923.92089
926.72339
926.6842
926.59961
926.46822
926.29098
926.0689
925.80394
925.49991
925.13354
924.73761
924.35374
924.0256
923.81517
926.61572
926.57356
926.47992
926.33498
926.14891
925.92275
925.65634
925.34525
924.9726
924.55627
924.14862
923.81265
923.60449
926.48194
926.43547
926.33013
926.16914
925.98427
925.76349
925.49722
925.18343
924.8077
924.37018
923.92782
923.60127
923.40021
926.39168
926.34398
926.24473
926.09448
925.89711
925.64603
925.3674
925.0536
924.69132
924.28201
923.89258
923.55945
923.3513
926.39953
926.35619
926.26016
926.10963
925.89839
925.63498
925.35375
925.0618
924.74675
924.40441
924.0388
923.68167
923.49491
926.45212
926.41046
926.30578
926.13694
925.91858
925.67939
925.42521
925.15474
924.86428
924.5561
924.24198
923.93532
923.76798
926.52009
926.47271
926.36807
926.19976
925.97326
925.72895
925.49195
925.25032
924.998
924.73566
924.47241
924.23302
924.11811
926.57967
926.52915
926.41548
926.2226
925.97578
925.74422
925.51965
925.29545
925.07062
924.85001
924.64065
924.47147
924.37999
)
;
        refGradient     uniform 0;
        valueFraction   uniform 0.99248593;
        value           nonuniform List<scalar> 
130
(
927.13708
927.10081
927.02184
926.89536
926.72229
926.50367
926.23628
925.91637
925.53708
924.97802
924.48156
924.17497
924.0215
927.0986
927.05783
926.97195
926.84416
926.67243
926.4544
926.19008
925.87913
925.53348
925.11933
924.7069
924.33652
924.04887
927.00394
926.96648
926.88348
926.75325
926.57719
926.35618
926.09217
925.81171
925.4174
924.99724
924.58737
924.20233
923.90882
926.89301
926.85598
926.76244
926.60927
926.42027
926.19306
925.93121
925.62859
925.23235
924.76996
924.3073
923.8969
923.62649
926.74347
926.70047
926.58392
926.39012
926.21623
926.01501
925.75272
925.44084
925.04145
924.51928
923.95696
923.62522
923.36796
926.63554
926.58233
926.47714
926.32254
926.12445
925.84842
925.56952
925.24888
924.85639
924.36582
923.95557
923.57128
923.28368
926.65859
926.61535
926.51365
926.36027
926.13005
925.82219
925.52875
925.24057
924.92369
924.5788
924.17362
923.66415
923.46256
926.71788
926.68787
926.57039
926.37056
926.11781
925.8779
925.62377
925.34797
925.04282
924.71513
924.38737
923.97453
923.77495
926.79081
926.74134
926.63419
926.45777
926.19581
925.92342
925.69085
925.44965
925.19197
924.91767
924.63339
924.32141
924.22615
926.8647
926.81342
926.69972
926.471
926.16247
925.93429
925.71026
925.48346
925.25442
925.03451
924.81602
924.63625
924.54814
)
;
        Tnbr            T;
        thicknessLayers List<scalar> 0();
        kappaLayers     List<scalar> 0();
        kappaMethod     fluidThermo;
        kappa           none;
        alphaAni        none;
        alpha           none;
        field           T;
    }
    bottomWater_to_heater
    {
        type            compressible::turbulentTemperatureCoupledBaffleMixed;
        refValue        nonuniform List<scalar> 
92
(
731.37903
733.43135
737.45961
743.19164
722.06879
724.48049
729.2364
736.05863
702.45999
705.57727
711.88471
721.21602
345.28577
342.59408
342.60721
345.23514
421.60963
418.3182
418.49773
421.92603
486.96969
484.21271
484.89309
488.52255
542.63363
540.97768
542.86124
547.27513
670.56145
588.67672
674.47986
588.95659
682.97712
593.56287
696.73892
601.07521
345.28577
345.23514
421.60963
421.92603
486.96969
488.52255
542.63363
547.27513
588.67672
601.07521
345.23686
345.23686
342.56317
342.58268
345.21804
345.21804
421.53855
421.53855
418.29305
418.48653
421.92937
421.92937
486.8895
486.8895
484.19791
484.88771
488.50056
488.50056
542.53532
542.53532
540.95732
542.86371
547.26783
547.26783
588.63186
588.63186
588.9638
593.57973
601.0769
601.0769
670.72541
674.70136
683.2042
696.93121
702.8298
705.98625
712.30635
721.60089
722.58982
725.01969
729.78396
736.59682
732.00501
734.05108
738.06951
743.78769
)
;
        refGradient     uniform 0;
        valueFraction   nonuniform List<scalar> 
92
(
0.99248593
0.99248593
0.99248593
0.99248593
0.99248593
0.99248593
0.99248593
0.99248593
0.99248593
0.99248593
0.99248593
0.99248593
0.99248593
0.99248593
0.99248593
0.99248593
0.99248593
0.99248593
0.99248593
0.99248593
0.99248593
0.99248593
0.99248593
0.99248593
0.99248593
0.99248593
0.99248593
0.99248593
0.99248593
0.99248593
0.99248593
0.99248593
0.99248593
0.99248593
0.99248593
0.99248593
0.99248593
0.99248593
0.99248593
0.99248593
0.99248593
0.99248593
0.99248593
0.99248593
0.99248593
0.99248593
0.99248593
0.99248593
0.99248593
0.99248593
0.99248593
0.99248593
0.99248593
0.99248593
0.99248593
0.99248593
0.99248593
0.99248593
0.99248593
0.99248593
0.99248593
0.99248593
0.99248593
0.99248593
0.99248593
0.99248593
0.99248593
0.99248593
0.99248593
0.99248593
0.99248593
0.99248593
0.99248593
0.99248593
0.99248593
0.99248593
0.99248593
0.99248593
0.99248593
0.99248593
0.99248593
0.99248593
0.99248593
0.99248593
0.99248593
0.99248593
0.99248593
0.99248593
0.99248593
0.99248593
0.99248593
0.99248593
)
;
        value           nonuniform List<scalar> 
92
(
732.89884
734.901
738.89841
744.56943
723.64778
726.00897
730.71257
737.43225
704.14604
707.19768
713.42967
722.65574
349.63039
346.94369
346.94806
349.5421
425.33364
422.05791
422.22473
425.62037
490.19749
487.42335
488.10142
491.69736
545.55759
543.79606
545.61765
549.97264
672.47164
591.2022
676.2754
591.39476
684.67756
595.93518
698.31919
603.37431
349.64639
349.41662
425.38908
425.48288
490.2633
491.62687
545.48938
549.97045
591.1596
603.38399
349.58182
349.48823
346.84039
346.84543
349.41524
349.43685
425.26378
425.25723
422.0371
422.20165
425.52539
425.58617
490.09818
490.149
487.46178
488.10973
491.57877
491.65086
545.31253
545.39169
543.78883
545.64593
549.93724
549.99627
591.07934
591.10687
591.44684
595.97894
603.36348
603.37858
672.58357
676.54017
684.92997
698.51263
704.54086
707.67039
713.92518
723.0757
724.19865
726.59218
731.30461
738.05341
733.58361
735.55612
739.52958
745.19613
)
;
        Tnbr            T;
        thicknessLayers List<scalar> 0();
        kappaLayers     List<scalar> 0();
        kappaMethod     fluidThermo;
        kappa           none;
        alphaAni        none;
        alpha           none;
        field           T;
    }
}


// ************************************************************************* //
