/*--------------------------------*- C++ -*----------------------------------*\
| =========                 |                                                 |
| \\      /  F ield         | OpenFOAM: The Open Source CFD Toolbox           |
|  \\    /   O peration     | Version:  v2012                                 |
|   \\  /    A nd           | Website:  www.openfoam.com                      |
|    \\/     M anipulation  |                                                 |
\*---------------------------------------------------------------------------*/
FoamFile
{
    version     2.0;
    format      ascii;
    class       volScalarField;
    location    "370/bottomWater";
    object      p;
}
// * * * * * * * * * * * * * * * * * * * * * * * * * * * * * * * * * * * * * //

dimensions      [1 -1 -2 0 0 0 0];


internalField   nonuniform List<scalar> 
1460
(
353.47242
353.46663
353.46577
353.47999
353.48492
353.48659
353.48593
353.48628
353.48345
353.48711
353.48421
353.48485
353.48891
353.46589
353.47506
353.45115
353.46421
353.4624
353.45939
353.45779
353.46785
353.4684
353.46804
353.46674
353.46305
353.47449
353.46667
353.4736
353.46199
353.46724
274.40713
274.39698
274.42925
274.45249
274.46398
274.4671
274.44591
274.42375
274.40876
274.38409
274.39339
274.44727
274.48381
274.47185
274.44704
274.41728
274.40994
274.40716
274.40338
274.43232
274.45946
274.4782
274.45694
274.42922
274.4294
274.46678
274.47709
274.4625
274.43158
274.41274
196.32175
196.26545
196.26092
196.24857
196.27048
196.26953
196.2786
196.25626
196.29446
196.29468
196.28663
196.24314
196.25318
196.25287
196.26908
196.30625
196.30391
196.32418
196.2676
196.253
196.25579
196.2727
196.26489
196.29547
196.28114
196.27284
196.27761
196.25229
196.25398
196.2795
117.67156
117.66928
117.61915
117.66487
117.66497
117.66912
117.64536
117.63017
117.62067
117.67906
117.66914
117.62412
117.63625
117.6333
117.6731
117.66668
117.67618
117.67921
117.67018
117.63597
117.68144
117.67268
117.64764
117.63507
117.63133
117.66254
117.65174
117.64369
117.60111
117.68368
39.252895
39.248915
39.248386
39.231381
39.228276
39.238845
39.229279
39.252548
39.273804
39.279167
39.266526
39.259116
39.249742
39.228728
39.22314
39.239527
39.245806
39.256859
39.244791
39.248121
39.229864
39.246322
39.236427
39.268731
39.242168
39.230845
39.226951
39.236256
39.258185
39.26702
353.46698
353.46636
353.46486
353.47209
353.47658
353.49448
353.48148
353.48817
353.48003
353.48303
353.47644
353.46593
353.46224
353.46099
353.46036
353.45862
353.46296
353.45967
353.45677
353.45878
353.45773
353.46656
353.46393
353.47076
353.46633
353.46947
353.46951
353.47828
353.46008
353.46789
274.39518
274.40774
274.40542
274.38956
274.40629
274.42295
274.3864
274.38119
274.37802
274.39844
274.40291
274.39882
274.41278
274.40959
274.4098
274.39839
274.39738
274.39495
274.42472
274.43579
274.42455
274.43402
274.39412
274.3973
274.39914
274.41908
274.45517
274.46972
274.42529
274.41324
196.31372
196.29362
196.30088
196.29371
196.29563
196.26948
196.29702
196.32483
196.29833
196.301
196.30728
196.29509
196.31158
196.28395
196.30684
196.29701
196.33246
196.28934
196.29282
196.2748
196.3
196.25155
196.29623
196.31589
196.28837
196.27493
196.27552
196.24015
196.24963
196.2798
117.65509
117.61633
117.64404
117.64588
117.62454
117.61824
117.64199
117.65334
117.64725
117.60224
117.60595
117.63288
117.64244
117.62638
117.65051
117.67929
117.67567
117.66703
117.61212
117.63283
117.65644
117.63465
117.64885
117.67193
117.6512
117.63337
117.66088
117.6603
117.61068
117.68577
39.24243
39.264073
39.2591
39.227893
39.246416
39.256217
39.248842
39.236049
39.245807
39.280229
39.267481
39.235735
39.236933
39.261263
39.225543
39.244351
39.254989
39.255163
39.260423
39.275633
39.238654
39.27037
39.259695
39.273954
39.241945
39.235336
39.21931
39.231143
39.246438
39.257061
353.45604
353.47153
353.47525
353.47565
353.47789
353.4854
353.48109
353.48094
353.48498
353.48834
353.48197
353.46062
353.46277
353.46627
353.46599
353.46335
353.46611
353.46354
353.47438
353.46572
353.46505
353.46659
353.46608
353.46671
353.46426
353.46724
353.46368
353.46833
353.45561
353.46245
274.4264
274.45857
274.46253
274.40114
274.38218
274.37213
274.37864
274.39378
274.41582
274.45063
274.45337
274.42712
274.42329
274.39754
274.39802
274.42191
274.40446
274.41782
274.46526
274.4547
274.41477
274.39569
274.3985
274.39772
274.40418
274.42898
274.45951
274.4711
274.42744
274.41497
196.28063
196.22899
196.24873
196.26576
196.27516
196.33375
196.2951
196.2807
196.23862
196.26877
196.26314
196.29913
196.28419
196.28891
196.29667
196.28336
196.27896
196.25918
196.2391
196.25965
196.26867
196.30597
196.33659
196.32453
196.27854
196.26083
196.26917
196.24243
196.24957
196.28148
117.65627
117.63461
117.64359
117.62528
117.65946
117.68105
117.67268
117.64243
117.64639
117.65834
117.66537
117.66142
117.66132
117.6807
117.69009
117.62996
117.65465
117.63054
117.65348
117.64489
117.6323
117.66634
117.68572
117.67833
117.64568
117.63272
117.65297
117.66848
117.61552
117.68539
39.222323
39.236882
39.247136
39.249544
39.255326
39.276438
39.25957
39.253031
39.246836
39.219706
39.230504
39.223351
39.232263
39.240147
39.22903
39.248693
39.245515
39.26148
39.245656
39.248223
39.261884
39.273373
39.284746
39.275056
39.261632
39.254447
39.223487
39.244806
39.25204
39.258616
353.46002
353.46897
353.47914
353.49348
353.48971
353.49285
353.48639
353.48971
353.49135
353.48501
353.48297
353.47382
353.46089
353.46469
353.46507
353.46918
353.45675
353.47362
353.46495
353.45948
353.45849
353.45951
353.46396
353.46795
353.46391
353.46841
353.45783
353.45632
353.44947
353.45666
274.43029
274.44701
274.49031
274.46471
274.39668
274.38495
274.38841
274.42806
274.47151
274.4798
274.48417
274.45467
274.43113
274.40717
274.44795
274.45835
274.42047
274.47556
274.4859
274.4714
274.43666
274.41351
274.40247
274.40298
274.42859
274.4706
274.47397
274.45804
274.42849
274.41794
196.3172
196.26514
196.23943
196.24061
196.23519
196.29493
196.28747
196.24935
196.25512
196.27805
196.28031
196.25025
196.26484
196.26837
196.28613
196.26323
196.29825
196.24488
196.27025
196.25182
196.25552
196.27993
196.30182
196.27766
196.24868
196.23396
196.26543
196.25519
196.25721
196.28782
117.67688
117.64322
117.62051
117.62608
117.5928
117.65953
117.66967
117.60917
117.64192
117.66234
117.65837
117.64259
117.60906
117.67111
117.61753
117.66535
117.65908
117.65288
117.66144
117.64993
117.63028
117.63984
117.66894
117.65478
117.63651
117.63913
117.65775
117.66718
117.61245
117.67354
39.230854
39.205341
39.236228
39.251175
39.255116
39.268341
39.261724
39.249323
39.233213
39.229132
39.237498
39.23724
39.260543
39.251766
39.261668
39.22753
39.237719
39.225173
39.21978
39.228149
39.250843
39.250796
39.266057
39.256115
39.253889
39.243213
39.22579
39.240386
39.252405
39.255714
353.4525
353.45194
353.44953
353.4672
353.48039
353.48778
353.483
353.48611
353.4903
353.48389
353.48314
353.47529
353.48127
353.45738
353.45048
353.44155
353.46734
353.46357
353.46429
353.46744
353.46615
353.45104
353.45171
353.44136
353.44236
353.45102
274.42978
274.42522
274.42339
274.44838
274.43684
274.38425
274.37785
274.4155
274.45186
274.46652
274.44979
274.41252
274.3988
274.48892
274.44386
274.45358
274.46682
274.44351
274.41212
274.4761
274.50355
274.47027
274.46482
274.43426
274.42634
274.42622
196.33282
196.32954
196.29862
196.27105
196.23753
196.30444
196.28332
196.26648
196.25909
196.26634
196.24919
196.24794
196.27883
196.28154
196.30542
196.31976
196.23461
196.29551
196.25983
196.24066
196.22391
196.25572
196.26154
196.27886
196.27663
196.30315
117.65389
117.66255
117.64623
117.63287
117.616
117.63836
117.675
117.57466
117.6537
117.64915
117.64038
117.60881
117.6607
117.68896
117.67842
117.65124
117.63597
117.62951
117.67405
117.64812
117.64983
117.66126
117.68301
117.66291
117.63959
117.67333
39.229382
39.221826
39.221073
39.224649
39.238985
39.256986
39.277398
39.268434
39.241467
39.233731
39.241145
39.250199
39.253276
39.227251
39.22192
39.221317
39.253282
39.267583
39.251729
39.252765
39.242276
39.213236
39.226341
39.232699
39.242771
39.253421
353.4577
353.45792
353.44948
353.47077
353.47675
353.48362
353.48051
353.4808
353.48449
353.4625
353.46129
353.46406
353.46983
353.44856
353.44395
353.43395
353.44449
353.44504
353.44596
353.44699
353.44296
353.4194
353.42908
353.43286
353.43992
353.44314
274.41321
274.40955
274.42707
274.44443
274.44012
274.4032
274.37484
274.41494
274.44028
274.42029
274.41716
274.38462
274.40142
274.48191
274.44887
274.45398
274.45084
274.42876
274.41398
274.46953
274.47217
274.43655
274.44271
274.43025
274.42518
274.4307
196.31807
196.28982
196.27717
196.26949
196.25606
196.29111
196.26844
196.28322
196.25612
196.28623
196.2769
196.27887
196.33326
196.27377
196.27741
196.29712
196.25057
196.28623
196.27225
196.22548
196.22157
196.26513
196.29384
196.30021
196.30358
196.30604
117.64453
117.65109
117.64366
117.65032
117.64411
117.58616
117.67496
117.58145
117.65998
117.63894
117.61531
117.66826
117.67618
117.66783
117.64744
117.65553
117.65007
117.64718
117.65964
117.64773
117.6496
117.6499
117.67255
117.66412
117.65132
117.64299
39.250964
39.239936
39.244804
39.227433
39.237252
39.263126
39.273227
39.27825
39.239284
39.260318
39.26209
39.271174
39.27513
39.223983
39.223639
39.234581
39.219527
39.237124
39.238247
39.243266
39.244899
39.227507
39.22648
39.234481
39.232914
39.265054
353.4551
353.45503
353.44604
353.45697
353.4692
353.47566
353.4766
353.47945
353.47964
353.47577
353.47105
353.47975
353.48382
353.48409
353.46294
353.44896
353.43593
353.43928
353.43874
353.43617
353.43373
353.43417
353.43342
353.42779
353.4319
353.43176
353.43332
353.43528
353.43266
353.45358
274.41104
274.40463
274.4222
274.44881
274.46279
274.43802
274.38668
274.4145
274.44207
274.44425
274.41759
274.39724
274.38092
274.46578
274.49191
274.4661
274.44964
274.43843
274.44121
274.44948
274.43282
274.41513
274.4153
274.43535
274.43556
274.42729
274.4273
274.43456
274.42705
274.47637
196.33321
196.30097
196.27162
196.24458
196.26598
196.28327
196.27228
196.29695
196.26311
196.26727
196.28299
196.30943
196.2731
196.23752
196.25014
196.26635
196.31072
196.29594
196.31216
196.31188
196.29076
196.31052
196.31372
196.29016
196.29125
196.28675
196.29184
196.29979
196.27706
196.24933
117.66673
117.66063
117.62068
117.61541
117.66069
117.62745
117.65418
117.58542
117.64076
117.65647
117.62824
117.67646
117.66395
117.62025
117.63206
117.64939
117.65291
117.63196
117.6341
117.60473
117.61607
117.64675
117.66072
117.63357
117.63688
117.65345
117.67138
117.66602
117.63854
117.63846
39.258744
39.251822
39.248943
39.241776
39.224708
39.237646
39.243278
39.268768
39.240424
39.237714
39.260688
39.271242
39.260145
39.253431
39.241013
39.222014
39.235136
39.227068
39.256371
39.280504
39.235842
39.2553
39.253301
39.278427
39.272581
39.226126
39.233719
39.224772
39.227869
39.252448
353.46007
353.45816
353.4487
353.47014
353.4764
353.4784
353.47829
353.47785
353.47782
353.4662
353.4622
353.46452
353.46854
353.47079
353.45053
353.45201
353.45729
353.45464
353.44629
353.44524
353.44324
353.44239
353.44399
353.44077
353.43582
353.42981
353.4342
353.44152
353.43837
353.46956
274.41349
274.40282
274.41974
274.46893
274.455
274.40606
274.3882
274.40813
274.45701
274.43811
274.42086
274.40845
274.43928
274.49396
274.45761
274.45977
274.47867
274.46859
274.42206
274.41485
274.40694
274.41813
274.41996
274.42655
274.43758
274.43718
274.43984
274.4354
274.42581
274.49336
196.33439
196.29049
196.26158
196.23859
196.26166
196.28232
196.29405
196.30316
196.26057
196.26648
196.3198
196.27882
196.25711
196.24091
196.28326
196.27772
196.25313
196.24331
196.28124
196.29798
196.29405
196.33228
196.33841
196.32086
196.31733
196.32674
196.32901
196.30694
196.2832
196.26009
117.67861
117.66616
117.62723
117.6394
117.65407
117.64466
117.66548
117.61535
117.62436
117.63659
117.6668
117.67299
117.6503
117.64899
117.66744
117.66148
117.63768
117.64614
117.65738
117.67128
117.68551
117.68167
117.67568
117.65551
117.63016
117.66221
117.6794
117.67179
117.63757
117.64513
39.271322
39.263062
39.262749
39.258984
39.237256
39.258258
39.268281
39.267094
39.244229
39.226079
39.232085
39.236105
39.241597
39.238908
39.228819
39.226794
39.235799
39.255469
39.245481
39.258421
39.255951
39.266794
39.265146
39.260342
39.252976
39.23698
39.229095
39.221161
39.235392
39.262357
353.45879
353.45252
353.45101
353.45793
353.47251
353.47842
353.47851
353.47024
353.47757
353.44396
353.46448
353.45144
353.46626
353.45445
353.43203
353.43945
353.4344
353.44082
353.4385
353.43043
353.43745
353.43125
353.44355
353.437
353.4386
353.44448
353.44598
353.44624
353.45384
353.45769
274.4104
274.3956
274.42543
274.43894
274.4661
274.44969
274.39084
274.39082
274.45386
274.41704
274.41282
274.4063
274.45889
274.46293
274.43104
274.43834
274.4424
274.45338
274.4261
274.43328
274.4399
274.4277
274.42218
274.4278
274.4384
274.46807
274.45602
274.43052
274.40634
274.44366
196.31377
196.26759
196.26188
196.25519
196.26013
196.23763
196.27581
196.30757
196.25501
196.28754
196.29383
196.28451
196.24069
196.26845
196.29099
196.29289
196.29128
196.29516
196.29264
196.29441
196.26874
196.29767
196.30821
196.30193
196.29323
196.26037
196.24964
196.2661
196.27973
196.28307
117.66724
117.65252
117.62024
117.62338
117.65573
117.63678
117.649
117.65327
117.61574
117.63757
117.66775
117.65669
117.63958
117.65739
117.65826
117.64131
117.62221
117.61
117.65291
117.64685
117.6429
117.64831
117.6661
117.66269
117.66746
117.66284
117.6474
117.62841
117.66629
117.6233
39.255768
39.248314
39.246397
39.2414
39.213838
39.244509
39.240277
39.25553
39.261719
39.234156
39.230794
39.240015
39.244738
39.221486
39.229634
39.230236
39.240913
39.262371
39.237727
39.255845
39.266642
39.261286
39.243685
39.242127
39.225659
39.219726
39.215534
39.232526
39.239673
39.276548
353.45553
353.44898
353.45912
353.46657
353.47438
353.47505
353.47027
353.46008
353.45665
353.45482
353.4543
353.447
353.43982
353.44411
353.44269
353.44988
353.4457
353.44352
353.4502
353.45614
353.45352
353.42956
353.44343
353.44039
353.43196
353.44621
353.45943
353.46439
353.46114
353.46484
274.4208
274.42978
274.46825
274.48809
274.49505
274.47685
274.44413
274.41574
274.44087
274.42794
274.39823
274.40755
274.42682
274.43402
274.42335
274.42217
274.42697
274.44013
274.46867
274.51714
274.49841
274.43293
274.44222
274.43855
274.43835
274.4837
274.53476
274.48402
274.42868
274.42348
196.27597
196.24504
196.24606
196.26075
196.25861
196.27528
196.25182
196.2862
196.28673
196.28801
196.30765
196.31625
196.29724
196.29595
196.30352
196.31871
196.30235
196.2816
196.25502
196.23534
196.23808
196.27774
196.29944
196.31133
196.27921
196.24362
196.25228
196.24301
196.25927
196.28175
117.66427
117.64305
117.65395
117.67168
117.70075
117.67058
117.64232
117.63562
117.62037
117.6172
117.66663
117.68079
117.63528
117.63037
117.67469
117.69829
117.68081
117.67045
117.66775
117.66245
117.66629
117.66836
117.68334
117.68764
117.65812
117.64589
117.64797
117.64844
117.62302
117.68942
39.24165
39.242835
39.222475
39.216097
39.227937
39.215061
39.229021
39.236856
39.271631
39.267975
39.25359
39.262848
39.29326
39.258988
39.253299
39.248254
39.228199
39.231873
39.218748
39.24787
39.249086
39.245722
39.240706
39.238571
39.2303
39.234335
39.255178
39.264063
39.272516
39.284299
)
;

boundaryField
{
    minX
    {
        type            calculated;
        value           nonuniform List<scalar> 
50
(
353.47242
274.40713
196.32175
117.67156
39.252895
353.46698
274.39518
196.31372
117.65509
39.24243
353.45604
274.4264
196.28063
117.65627
39.222323
353.46002
274.43029
196.3172
117.67688
39.230854
353.4525
274.42978
196.33282
117.65389
39.229382
353.4577
274.41321
196.31807
117.64453
39.250964
353.4551
274.41104
196.33321
117.66673
39.258744
353.46007
274.41349
196.33439
117.67861
39.271322
353.45879
274.4104
196.31377
117.66724
39.255768
353.45553
274.4208
196.27597
117.66427
39.24165
)
;
    }
    maxX
    {
        type            calculated;
        value           nonuniform List<scalar> 
50
(
353.46724
274.41274
196.2795
117.68368
39.26702
353.46789
274.41324
196.2798
117.68577
39.257061
353.46245
274.41497
196.28148
117.68539
39.258616
353.45666
274.41794
196.28782
117.67354
39.255714
353.45102
274.42622
196.30315
117.67333
39.253421
353.44314
274.4307
196.30604
117.64299
39.265054
353.45358
274.47637
196.24933
117.63846
39.252448
353.46956
274.49336
196.26009
117.64513
39.262357
353.45769
274.44366
196.28307
117.6233
39.276548
353.46484
274.42348
196.28175
117.68942
39.284299
)
;
    }
    minY
    {
        type            calculated;
        value           nonuniform List<scalar> 
292
(
392.4
392.4
392.4
392.4
392.4
392.4
392.4
392.4
392.4
392.4
392.4
392.4
392.4
392.4
392.4
392.4
392.4
392.4
392.4
392.4
392.4
392.4
392.4
392.4
392.4
392.4
392.4
392.4
392.4
392.4
392.4
392.4
392.4
392.4
392.4
392.4
392.4
392.4
392.4
392.4
392.4
392.4
392.4
392.4
392.4
392.4
392.4
392.4
392.4
392.4
392.4
392.4
392.4
392.4
392.4
392.4
392.4
392.4
392.4
392.4
392.4
392.4
392.4
392.4
392.4
392.4
392.4
392.4
392.4
392.4
392.4
392.4
392.4
392.4
392.4
392.4
392.4
392.4
392.4
392.4
392.4
392.4
392.4
392.4
392.4
392.4
392.4
392.4
392.4
392.4
392.4
392.4
392.4
392.4
392.4
392.4
392.4
392.4
392.4
392.4
392.4
392.4
392.4
392.4
392.4
392.4
392.4
392.4
392.4
392.4
392.4
392.4
392.4
392.4
392.4
392.4
392.4
392.4
392.4
392.4
392.4
392.4
392.4
392.4
392.4
392.4
392.4
392.4
392.4
392.4
392.4
392.4
392.4
392.4
392.4
392.4
392.4
392.4
392.4
392.4
392.4
392.4
392.4
392.4
392.4
392.4
392.4
392.4
392.4
392.4
392.4
392.4
392.4
392.4
392.4
392.4
392.4
392.4
392.4
392.4
392.4
392.4
392.4
392.4
392.4
392.4
392.4
392.4
392.4
392.4
392.4
392.4
392.4
392.4
392.4
392.4
392.4
392.4
392.4
392.4
392.4
392.4
392.4
392.4
392.4
392.4
392.4
392.4
392.4
392.4
392.4
392.4
392.4
392.4
392.4
392.4
392.4
392.4
392.4
392.4
392.4
392.4
392.4
392.4
392.4
392.4
392.4
392.4
392.4
392.4
392.4
392.4
392.4
392.4
392.4
392.4
392.4
392.4
392.4
392.4
392.4
392.4
392.4
392.4
392.4
392.4
392.4
392.4
392.4
392.4
392.4
392.4
392.4
392.4
392.4
392.4
392.4
392.4
392.4
392.4
392.4
392.4
392.4
392.4
392.4
392.4
392.4
392.4
392.4
392.4
392.4
392.4
392.4
392.4
392.4
392.4
392.4
392.4
392.4
392.4
392.4
392.4
392.4
392.4
392.4
392.4
392.4
392.4
392.4
392.4
392.4
392.4
392.4
392.4
392.4
392.4
392.4
392.4
392.4
392.4
392.4
392.4
392.4
392.4
392.4
392.4
392.4
392.4
392.4
392.4
392.4
392.4
)
;
    }
    minZ
    {
        type            calculated;
        value           nonuniform List<scalar> 
150
(
353.47242
274.40713
196.32175
117.67156
39.252895
353.46663
274.39698
196.26545
117.66928
39.248915
353.46577
274.42925
196.26092
117.61915
39.248386
353.47999
274.45249
196.24857
117.66487
39.231381
353.48492
274.46398
196.27048
117.66497
39.228276
353.48659
274.4671
196.26953
117.66912
39.238845
353.48593
274.44591
196.2786
117.64536
39.229279
353.48628
274.42375
196.25626
117.63017
39.252548
353.48345
274.40876
196.29446
117.62067
39.273804
353.48711
274.38409
196.29468
117.67906
39.279167
353.48421
274.39339
196.28663
117.66914
39.266526
353.48485
274.44727
196.24314
117.62412
39.259116
353.48891
274.48381
196.25318
117.63625
39.249742
353.46589
274.47185
196.25287
117.6333
39.228728
353.47506
274.44704
196.26908
117.6731
39.22314
353.45115
274.41728
196.30625
117.66668
39.239527
353.46421
274.40994
196.30391
117.67618
39.245806
353.4624
274.40716
196.32418
117.67921
39.256859
353.45939
274.40338
196.2676
117.67018
39.244791
353.45779
274.43232
196.253
117.63597
39.248121
353.46785
274.45946
196.25579
117.68144
39.229864
353.4684
274.4782
196.2727
117.67268
39.246322
353.46804
274.45694
196.26489
117.64764
39.236427
353.46674
274.42922
196.29547
117.63507
39.268731
353.46305
274.4294
196.28114
117.63133
39.242168
353.47449
274.46678
196.27284
117.66254
39.230845
353.46667
274.47709
196.27761
117.65174
39.226951
353.4736
274.4625
196.25229
117.64369
39.236256
353.46199
274.43158
196.25398
117.60111
39.258185
353.46724
274.41274
196.2795
117.68368
39.26702
)
;
    }
    maxZ
    {
        type            calculated;
        value           nonuniform List<scalar> 
150
(
353.45553
274.4208
196.27597
117.66427
39.24165
353.44898
274.42978
196.24504
117.64305
39.242835
353.45912
274.46825
196.24606
117.65395
39.222475
353.46657
274.48809
196.26075
117.67168
39.216097
353.47438
274.49505
196.25861
117.70075
39.227937
353.47505
274.47685
196.27528
117.67058
39.215061
353.47027
274.44413
196.25182
117.64232
39.229021
353.46008
274.41574
196.2862
117.63562
39.236856
353.45665
274.44087
196.28673
117.62037
39.271631
353.45482
274.42794
196.28801
117.6172
39.267975
353.4543
274.39823
196.30765
117.66663
39.25359
353.447
274.40755
196.31625
117.68079
39.262848
353.43982
274.42682
196.29724
117.63528
39.29326
353.44411
274.43402
196.29595
117.63037
39.258988
353.44269
274.42335
196.30352
117.67469
39.253299
353.44988
274.42217
196.31871
117.69829
39.248254
353.4457
274.42697
196.30235
117.68081
39.228199
353.44352
274.44013
196.2816
117.67045
39.231873
353.4502
274.46867
196.25502
117.66775
39.218748
353.45614
274.51714
196.23534
117.66245
39.24787
353.45352
274.49841
196.23808
117.66629
39.249086
353.42956
274.43293
196.27774
117.66836
39.245722
353.44343
274.44222
196.29944
117.68334
39.240706
353.44039
274.43855
196.31133
117.68764
39.238571
353.43196
274.43835
196.27921
117.65812
39.2303
353.44621
274.4837
196.24362
117.64589
39.234335
353.45943
274.53476
196.25228
117.64797
39.255178
353.46439
274.48402
196.24301
117.64844
39.264063
353.46114
274.42868
196.25927
117.62302
39.272516
353.46484
274.42348
196.28175
117.68942
39.284299
)
;
    }
    bottomWater_to_rightSolid
    {
        type            calculated;
        value           nonuniform List<scalar> 
130
(
0.01685895
0.0047905794
0.0081206649
-0.010136393
0.0063222661
-0.0035729236
0.028731364
0.002168096
-0.0091553634
-0.013049401
-0.0037440575
0.018185151
0.027020018
0.015163303
0.020422864
0.035632992
-0.001345592
0.030370215
0.019694961
0.033953874
0.0019449895
-0.0046636415
-0.020689698
-0.0088566382
0.0064381763
0.017061387
0.021479694
0.0056556764
0.008223225
0.021883775
0.033372875
0.044745612
0.035055712
0.021631548
0.014447156
-0.016513021
0.0048064269
0.01203968
0.018616088
-0.014826563
-0.020220473
-0.01185052
0.010842514
0.010795755
0.02605724
0.016115191
0.013888907
0.00321276
-0.014210307
0.00038638902
0.012404617
0.015714196
-0.012749174
-0.018079503
-0.018683491
0.013281846
0.027583029
0.011728835
0.012764677
0.0022758473
-0.026764246
-0.013658546
-0.0073006538
0.0027707293
0.013420964
-0.016017088
-0.016361224
-0.0054191427
-0.020472906
-0.0028758085
-0.0017527619
0.0032655395
0.004898886
-0.0124934
-0.013520404
-0.0055193909
-0.0070860683
0.02505401
-0.012932471
0.016371265
0.040504235
-0.0041576404
0.015300254
0.013300682
0.038427208
0.032580876
-0.013873564
-0.0062805483
-0.015227778
-0.012131328
0.012448295
0.015469279
0.005480981
0.01842133
0.015950668
0.026794228
0.025146363
0.020341506
0.012976388
-0.003019989
-0.010904621
-0.018838971
-0.0046082404
0.022357156
0.022370806
-0.0022727633
0.015844533
0.026641755
0.021285594
0.0036850575
0.0021269659
-0.014341224
-0.020273792
-0.024466483
-0.0074735252
-0.0003273315
0.036548467
-0.0081272167
-0.021252392
0.0078695818
0.0090856087
0.0057216782
0.00070607287
-0.0014287905
-0.0096996834
-0.0056650679
0.015177855
0.024063223
0.032516405
0.044298852
)
;
    }
    bottomWater_to_leftSolid
    {
        type            calculated;
        value           nonuniform List<scalar> 
130
(
0.012895281
0.008915333
0.0083857549
-0.0086189253
-0.011723878
-0.0011553361
-0.010720639
0.012547668
0.033804045
0.039166808
0.026525814
0.0191163
0.0097417201
0.0024297979
0.024073311
0.019099978
-0.012107487
0.0064162988
0.016216734
0.0088415546
-0.0039512735
0.005806917
0.04022863
0.027481094
-0.0042650203
-0.0030673802
-0.017677288
-0.0031177829
0.0071356366
0.0095440157
0.015325661
0.036437951
0.019570223
0.013031122
0.0068356835
-0.020294466
-0.0094961783
-0.016648772
-0.0077370036
-0.0091462703
-0.034658847
-0.0037722048
0.011174873
0.015115895
0.028340952
0.021723538
0.0093228901
-0.0067868698
-0.010868261
-0.0025022407
-0.0027603373
0.020543305
-0.010618188
-0.018174285
-0.018927097
-0.015351417
-0.0010146637
0.016986152
0.037397592
0.028434198
0.0014669796
-0.0062687127
0.0011445906
0.010199477
0.013276337
0.010963927
-6.3972611e-05
0.0048044559
-0.012566597
-0.0027478392
0.02312584
0.033227318
0.038249901
-0.00071639286
0.020318173
0.022089984
0.031174263
0.035129652
0.018743691
0.011821532
0.0089427805
0.0017761747
-0.015292424
-0.0023540013
0.0032779046
0.028767778
0.00042429259
-0.0022856115
0.020688306
0.031242463
0.020144757
0.031322088
0.023062043
0.022748651
0.018983583
-0.0027438092
0.018257897
0.028280994
0.027093541
0.004229092
-0.013920545
-0.0079154284
-0.0038945624
0.0015968182
0.015768445
0.0083136197
0.0063974989
0.0013997405
-0.026162355
0.0045093975
0.00027687515
0.015530016
0.021719445
-0.0058439256
-0.0092063124
1.4553448e-05
0.0047384834
0.0016495864
0.0028346086
-0.01752531
-0.023902662
-0.012062569
-0.024938745
-0.010979379
-0.0031441442
0.031631094
0.02797473
0.013590237
0.022847516
0.053260244
)
;
    }
    bottomWater_to_heater
    {
        type            calculated;
        value           nonuniform List<scalar> 
92
(
-0.011272059
-0.016860488
-0.00047276072
0.0058064902
0.021263269
-0.01445716
0.0043512448
0.014989187
0.00014687664
-0.010970438
0.0086928308
0.0055151057
353.46469
353.46507
353.46918
353.45675
274.40717
274.44795
274.45835
274.42047
196.26837
196.28613
196.26323
196.29825
117.67111
117.61753
117.66535
117.65908
0.01176556
39.251766
0.021667965
39.261668
-0.01246966
39.22753
-0.0022805751
39.237719
353.48127
353.45738
274.3988
274.48892
196.27883
196.28154
117.6607
117.68896
39.253276
39.227251
353.46983
353.48409
353.46294
353.44896
353.44856
353.43593
274.40142
274.46578
274.49191
274.4661
274.48191
274.44964
196.33326
196.23752
196.25014
196.26635
196.27377
196.31072
117.67618
117.62025
117.63206
117.64939
117.66783
117.65291
39.27513
39.253431
39.241013
39.222014
39.223983
39.235136
0.013431472
0.0010132483
-0.017985919
-0.0048644606
-0.0010918971
-0.011181029
-0.013205652
-0.0042014633
-0.018513926
-0.010365852
-0.0097639777
0.00091251155
0.018987886
0.013298923
0.0082541084
-0.011801002
)
;
    }
}


// ************************************************************************* //
