/*--------------------------------*- C++ -*----------------------------------*\
| =========                 |                                                 |
| \\      /  F ield         | OpenFOAM: The Open Source CFD Toolbox           |
|  \\    /   O peration     | Version:  v2012                                 |
|   \\  /    A nd           | Website:  www.openfoam.com                      |
|    \\/     M anipulation  |                                                 |
\*---------------------------------------------------------------------------*/
FoamFile
{
    version     2.0;
    format      ascii;
    class       surfaceScalarField;
    location    "370/bottomWater";
    object      phi;
}
// * * * * * * * * * * * * * * * * * * * * * * * * * * * * * * * * * * * * * //

dimensions      [1 0 -1 0 0 0 0];
oriented        oriented;


internalField   nonuniform List<scalar> 
3858
(
-0.00019455791
0.0001556937
3.6328796e-05
-0.00036379185
0.00018897702
-2.0692255e-05
-0.00043580123
6.6921267e-05
4.4152622e-06
-0.00030520778
-0.00018996267
5.5664175e-05
-0.00014465361
-0.00025023094
8.4707007e-05
2.0459517e-05
-0.00022421887
5.3461304e-05
0.0001350804
-0.00017867283
5.8506813e-05
0.00019465204
-0.00010168659
3.6560668e-05
9.2065174e-05
8.6840188e-05
1.0743845e-05
-8.8673592e-05
0.00012980474
4.509414e-05
-0.00023770177
6.2134307e-05
8.179936e-05
-0.00020514707
-0.00013727512
9.9672275e-05
-1.4465659e-06
-0.00033551268
0.00012585555
0.00010058776
-0.00020649916
0.00010337964
0.00021292912
-0.00021751178
0.00010224512
0.00012875
8.611818e-05
2.5579591e-07
9.4352927e-06
0.00014008846
-2.1580118e-05
-0.00010816325
0.00013825011
-2.1074682e-05
-0.00024167132
0.00017843529
-4.4438186e-05
-0.00029328835
4.4126981e-05
8.3462133e-06
-0.0001434241
-0.00023332833
8.2233834e-05
2.3707822e-05
-0.00026456466
9.5889279e-05
0.00010004927
-0.00018301713
0.00010511531
-5.4342656e-05
6.2691234e-05
9.0339311e-05
-0.00018638795
5.2166332e-05
7.9389722e-05
-2.6641302e-05
-0.00024435617
8.1727928e-05
0.00014366018
-0.00020170568
3.0138119e-05
0.00029424552
-0.00015803709
4.8206189e-06
0.00020701574
3.980196e-05
4.7353961e-05
0.00014140478
6.4247984e-05
-0.0003110938
0.00054161839
-7.4830884e-05
-0.00051676528
0.00052513135
-0.00013048284
-0.00037804995
-6.844984e-05
-3.3442176e-06
-0.00021428728
-0.00051276307
0.00015903773
-0.00011359647
-0.0005595084
0.00020858665
7.7471083e-05
-0.00049826501
8.2978578e-05
0.00018635943
-0.00045695206
0.00016939087
0.00032728758
-0.00035374043
0.00011112568
0.00026632204
0.00015704789
-9.2421581e-06
-0.00025500764
0.00083580278
-0.00018466836
-0.00054774877
0.00055372567
-0.00019885024
-0.00040587447
-0.00032194104
4.2791621e-05
-0.00020248455
-0.00067438511
0.00013548251
-9.3468143e-05
-0.0005037499
0.00018823433
0.00012845801
-0.00058095137
0.00014151344
0.00025794073
-5.7158814e-05
1.3794286e-05
4.4504143e-05
0.00038072298
-2.7197906e-05
-0.0002837559
0.0005614175
-9.4907322e-05
-0.00048072378
0.0004912962
-0.00011589302
-0.00033129732
-8.9752391e-05
-1.554708e-05
-8.7320288e-05
-0.00059526206
0.0001179567
9.4703189e-05
-0.00056819229
0.00012160415
0.00019684071
-0.00045950214
0.00017434749
-9.492672e-05
0.00014346712
0.00021099154
-0.00029888236
0.00011159291
0.00014452905
-5.8956755e-05
-0.00055673814
7.2456358e-05
0.00019408608
-0.00045784476
3.0962407e-06
0.00048925964
-0.00042507209
-2.8138553e-05
0.00055528632
-2.7888824e-05
1.6640954e-06
0.00068227991
1.4411184e-05
3.9197253e-05
0.00051054376
-8.1226186e-06
8.4101785e-05
0.00042020406
6.0022764e-05
0.0001323142
-6.6829728e-05
-4.9832524e-05
-0.00010185997
-0.00026337191
-1.5216989e-05
-0.00011671264
-0.0005098658
-3.4789931e-05
-0.00011595201
-0.00038656666
-0.00011245897
-6.7731308e-05
-0.00039656594
-0.00010860682
-0.00018332575
-0.00015856705
-7.957894e-05
-8.252933e-05
7.1401095e-05
-1.5149639e-05
-9.2450463e-05
0.00081299502
3.2728874e-05
9.9889052e-06
0.0004939286
-4.2642301e-05
-4.1929782e-06
-8.3569848e-05
-0.00022418932
-0.00028673187
-0.00013222755
-0.00025961866
-0.00035778865
-0.00024967024
-0.00018302286
-0.00037907599
-0.00047445453
-8.5209472e-05
-0.00011258799
-0.00030998121
-1.3665559e-05
7.0931743e-05
0.00026731959
-7.0116309e-05
8.6430289e-05
0.00050658386
3.9335122e-05
0.00014158928
0.00039114542
4.4991802e-05
0.00014951991
-9.7035013e-05
-6.4799841e-07
2.6400777e-05
-0.00041002596
-6.2116961e-05
-4.9572854e-05
-0.0004270422
-6.5176466e-05
-0.00018126085
-0.00024873149
-7.9082671e-05
-5.9702705e-05
-1.4242801e-05
3.6151764e-05
7.9651344e-05
-7.0073998e-05
4.2312847e-05
2.3973207e-05
-0.00050789417
6.8341576e-06
8.3492937e-05
-0.0004618207
-5.5543802e-05
-0.00012422599
-0.00020823597
-9.1172022e-06
-5.0856001e-05
-9.2595172e-05
-8.6636456e-06
0.00061489828
1.652563e-05
0.00016355363
0.00029255118
5.4438959e-05
0.0002952285
0.00015438704
0.00013414216
4.0283775e-05
0.00016695504
2.1159958e-05
-9.4601979e-05
-0.00019887628
7.0390129e-05
-6.7711188e-05
-0.0005331011
-3.6554878e-06
-7.3008801e-05
-0.00032558871
-5.5680342e-05
6.1044418e-05
-0.00041964702
-0.00011097214
-7.6368225e-05
4.4215203e-05
-6.5369612e-05
-0.00031022176
0.0003599517
-5.4697085e-05
-1.3665633e-05
0.00042266568
9.3773206e-05
0.00020522016
0.00028849745
-1.3454657e-05
2.8686706e-05
0.00021493826
-0.00012197466
-0.00018938563
0.00016502223
-7.9177436e-05
-0.00015791198
-0.00017803699
-0.00010310688
-0.00012247172
-0.00048215787
-2.7736896e-05
-0.00014724571
-0.00028997778
4.770599e-06
3.4954656e-05
0.00013743109
-5.2311822e-05
0.00019521815
0.00025761182
8.8708577e-05
0.00031285678
0.00012798223
0.00014552459
0.00011754756
3.2344729e-05
6.5929481e-05
7.2187747e-05
-0.00038803101
2.3364868e-05
0.00014138429
-0.00043323229
-6.3006464e-05
0.00014789724
-0.00015754221
-9.7702224e-05
-5.2217236e-05
0.00028073891
-9.4867251e-05
-8.2150614e-05
-5.7383209e-06
-3.4402313e-05
-5.9682488e-05
-0.00053261395
2.2516385e-06
4.7515265e-05
-0.0004941935
-7.4824967e-05
-8.6851891e-06
-3.4753159e-05
-0.00011728237
-0.00027642294
0.00025463432
-7.9491749e-05
0.00032545388
1.3021451e-05
0.0001448463
0.00014770489
0.0002205588
7.8674539e-05
0.00034860601
3.8907842e-05
0.0001635773
-1.3847569e-05
-0.00016439148
-0.00020513232
-0.00028195996
-0.00020802022
-0.00049977862
-0.00020182837
-0.00051461102
5.9047595e-05
-0.00026926226
0.00011460294
2.010362e-05
0.00013329979
0.00023300018
7.5600888e-05
0.00030492399
0.00014301445
0.00036867445
0.00010127177
0.0003282557
-0.00013761822
-4.9850043e-05
-0.0001040521
-0.00027810814
-6.1719649e-05
-0.00010358208
-3.7094944e-05
0.00012570357
2.83262e-05
0.00022914183
2.4543982e-05
0.00028756011
-2.6073539e-05
3.1101404e-05
-0.0001315723
-0.00016322781
-0.00023890307
-7.3298793e-05
-0.00024747124
0.00028945565
-8.2015542e-05
0.00036034875
-7.6631436e-05
-6.0838108e-05
-0.0001114271
-0.00050606484
-4.8966774e-05
-0.0005081525
-3.2665504e-05
-0.00027072707
1.7208884e-05
5.4726815e-05
-0.00013012078
0.00016545343
-3.867948e-07
-0.0002207261
0.00012065663
-5.1830461e-05
-0.0003129622
0.00016736966
-7.127762e-05
-0.00031235949
0.00012616372
-7.3169444e-05
-0.00021613004
2.5898454e-05
-4.064991e-05
2.1706212e-05
-0.0001822376
-9.5042816e-06
6.46284e-05
6.865455e-05
-5.7745023e-05
3.5038514e-05
0.00011891227
-5.8884177e-05
-4.365475e-06
0.00016278328
-0.0001169356
6.6477274e-05
5.8466664e-05
-8.9240964e-05
0.00016124096
5.6372452e-05
-7.2746781e-05
0.00012505598
0.00016152325
-2.6630445e-05
0.00011716301
8.9232692e-05
4.4306004e-05
0.00014487643
6.5815981e-05
9.8689215e-06
0.00015242509
0.00011391224
-1.8984018e-05
9.4767462e-05
0.00016973396
-0.000111205
3.4167856e-05
0.0001474224
-0.00010885029
-1.5840455e-05
0.00016820358
-0.00013901169
-8.3345124e-05
0.00013733056
-0.00011334904
-0.00017297705
0.00015654547
-5.8027382e-05
-0.00017507598
7.9393712e-05
5.7395836e-06
-4.874664e-05
-0.00011692806
8.534052e-05
-6.7828092e-05
5.7975133e-05
6.5507901e-05
-0.00013498219
0.00012806134
2.7289978e-05
-0.00021506518
0.00014236454
1.6066704e-05
-0.00022250832
5.5793856e-05
3.1657355e-05
-2.8379795e-05
-0.00017477656
8.9342478e-06
0.00027365102
-0.00030810364
7.238564e-06
0.00020323083
3.7752445e-05
8.040807e-05
0.00014287108
0.00012319511
-0.00019136999
0.00043705236
-0.00015505982
-0.00010461769
2.831608e-05
-0.0001248946
-0.00016157079
0.00023922144
-1.8242895e-05
-0.00031822471
0.00037975058
6.2104786e-05
-0.00017334773
-4.7662698e-05
0.00013727083
0.00017658323
-0.00050951457
6.0324585e-05
0.00026369326
8.1650893e-05
6.9284496e-05
3.7467751e-05
0.00045816175
-1.898286e-06
-0.00025131563
0.00059992264
-0.00015759814
-0.0001337018
-3.4141071e-05
-0.00020967447
-5.7848513e-05
-1.3746116e-05
-0.00020458496
-0.00016985021
0.0003298131
-1.3496552e-05
-9.9763907e-05
2.3571778e-05
0.00013105712
3.4487853e-05
-5.8961025e-05
0.00017875958
0.00014116365
0.00010627714
4.2472764e-05
3.1728292e-05
0.00050082047
-0.00020785683
-0.00019488805
0.00057023513
-0.00022339428
-0.00034014627
0.00049721908
-0.00027866458
-0.00026321785
6.2994572e-05
-0.00011848544
-0.00014627557
3.40584e-05
-1.0002284e-05
5.4486125e-06
-7.5362675e-05
0.00012098891
0.00026603025
-0.00038778732
0.00013188176
8.2763902e-05
0.00030557211
0.00011001685
-0.0003043462
0.00073943099
-1.3268012e-05
-0.00050668141
0.00053623684
-4.7008047e-05
-0.00039388024
4.6646639e-05
-3.1197594e-05
-5.2555888e-05
-0.00046718615
-4.5818525e-05
0.00037098867
-0.00065804876
-0.00010173799
0.00047287438
-6.0384239e-06
-5.6430746e-05
0.0006390016
-8.8449515e-06
7.0040778e-05
0.00037004084
-1.1151872e-05
2.4659237e-05
-6.1802132e-05
0.00019552252
-0.00012892364
0.00011906032
0.00022391148
7.0718866e-05
-3.9205831e-05
0.00020409692
0.00014271627
-0.00021527834
6.0828306e-05
-0.00028356344
-6.4695122e-05
-0.00013099871
-0.00013921349
-0.00011315475
-5.8151127e-05
0.00010401935
-1.3356271e-05
0.00014870623
-2.0848719e-05
0.00054866174
0.00016097932
-6.1048407e-05
-0.00010135605
0.00014014353
-9.9897613e-05
-0.00011837268
0.00010083346
-0.0001475034
0.00013945444
1.3775125e-05
-0.0001277119
-0.0002377128
-1.8125587e-05
-0.0002180844
-0.0001051089
-4.6502476e-05
-9.1138475e-05
-4.0177689e-05
-6.5700546e-05
-2.1315412e-05
0.00036694223
5.0389644e-05
-9.8042315e-06
0.00055214663
-6.3538955e-05
6.2975347e-05
0.00041254691
5.1227739e-05
5.1837074e-05
-3.6864645e-05
0.00015598931
4.493233e-05
-8.4432592e-05
0.00012474775
0.0001273529
-0.00031990014
9.9999943e-05
-0.00016706077
-9.5700637e-05
-6.2849481e-05
-0.00019465093
0.00027780271
-2.3723128e-05
-0.00013804822
0.00070790393
1.1076111e-05
-7.6602038e-05
0.00042894363
8.8159863e-05
4.5903008e-05
-0.00020804279
0.00013901854
4.0332046e-05
-0.00049409803
-2.3060966e-05
-0.00027281162
-0.00023581054
-0.00011821177
-0.0001283492
-6.8115398e-05
-9.1049093e-05
0.00053793256
-1.0754533e-05
0.00029913546
5.4264284e-05
7.1080068e-05
-3.077927e-05
0.00036222845
4.0026312e-05
-5.9468704e-05
7.3793443e-05
9.5116278e-05
0.00026927497
-0.00042057361
0.00012301423
6.8160797e-05
-5.9637741e-05
4.1818095e-05
-0.00026757032
0.00035546337
-0.00014010772
-0.00028342265
-6.5946231e-05
-0.00014232833
-7.3716727e-06
-0.00042804278
7.3265911e-05
0.00034473765
8.1412246e-05
6.0443068e-05
-1.9448504e-05
0.000332283
2.4320294e-05
-0.00039257672
0.00029424253
-5.2941661e-05
-0.0002443763
-4.5570531e-05
-8.5150126e-05
-0.00025520026
-0.00027244951
-3.361676e-05
-0.00045532932
0.0001210369
-0.00012912359
-0.00036606312
-0.00013421256
-2.2968182e-05
-7.7409507e-05
1.8962078e-06
8.1163054e-05
0.00014868725
0.00027684585
-3.1077486e-06
0.00038435193
0.00017504241
9.0548434e-05
0.00020125264
0.00027581002
1.5949241e-05
1.8146607e-05
0.00011031061
5.4292325e-05
-5.5454581e-05
-0.00028933729
6.6403207e-05
-0.00028076694
0.00011319235
-4.6587096e-05
-0.00025544622
0.00023657926
-8.1799509e-05
-3.0274734e-05
0.00038152547
6.339707e-06
5.4235764e-05
0.00021374543
9.6285372e-05
-8.8256019e-05
-0.00011703414
5.3734758e-05
-5.3265573e-05
-0.00053786021
-6.6053253e-05
-0.00010421917
-0.00018978523
-0.00011235408
-0.00029686815
0.00010273472
-5.7692897e-05
0.00024729693
6.7889205e-06
-3.2786378e-05
0.00023475556
0.00020172171
0.0002063949
0.00023509235
7.9330658e-05
-0.00013598113
-6.3347701e-05
-0.00026199802
-0.00013875317
6.3293108e-05
-0.00017784798
6.6937174e-06
-0.00021117521
-0.00032581505
-3.6486421e-05
-0.00020299292
7.3193041e-05
3.8560091e-05
0.00022402976
0.00020494646
0.00020345705
0.00017229317
0.0001300972
-4.3886552e-05
4.5001997e-05
4.3025423e-06
-6.4770397e-05
-0.00015425447
-7.9707627e-05
-0.00024362857
2.9550693e-05
-4.9658044e-05
4.5780411e-05
8.0162892e-05
7.3547697e-05
0.00020763434
0.00017288257
0.00017232272
0.0001195487
-0.00017568532
-7.2901554e-05
-0.0002111663
-9.0229733e-05
-7.0115032e-05
-0.00015194326
0.00022045647
8.9384122e-06
0.00036838886
-1.081841e-05
0.0002038387
-6.391109e-05
-0.0003020531
-8.0935197e-05
-0.00043337223
-9.1131607e-05
-0.00028756513
-2.5863505e-05
1.4458618e-05
-0.00016870999
0.00013466725
3.4703906e-05
-3.2364668e-07
-0.00026758767
4.5130738e-05
8.2532554e-05
-0.00016348018
6.1007587e-06
1.3290518e-05
7.6436518e-05
-8.3692202e-05
-6.7805891e-05
0.00014914125
-0.00011247371
-9.5156538e-05
0.00012071961
-0.00010830199
-0.00019246041
0.00016253061
-0.000127238
-0.00024964821
0.00011198205
-0.00011782658
-0.00020621819
-5.8290053e-05
-0.00010711084
4.4040674e-06
-0.00025551611
-5.0243084e-05
0.00026426863
-0.00026263086
-7.4404087e-05
0.00029047356
2.7791394e-05
-8.0323778e-05
0.00025999605
0.00015513673
-8.0406717e-05
0.00019532907
0.00017388559
-0.00010025116
0.00014064032
0.000155191
-0.00012041634
5.0701086e-05
0.00011197906
-0.00013366064
-0.00011002839
0.00014260716
-9.1792134e-05
-0.00010483108
1.4758018e-05
-0.00015944071
0.00012380742
-0.00032713233
-1.7593321e-05
0.00018720879
-0.00012122225
-1.1934785e-06
0.00010665816
0.00010890785
-2.3506743e-05
4.0903957e-06
0.0001397739
4.6860551e-05
-6.9901007e-05
0.00012030823
1.7942907e-05
-0.00010720235
0.0001248711
-6.1573412e-05
-0.00013497383
0.00011703375
-7.3896494e-05
-0.00010243993
-1.6642546e-05
1.4277862e-05
5.5838393e-05
-0.00017049077
2.0497323e-05
0.00027163249
-0.0002666718
5.6692829e-05
0.00019183391
3.6061581e-05
0.00012557086
0.00014154159
0.00017335816
-0.00012122016
0.00013686159
-3.6034009e-05
0.00011984133
-0.0006487722
1.5228449e-05
0.00035566264
-0.00042352569
5.9812988e-06
0.00042310628
0.00015629749
-8.5199815e-05
0.00023149279
0.00057203406
-9.4008483e-05
-0.00018824735
0.00069617413
-9.53898e-05
-0.00048207274
0.00061402909
-8.8388598e-05
-0.00045360096
0.00021735581
-0.00013574383
-0.00033332692
-0.00022908606
-0.00010707619
-0.00014566937
-0.00061058027
-4.2267867e-05
6.9407128e-05
-0.00061133137
-7.0960964e-05
0.00022557028
-0.00010154595
-4.0322363e-05
0.00033271688
0.00014818188
3.0865363e-05
9.3252964e-05
0.00057949108
1.2618013e-05
-7.0500698e-05
0.00051450567
-0.00015308823
-7.24447e-05
9.2098525e-05
-0.00018603228
-0.00027999661
0.00037595136
-0.00024918654
-0.00019729463
-4.5306804e-05
-0.00030130172
0.00011047201
-0.00071751428
-3.5870112e-05
0.00031354861
-0.00035115233
1.6851196e-05
0.00039451911
0.00019747129
-4.8545035e-05
0.00017074152
0.00054576616
-5.0332899e-05
-0.00019351033
0.00070094314
-0.00010636623
-0.00041927756
0.00061607854
-0.00027870823
-0.00042725325
0.00027922783
-0.00020122644
-0.00027393305
-0.00012716996
-7.3990388e-05
1.8383794e-05
-0.00045483186
-5.3794287e-05
0.00038608272
-0.00062363676
-0.00011247195
0.00047100387
-4.4265917e-05
-6.1024404e-05
0.0006058289
-2.1283906e-06
0.00035137254
-0.00021801869
-7.6441229e-06
1.2694232e-05
-0.00010918881
-5.3825515e-06
-0.00020819463
-7.5782133e-05
9.7056789e-05
-4.0900775e-05
1.9662097e-05
0.00017343845
-4.8629874e-06
0.00045927711
0.00013754746
-6.7752382e-05
0.00069768884
-6.9624015e-05
-8.4565082e-06
0.0005340191
-3.7437012e-05
0.0001708822
8.1274337e-05
0.00010544899
2.773443e-05
-5.6604452e-05
0.00013164548
-0.00012118709
-0.00038541766
6.3902427e-05
-0.0002340974
-0.00040999359
1.2405975e-05
-0.00010551372
-0.00036939942
0.0001530449
7.4992803e-05
-0.00013421779
8.3767566e-05
5.9370355e-05
0.00048639778
6.2213293e-05
7.8198921e-05
0.00038020999
4.9766595e-05
0.0001325769
-8.3489958e-06
9.6459223e-05
0.00026019637
0.00023794849
-5.3155524e-05
0.00033026959
-6.5753858e-05
1.6016063e-06
-4.9770823e-05
-0.00019298261
1.1498069e-05
-0.00016866544
-0.00022403685
0.00011652691
-7.4901553e-05
4.4667985e-05
0.00015903936
-6.9123372e-05
0.0005177894
-4.0650901e-05
-7.6355544e-05
0.00072251731
-3.8065133e-05
4.5065275e-05
0.00057760199
-7.1868166e-05
0.00013614923
0.00015394339
0.00012236033
9.5957585e-05
-0.0001197536
0.00017179381
6.2464536e-05
-0.00044532521
9.2543143e-07
-0.00023188474
-0.00023453005
-0.00021296921
-0.00010569147
-7.9275621e-05
-0.00018223266
0.00051711072
-2.7727822e-05
6.5234044e-05
-0.00033210741
0.00011993475
-4.0099108e-05
9.0473555e-06
2.7123303e-05
-0.00017729055
3.9600188e-06
0.00015256557
-0.00026566291
0.00010748317
0.00012356554
-0.00017225646
0.00026425132
0.00014343744
-7.8911407e-07
0.00044515469
-5.904092e-05
0.00017574129
0.00028044228
-6.5281912e-05
9.6533142e-05
4.7064909e-05
0.00018668348
3.1723013e-05
-1.2810181e-05
8.1458911e-05
1.6565098e-05
-0.00035221018
6.2707146e-06
-6.6993358e-05
-0.00032599952
-5.3377293e-05
-0.0001827808
-0.00039813015
5.9368041e-05
-0.00016689929
-0.00017874826
-4.9677944e-06
9.0226666e-05
0.0001082813
-8.1330451e-06
0.00032172866
-4.9362778e-05
0.00017510263
0.00022874392
0.00014874157
1.7057268e-05
0.00020426962
0.00019638039
6.2934705e-05
-8.3546411e-06
0.0002882839
-5.0865028e-05
-0.00013676224
-8.1108745e-05
3.2483008e-05
-0.00020903211
-0.00019732604
9.9851398e-05
-0.00033364214
0.00014530864
9.0372592e-05
-0.00020731887
0.00030442406
4.0454967e-05
1.4269023e-05
0.00045954802
-4.0418122e-05
0.00027611474
0.00031104172
1.1054242e-05
0.00025720291
0.00019354461
7.559597e-05
4.496541e-05
0.00012039794
2.582071e-05
1.6119985e-05
-0.00045706301
-2.5470048e-05
-9.7487058e-05
-0.00016824712
-6.5029984e-05
-0.00027700284
0.00011899933
-7.6452074e-05
0.00023467856
1.221823e-05
-0.00029139159
0.00019403975
-0.00030726256
0.00023131323
-0.0003300024
0.00010603052
-0.00032924882
4.3381884e-05
-0.00024233238
3.8581708e-05
5.7771057e-05
-3.2796728e-05
0.00023589796
-0.00010885985
0.00030370083
-5.7224383e-05
0.00035317443
1.0909245e-05
0.00014763853
7.7355476e-05
8.7680798e-06
1.632796e-05
-0.00013874503
-0.00012051985
-0.00013856114
-0.00013393014
-7.242396e-05
-2.262625e-05
-0.00016286306
-3.8631279e-05
-0.00010908778
0.00012451701
-1.8678403e-05
0.00015175146
9.5446065e-05
0.00024770716
-9.4653903e-05
0.00028187382
-0.00036010143
0.0001876702
-0.0003646836
7.6989263e-05
-0.00021712274
6.6633454e-05
8.6706371e-05
3.7756459e-06
0.00033996106
6.6725425e-05
0.00045692831
6.5758945e-05
0.00043279497
8.0620165e-05
-0.00012758699
2.2383743e-05
-0.00036179211
-2.5173604e-05
-0.00023429812
-3.4358171e-05
1.4839053e-05
-0.00018371947
0.00011399549
0.00010467521
-8.4212369e-05
-0.00020536403
0.00014942945
5.7216202e-05
-0.00029248101
0.00015328085
0.00016247467
-0.00026264785
6.6689186e-05
8.1848742e-05
1.5385588e-05
-5.3592639e-05
-8.7770387e-05
9.36758e-05
-3.9429439e-05
-0.00026914672
8.6700569e-05
-3.8024393e-05
-0.00025485956
-0.00011001573
-2.8138215e-05
-8.9888844e-05
-0.00025046655
-2.8063756e-05
8.3106698e-05
-0.00026675472
3.8286867e-05
0.00026100972
-0.00029629845
3.94146e-05
0.00037785154
-0.00025174971
5.2258892e-05
0.00031849869
3.8048691e-06
-2.451838e-05
6.8823328e-05
0.00014879277
9.6729753e-07
-5.3604158e-05
5.1041061e-05
-0.00018558347
-0.00014786136
0.00010804093
-5.5242169e-05
-0.000210754
-4.3935024e-05
0.00013426851
-0.00028401076
7.6152073e-05
0.00024696954
-0.00021398103
0.00010065075
0.00024427963
-2.3538802e-05
3.377152e-06
0.0001247926
0.00012558553
4.1225711e-05
-2.7357736e-05
0.00014221232
2.7153624e-05
-4.6231659e-05
4.0569891e-05
-8.4948462e-05
1.7695015e-05
-3.8077423e-05
-0.0001005145
0.00014040941
-0.00019370128
8.3644851e-05
0.00025147431
-0.00018233324
9.2685193e-05
0.00031685052
-0.00015457357
0.00014733772
0.00018206106
9.1609996e-05
0.00017167538
0.00015256925
0.00020406775
-0.00010167854
7.4343543e-05
0.00010529649
0.00010848197
-0.00052730952
0.00012701343
0.00027144237
-0.00060655282
0.00015709271
0.0005161705
-0.00058908769
-3.4881062e-06
0.00056776002
4.8338037e-05
-0.00017855045
-2.8065588e-06
0.00075448411
-0.00018563153
-0.00051299061
0.00054357997
-3.5083947e-05
-0.00041391876
-0.00031820169
-2.6629725e-05
-0.00020218441
-0.0005420346
-2.724249e-05
2.0308086e-05
-0.00054269764
1.1182548e-05
0.00020929565
-0.00056898491
1.2737932e-05
0.00035890136
-0.00059104228
0.00014936448
0.00033520107
-0.00010523516
0.00016360568
-0.0001278519
0.00062446376
-0.00016583777
-0.0001687065
-4.8029612e-05
-0.00048942389
-0.000204674
1.5498786e-05
-0.00011122814
-0.00047942683
-0.00012607473
4.1308278e-05
-0.00055842577
8.6008493e-05
0.00030360261
-0.000507288
4.7863842e-05
0.00047038393
-0.00013874773
-0.00010011743
0.00035874711
0.00033645781
-0.00014956836
-0.00010902276
0.00069371148
-0.00019009552
-0.00037372978
0.00038159362
-0.00035502496
-0.00024134371
-0.0001421278
-0.00022956215
4.8781269e-06
-0.00051670784
2.7943304e-06
0.00023333473
-0.00045634971
-8.2344373e-06
0.0004379823
-0.00046496709
-6.7260069e-06
0.00044722521
-1.8199255e-05
3.9541938e-05
0.00055899334
3.8672724e-05
0.0003816886
-0.00037380531
5.8816134e-05
0.00037489233
-0.00038664341
-0.00013925238
7.4072312e-05
-7.609551e-05
-0.0001325805
-0.00025926853
-6.871465e-05
-1.3593736e-05
-6.2191987e-05
-1.1301194e-05
1.1014635e-07
5.2356065e-05
0.00072301483
-0.00015270278
8.6256386e-05
0.00048924615
-1.7003518e-05
7.5037144e-05
-8.9310695e-05
-0.00011222276
-9.7566978e-05
-0.00019631683
-4.1468181e-05
3.1295317e-06
-0.00054056916
-3.8922577e-05
2.3935771e-05
-0.00050141233
-7.5972855e-05
-0.00012016512
-0.00023385231
-6.004418e-05
-8.7336753e-05
-6.9491143e-05
1.5195183e-05
4.8697592e-05
0.00055064273
-1.997885e-05
-5.0263437e-05
1.2075461e-05
-0.00042501895
0.00022649257
-0.00025207382
3.1467982e-05
-0.0002089822
-7.3818397e-05
-0.00010673564
-0.00036596078
-4.2763271e-05
-0.00019654654
-0.00024802505
-5.2925117e-05
-0.00014738849
-7.8548241e-05
4.9681819e-05
7.0290984e-05
0.00020981764
-0.00013169021
0.00014852632
0.00066528129
-8.7870284e-05
0.00027093
0.00027901295
-9.1691185e-05
0.000285458
-5.9565373e-05
2.5269893e-05
6.3413051e-05
-0.00012651114
3.6420496e-06
6.8143467e-05
-0.00042001399
-4.0140713e-05
-7.540844e-05
-0.0003020778
-0.0002323066
-4.4451429e-05
-5.387818e-05
-0.00017751076
0.0004975583
-1.0744213e-05
2.8257892e-05
-0.00046417949
0.00018205105
5.4803283e-05
-0.00038813169
2.0661967e-06
-2.8215277e-05
0.00010785622
5.1632406e-05
-0.00020938872
0.00020418045
3.1843882e-05
-0.00024186488
0.00016997604
-5.3636326e-06
2.3797322e-05
0.00036446606
3.3845648e-05
0.00019741148
0.00027638641
-2.6036332e-05
-9.6903569e-05
0.00019761654
0.00019407128
-0.00010873443
-6.4541767e-05
-3.8485305e-05
-7.6638771e-06
-0.00059198026
-4.3388746e-05
3.3542225e-05
-0.00053922526
-5.6770479e-05
-7.0339691e-06
-8.8447779e-05
-4.5460293e-05
-0.00019838113
0.00021653628
-9.9648055e-05
8.7652504e-05
0.00025647607
1.134309e-05
0.00020114864
-1.9196682e-05
-0.00037742188
7.0849891e-06
-0.00021542075
-0.00011867282
-8.4498521e-05
-4.959086e-05
-0.0001273997
-0.00041808291
9.3332064e-05
-0.00013743339
-0.00020305991
6.4919967e-05
-0.00026159468
0.00013786619
-1.8805425e-06
-0.00013273049
0.00014625856
-2.4850137e-05
0.00020080569
0.00037061558
-7.9288604e-05
0.00035591748
0.00014935598
-1.4400604e-05
0.00025124113
0.00014810459
-2.739766e-05
0.00012307909
3.9625007e-05
-1.2153408e-05
0.00014157421
-0.00046027538
-3.7037913e-06
-7.4286506e-07
-0.00020411637
-2.0674352e-05
-0.00021910938
0.00021268388
-0.00012464762
0.00023953173
5.1135415e-05
-0.00028342821
1.3288479e-05
-0.0004951878
5.4941143e-05
-0.0004253848
0.00014408374
-0.00034075421
0.00016293175
-0.00024499042
0.00011279396
3.2568127e-05
5.4110786e-05
0.00027339164
-7.329696e-05
0.00043001179
-1.622799e-05
0.00038756896
-1.1189701e-05
-3.5720012e-05
-9.1335826e-05
-0.00034280881
-0.00021580851
-0.00032450794
-0.00022726851
-0.00010800539
-0.0001338964
0.00012584445
0.00028836183
3.5456996e-05
-2.8212274e-05
-6.9140117e-05
0.00020413652
-0.00034545866
0.00014010948
-0.00046612612
0.00010527778
-0.00032669125
7.5420586e-05
-0.0001491178
3.5318562e-05
0.00015922031
6.60531e-05
0.00031749579
5.7805915e-05
0.00046606278
6.5296527e-05
0.00046935513
0.00011695282
-4.6802708e-05
7.8266183e-05
-0.00035060244
7.4509749e-05
-0.00020306441
3.0787664e-05
5.1306371e-05
-9.9438021e-05
0.00010988189
9.612422e-05
-0.00015489923
5.9482015e-05
0.00014756725
-0.00020050152
5.5228016e-05
0.00014642574
-9.0736238e-05
-0.00012063388
7.6294306e-05
1.7398972e-05
-0.00012955327
-3.65564e-05
-3.9941416e-05
1.8251621e-06
9.862595e-06
-0.00020925043
0.00012949064
-3.0872109e-06
-0.00022562527
-1.4029749e-05
-3.2493992e-06
-2.8687064e-05
-0.00023888571
7.4856917e-06
0.00017923618
-0.00025786031
8.3297265e-05
0.0003022478
-0.00022061564
0.00013251058
0.00022556668
7.4893672e-07
0.00012526988
0.00012957338
6.7023877e-05
0.00016342313
-0.00030575523
9.9373938e-05
3.572156e-05
5.1635676e-05
0.000154597
-3.0290037e-05
2.0913596e-06
0.00016881244
0.00012225348
-0.00025558381
0.00010509033
2.0116098e-05
-1.4594012e-05
0.00015733194
-0.00016201585
8.1864792e-05
0.00012668652
-8.7722496e-05
-0.00015398132
-6.6267906e-06
0.00013631535
-0.00030926044
-1.6242445e-05
0.00024763595
-0.00015036243
0.00012515029
0.00034818022
-0.00016151941
0.00015618633
0.00029369951
3.9720583e-05
0.00016689282
0.00012581152
0.00016376235
0.00018032889
0.00015278672
0.00017951375
7.2957481e-06
-4.3691643e-06
0.00021225179
-6.8447405e-06
-4.938777e-05
0.0002500237
5.9039491e-05
-7.4702023e-05
0.00022113852
0.0002869064
-0.00038763244
3.5643553e-05
0.00052120508
-0.00042916899
-0.00011323342
0.00011922481
0.00042179761
-0.00020362371
-0.00052386559
0.00080832838
-7.0831284e-05
-0.00043815815
-8.4342286e-05
-4.2024628e-05
-0.00010249448
-0.00056617067
-3.5621204e-05
0.00017752264
-0.00056240033
3.5705438e-05
0.00041054058
-0.00054529468
0.00010439904
0.00045615613
-6.9831693e-05
0.00017432955
0.00059714882
0.00015218637
0.00013662889
-0.00063213104
6.3672211e-05
6.216707e-05
4.0237616e-05
0.00017186839
5.9798243e-05
-5.2856205e-05
0.00010518025
0.00039909846
-0.00065836805
-3.6633394e-05
0.00020857852
2.6256112e-05
1.0144598e-07
-0.00031615234
0.00058241748
-0.00016591735
-0.000257348
-0.00031264198
-0.00025516864
-8.2562609e-06
-0.0006322396
-0.00015567474
0.00015858755
-0.00039912079
8.470888e-05
0.00036333687
-0.0004720591
9.7555928e-05
0.00042067818
-0.00011858229
9.4235546e-05
0.00030952866
0.00020936794
0.00010508587
0.00055570727
-5.4719174e-05
8.3434045e-05
-0.00018827397
0.0001592869
0.00024723201
-0.0004251316
7.2693487e-05
0.00034402577
-0.00038048417
7.6407894e-05
0.00021867957
-0.00026187177
-1.4008216e-05
6.1478587e-05
-0.00016401535
-0.00010784251
6.8009826e-06
0.00032824063
-4.468203e-06
4.6348036e-05
0.00080029155
-4.8513742e-05
0.00014536909
-7.2375963e-05
-0.00022321014
8.9880752e-06
-0.00038446328
-8.6794564e-05
5.7340795e-05
-0.0005062473
-0.00014342833
-0.00010466235
-0.00026114207
-0.00019812233
-1.7924451e-05
-7.1329207e-05
-0.00014528457
0.00053975663
5.4662921e-05
-0.0002516803
-0.00047775848
2.3489376e-05
5.9267773e-05
-0.00039682893
8.3355234e-05
0.00030831134
-0.0003136527
-4.1172175e-05
-5.9846205e-05
-0.00010503059
-0.00013549808
-6.1686678e-05
-2.6804087e-05
-7.678954e-05
0.00019369689
0.00044687797
-0.00020771434
0.00010861214
-5.1371594e-05
-0.00026787684
-0.00019357684
-9.5041649e-05
-0.00020973909
-8.5862384e-05
-0.00036081794
-0.00014237527
3.0741859e-05
-0.00053189559
-9.6908476e-05
8.3914143e-05
-0.00028053146
-0.00012352973
5.4413076e-05
0.0001005236
-3.9165362e-05
0.00050504021
9.4335918e-05
-4.9259146e-05
-0.00010025634
0.00014329258
-6.3802399e-05
-0.00044687083
3.8348693e-05
-8.9178929e-05
-0.00038908682
8.5611589e-05
-8.8827861e-05
-0.00018924305
-4.1135898e-05
-0.00020617759
5.9599718e-05
-0.00011162896
-0.00011846127
0.00021687076
5.7499198e-05
0.00022073915
0.00047530875
-4.0253954e-05
3.7999917e-05
0.00028430629
2.0128266e-05
-5.1679864e-05
-0.00027363429
-5.9634516e-05
5.1828024e-05
-0.00054526369
-0.00010788025
-9.180237e-05
-0.00011232749
-6.1954675e-05
-0.0002066499
0.00019962174
-0.00020156371
0.00026137644
-2.7917772e-05
-0.00012255803
-0.00048676319
8.1971938e-05
-0.00011610347
-0.00044322884
0.00013327745
-2.8453172e-05
-0.00035707409
2.0691088e-05
-0.00012271409
6.3844667e-05
-7.6494879e-05
-0.00023403435
0.0002122639
-0.00015259786
0.00017323175
9.8658983e-05
-0.00013833573
0.00019737348
3.3037537e-05
-0.00012295149
0.00013607999
1.7133647e-05
-7.8279481e-05
0.00016934901
-0.00038832131
-1.7919083e-05
0.0002153982
-0.00054636037
-3.5288208e-05
7.3721299e-05
-0.00018073761
2.1208686e-05
-0.00012317461
0.0001827762
-1.000432e-05
0.00027172005
0.00016128096
3.1387207e-05
-0.00011835506
-0.00025567423
-0.00010486825
-0.00045177753
-4.889977e-05
-0.0005063933
2.8304479e-05
-0.00042637948
9.2379859e-05
-0.00021408995
5.8692016e-05
0.0001816692
6.2526365e-06
0.00048130809
-3.1560596e-05
0.00024481709
-4.8333001e-05
-0.00022251335
-0.00016926908
-0.00035118345
-0.0001994659
-0.00020260891
-0.00017622131
-7.512887e-05
-0.00025853542
-2.4091218e-05
-0.00043465667
-0.00012699808
-0.00054255137
-0.00014390159
-0.00037537257
-2.7913542e-05
-7.4733866e-05
-5.3056238e-05
0.00014075487
-5.0776669e-05
0.00034191123
-0.00011031291
0.00052907604
-0.00010473466
0.00034421018
-8.6502644e-05
-7.310015e-05
-5.0783874e-05
-0.00031108026
0.00013175224
-0.00022017538
0.00012265897
0.00010285104
-9.0310976e-05
0.00014252873
4.4616031e-05
-0.00019607389
0.0001634818
9.0748562e-05
-0.00028235647
0.0001573563
7.8252909e-05
-0.000111787
-0.00015053969
5.4313529e-05
3.526301e-05
-0.00017644261
-1.0699473e-05
5.1395409e-05
-1.2598924e-05
1.0342072e-06
-8.6354306e-05
0.000144264
-1.4036584e-05
-6.3024488e-05
-1.3703116e-05
-1.7478184e-05
0.00019809506
-0.00025901306