/*--------------------------------*- C++ -*----------------------------------*\
| =========                 |                                                 |
| \\      /  F ield         | OpenFOAM: The Open Source CFD Toolbox           |
|  \\    /   O peration     | Version:  v2012                                 |
|   \\  /    A nd           | Website:  www.openfoam.com                      |
|    \\/     M anipulation  |                                                 |
\*---------------------------------------------------------------------------*/
FoamFile
{
    version     2.0;
    format      ascii;
    class       volScalarField;
    location    "370/bottomWater";
    object      T;
}
// * * * * * * * * * * * * * * * * * * * * * * * * * * * * * * * * * * * * * //

dimensions      [0 0 0 1 0 0 0];


internalField   nonuniform List<scalar> 
1460
(
976.75671
974.05431
972.40282
970.98561
969.26935
967.25167
965.66946
965.80824
966.39434
965.27192
960.09457
958.15925
957.05691
959.53118
959.71892
964.10997
965.7829
966.63791
962.76738
960.54171
958.62296
956.87468
955.14113
956.17686
954.50122
952.92318
956.42966
956.47357
957.26406
958.03086
975.88312
973.91034
973.08325
972.79435
970.00782
967.15256
965.61562
966.26651
966.76468
963.59504
959.07211
958.72455
957.2411
957.55298
957.26745
960.73728
962.89636
962.07409
960.46131
959.59762
958.65986
955.95251
954.74365
954.68397
953.14875
952.8906
955.80055
956.76674
956.9095
957.1701
976.60922
974.56818
974.4303
973.75343
970.06076
966.57746
964.94678
966.21007
966.68058
963.97157
959.67867
959.74657
956.68277
956.94359
956.52131
956.37735
961.44505
962.62475
961.26974
962.13401
958.81183
955.53533
954.48392
953.90307
952.68802
952.61845
955.71942
957.27447
958.64552
957.23356
977.36674
975.76887
976.02834
974.51557
970.08244
966.0429
964.29475
965.14557
965.77424
964.73462
960.37763
959.70379
957.34424
956.70984
955.86399
954.42358
958.27935
962.59887
962.0334
962.17707
957.27525
954.61027
954.40045
954.53171
952.50431
952.54594
955.77155
957.246
957.97345
957.33684
977.64252
976.45884
975.81138
975.03304
969.77368
965.49914
964.21684
964.9641
965.2334
964.80076
961.13559
960.8171
959.84053
957.38897
955.3277
952.54284
954.52392
958.88214
958.48964
957.5136
955.28435
953.39465
953.00737
953.28991
952.3352
952.12965
955.64311
956.31679
956.81106
956.60824
978.13968
974.95204
972.45513
970.50283
968.58535
967.06753
963.68027
962.49446
961.83409
961.63495
959.47203
959.74284
960.70642
962.67305
962.53878
958.60532
955.67612
955.6186
960.00813
960.81144
960.28656
958.11759
957.85685
957.64486
957.01888
956.50865
956.88128
957.06525
958.03828
958.61914
977.18142
975.27636
972.63233
971.22252
970.04636
968.32457
966.7352
965.92145
962.85228
961.04555
958.15131
959.26965
959.22889
959.23163
960.76046
953.99583
951.84131
954.74361
958.93829
960.01738
959.10457
956.82312
956.30845
955.69063
955.20477
955.32919
955.58949
957.575
957.70654
958.04927
977.57542
976.92687
973.01114
971.75826
971.64138
967.72182
965.0134
965.89884
963.91526
963.77446
959.93063
958.14516
955.10172
956.29496
956.61145
954.55725
951.65666
955.59243
959.40263
960.25922
956.65268
956.71466
956.05993
955.55528
954.87026
953.93192
955.24826
957.75083
958.40447
958.17066
978.07908
977.4144
973.88386
972.70527
971.62568
966.76851
963.44004
963.45756
964.58321
965.17202
957.04419
955.87959
954.8373
953.37994
952.45174
953.74689
951.88135
955.68065
957.35344
958.21133
954.80859
956.1692
955.83274
955.57565
954.81652
953.6699
955.0136
957.95888
958.62594
958.33778
977.32616
976.87904
975.2719
972.08844
967.86627
967.22669
963.13592
963.26844
964.02454
964.55063
958.70273
959.6169
957.48026
950.79898
947.89611
949.35292
950.79238
953.0992
955.1877
954.1285
953.33025
954.32299
954.42082
954.53193
953.72513
952.69411
954.32958
956.13605
956.71631
957.13605
978.49307
976.53688
973.7373
973.10935
969.13388
962.05702
958.2804
959.60825
960.03216
960.0215
954.92749
954.40905
954.83346
953.69515
948.9545
945.60483
946.75025
949.4978
953.61881
956.05307
957.02287
958.91084
958.60626
956.70367
955.44251
955.39166
955.52936
956.5175
958.22788
959.34515
977.37705
976.45543
973.64967
973.23999
971.99669
967.40927
961.873
962.14655
962.62351
961.27164
956.08246
953.05911
955.29754
956.00756
948.1882
943.55249
945.22784
948.53457
953.61908
957.13889
957.38727
957.43642
956.01459
954.05483
953.96621
954.12135
954.43237
956.15486
956.49541
957.31415
976.74013
976.41967
972.87412
972.5984
972.02793
967.47192
962.13869
963.58019
964.52874
962.33482
956.51409
952.50991
952.1134
955.69448
949.19178
949.78925
946.29229
948.53872
953.62076
958.03023
957.43448
957.10504
955.71897
954.02051
954.22294
954.11528
954.40142
956.40629
957.19419
957.48772
975.66363
974.12885
972.22609
971.77322
971.05946
967.91864
962.38603
963.1931
964.7854
962.98857
957.13746
951.39457
950.24138
955.20124
949.66298
950.5087
948.51958
950.72641
956.3541
956.0782
956.85516
956.77845
955.63408
954.2047
954.46521
954.27825
954.02159
957.06683
958.1168
957.75783
974.5046
972.49588
970.02588
969.3797
969.15546
967.77669
962.4592
961.98449
962.13886
962.75649
960.05136
950.48929
945.94213
947.22749
944.55805
948.16567
948.14547
949.99333
952.46081
953.69958
954.91837
955.22438
954.7232
953.50348
953.29936
952.85361
953.45916
956.30543
956.8154
956.94217
976.12218
973.78861
972.52232
971.5353
970.49205
963.962
957.74973
959.44622
960.33447
959.92317
949.98801
948.87452
949.4302
947.35597
938.18365
937.23634
939.82413
943.86466
950.86122
954.51541
955.69743
957.35033
958.79398
955.99231
953.80467
954.21116
954.92962
956.33593
958.76618
960.73398
975.14634
972.7012
972.47216
972.48666
972.20586
971.17101
961.77324
962.21638
962.27763
960.55134
947.00523
947.00282
947.28134
944.82879
939.91668
939.93609
940.40942
945.27435
951.69456
955.7866
954.55326
954.04334
954.36747
953.09558
953.09049
953.51733
952.97208
954.30655
955.24664
956.90128
973.45343
972.23417
972.16871
972.33255
972.15937
971.34543
962.67521
961.97615
962.64681
959.92512
945.38176
946.84496
944.98612
944.69021
942.79621
940.729
943.06863
945.51446
952.29814
955.64132
955.52635
952.94426
954.1096
953.27021
953.68684
953.75864
952.89722
954.97341
956.01778
957.21208
972.69174
970.62909
971.68332
971.66869
971.51325
971.5434
962.89235
962.96023
962.2967
959.42479
943.32176
944.23281
942.49177
943.33428
945.1835
939.16612
945.8917
949.50808
953.10438
954.48313
955.18457
953.97008
954.01962
953.65798
953.90192
953.76269
952.74929
954.79921
957.61342
957.61377
971.65788
970.23458
969.72582
969.94789
970.02318
970.63073
962.19018
961.94973
961.49211
959.31672
941.84922
939.87501
939.50682
938.0975
937.52761
938.63327
945.68996
949.44409
951.78924
952.5118
953.02984
952.92969
953.04001
952.47558
952.39718
951.93879
952.15989
956.38072
957.00393
957.17705
978.3694
975.90845
974.377
972.32351
970.39191
965.01624
955.51738
955.49794
956.76948
952.46312
950.27206
950.67151
942.07532
934.45481
942.40597
952.31954
949.77968
952.42635
954.31599
953.31002
952.76699
953.29513
954.18176
956.78577
959.67194
962.81736
977.14682
974.19467
973.0752
971.4169
970.87515
970.90161
960.45756
958.42204
958.19505
951.34886
948.32277
948.41585
945.02171
939.98577
944.36952
948.7538
948.28214
948.80349
952.11074
953.02005
952.53141
950.93515
951.11851
952.57352
954.77155
958.30138
974.57344
972.49587
970.78045
970.5925
970.19683
971.14876
960.99632
959.15174
959.18056
950.23626
946.86655
948.36157
942.91857
942.68363
947.63174
947.98515
948.19178
948.76045
952.38907
953.09175
952.46671
951.2149
951.08261
954.9111
955.47568
958.2735
973.38346
971.39963
969.13659
969.37265
969.22327
969.2319
961.4282
962.36666
959.67971
949.87693
944.83318
943.99558
940.79523
943.01908
947.60325
948.45606
950.11357
949.86788
952.66694
952.71448
952.07863
950.07368
950.29918
952.85623
956.44169
958.57332
974.07416
970.94792
968.32196
967.38021
966.77705
965.80661
961.40504
961.72695
960.87806
949.71143
941.37967
940.5045
936.61644
943.8253
945.72046
946.80096
948.15162
948.63284
950.36091
949.86325
949.58109
949.4043
950.23485
956.01885
956.8364
958.0423
979.29892
976.72961
975.10101
972.9942
970.10207
968.14543
959.31217
950.44822
953.99376
954.35787
954.06599
953.84413
940.25608
925.68115
935.23955
946.25298
947.67372
951.73107
956.78984
956.23807
955.68915
959.09639
960.41202
962.69618
964.77527
967.44937
977.46534
975.07885
974.28694
973.6154
970.137
970.20219
961.61657
954.79358
954.66603
949.25215
950.38883
950.73919
942.92257
930.12383
936.48825
941.23515
941.50784
943.32915
953.72103
954.16008
954.06897
955.81242
956.44607
957.90444
960.29236
963.88151
976.85851
975.50422
974.52228
973.08879
968.72021
968.20504
962.08536
957.45768
954.64058
947.18547
947.07092
949.58718
940.58382
932.90293
941.43795
941.37042
941.64822
943.68163
953.10447
954.13652
954.03861
954.67266
953.65178
958.17499
960.30427
960.6251
976.01182
975.80699
974.22329
971.85083
967.13299
965.99964
962.57054
962.55429
956.97435
946.36044
946.34485
946.29404
938.47996
933.42397
943.30662
942.48186
944.28271
945.48671
953.92056
953.40456
951.59708
949.60991
948.73267
952.85991
956.73031
957.59026
975.58895
975.17557
974.63042
970.67532
965.27772
964.79562
962.74114
962.02517
956.06461
943.10438
943.06102
941.03401
935.36073
932.48461
937.70805
940.02346
942.45253
945.39703
950.64693
949.71849
949.44351
948.77901
947.9526
955.07137
956.26054
957.02361
977.45619
977.50476
975.71312
973.64301
971.03036
968.92434
962.9661
948.61837
951.06031
948.03642
948.61623
945.61653
933.87588
923.34642
924.67899
924.09895
926.63473
929.50872
934.43089
941.97706
947.0633
951.76754
958.9383
964.74854
966.92566
967.37599
967.73995
967.04027
965.18644
961.68023
976.86789
976.02232
975.47592
975.38497
971.25292
969.24989
961.53043
952.95553
953.2499
949.35572
948.74697
942.9765
935.02098
930.87107
927.8964
924.85444
925.58154
927.55672
932.30348
937.31791
940.2697
943.40236
955.56306
960.74167
961.06425
962.01008
962.85591
962.627
961.32632
959.05063
976.92498
976.18515
975.68304
975.29081
971.40648
966.53598
961.45913
955.44715
954.4859
949.40368
947.05927
943.23147
935.9071
933.68979
930.49673
926.92901
928.5044
928.79032
933.6747
936.54973
939.52448
942.89758
954.53387
955.0222
954.77361
960.20106
962.18329
959.92179
958.99883
959.13559
976.9361
976.49111
976.07082
975.64306
971.28255
965.09857
961.85895
960.85652
956.26085
950.17818
946.09813
943.90014
936.49917
937.73381
934.70793
926.97022
930.29232
931.21359
936.73813
941.79394
943.19677
944.16871
954.4985
953.03632
953.21589
956.24802
956.41904
953.11828
954.63291
955.89815
975.61386
975.38493
975.26413
974.72873
971.70425
961.60158
961.42036
959.96644
958.87653
951.01056
943.70316
943.79462
936.87187
934.79973
932.07842
928.79348
931.7024
935.02541
937.04702
939.84061
941.66732
945.48916
951.98876
951.01303
950.73136
950.35594
948.79858
953.40506
955.45534
955.82756
970.82201
972.69829
972.76852
972.21265
968.15482
965.22749
959.91564
949.75046
952.72901
951.53731
949.34143
944.03759
943.17342
942.46523
936.11484
935.18528
936.96222
938.41893
940.79074
944.00271
947.58235
951.90967
959.13958
963.64499
963.58184
961.91575
961.82774
961.48529
960.28834
957.74872
970.69907
971.48116
971.82893
973.45447
970.63025
969.48614
961.41873
954.21074
954.093
951.83938
950.64444
946.05103
945.98681
943.72107
937.94396
935.30849
936.20184
936.94276
937.26603
939.81875
942.1372
945.48348
955.76072
958.20408
958.01327
957.86279
959.11436
959.10805
958.55728
957.33591
971.06636
972.14475
973.31286
973.6437
970.20025
968.84093
961.47463
956.78825
954.43267
952.0717
948.7999
946.90645
947.06033
944.02966
939.02269
935.9393
936.60093
937.67619
936.45031
939.02432
941.57633
946.21174
955.00939
955.13798
951.60228
951.48923
955.26843
958.1476
957.22259
957.16844
971.09999
972.27985
973.09524
973.57324
970.00224
968.38915
961.21835
959.27813
954.83623
954.43525
949.32128
946.17176
945.70361
944.25812
938.94491
935.17231
935.7896
935.72643
938.06109
939.06225
941.73308
946.25439
953.41191
952.21622
950.05601
949.57248
952.20195
953.26302
954.20815
955.41804
970.39853
970.73483
971.33535
971.51192
969.01748
959.27686
960.13805
958.71135
957.34466
956.22136
949.9899
943.22805
941.44918
939.22236
937.19967
933.54765
934.09381
935.18954
936.85844
938.35599
941.46042
945.3288
950.56864
950.29294
949.06854
948.22036
951.59986
953.2916
954.12778
954.62177
967.53703
966.89406
965.87837
964.76161
963.4239
961.92843
960.30648
955.6752
954.1659
954.44265
951.92626
948.11534
948.34145
944.63778
943.37546
942.18843
944.52365
948.43044
952.84029
952.20397
951.08697
955.02013
957.70929
960.60268
957.96863
954.59603
955.76574
958.5322
959.86981
960.36288
966.31399
965.95571
965.73399
965.90211
965.19754
964.84291
963.45639
959.38508
955.37576
953.34346
951.09907
947.84544
948.10976
942.15397
940.6522
938.90701
939.88259
942.42247
945.44761
945.43631
945.8333
949.96789
951.91019
953.4978
950.77629
950.99242
953.5445
954.5118
956.30833
956.99855
966.31319
966.13339
968.11696
967.62342
966.21557
966.45542
963.43673
959.22031
955.13166
952.54615
951.03386
950.2708
949.14735
941.86585
939.87164
939.25271
941.13974
941.61134
944.64504
943.43977
945.31722
949.04653
951.2635
952.45295
950.06945
951.02513
954.26422
956.58556
956.24424
955.85434
966.60367
967.07685
967.67363
967.54147
965.98347
964.7742
963.10674
959.03982
957.5671
952.88881
951.79891
949.63463
945.38216
940.52364
939.42571
939.85076
938.20513
941.96533
944.44948
942.30558
945.52358
948.87014
950.25365
948.85057
949.63263
951.47726
952.67466
953.92746
955.74272
955.43999
966.88897
967.32927
967.84986
968.30567
966.30349
960.67965
960.82756
957.34996
956.38496
954.88156
951.88476
947.72973
945.09824
940.44605
937.74181
937.0716
938.65851
940.25273
939.44758
940.77278
943.98734
946.38046
947.74879
946.78639
949.03862
951.16596
951.98421
952.49362
953.1197
953.84969
966.96911
966.22996
965.16272
963.77037
959.93497
959.72839
960.0466
959.73006
958.75353
958.03991
956.55281
955.14076
955.73437
952.60583
951.23405
949.94168
952.85743
948.79609
945.42457
944.62885
947.60737
951.50938
953.90909
957.82336
955.31225
952.42337
953.05407
954.43973
955.6222
957.41301
966.16918
965.9819
965.93129
965.04437
960.80984
959.82981
960.14362
960.08148
959.13128
957.63012
955.99589
954.43281
953.85699
948.43671
946.16477
944.50635
945.67369
943.64888
942.18444
943.71293
946.29944
947.0368
948.90718
951.70077
950.28128
949.3941
952.11129
954.26354
954.20196
955.43942
966.12105
966.29591
966.42998
965.65348
961.42783
959.30547
960.27063
959.5391
956.64858
955.1914
955.13405
954.42285
952.23852
947.20471
945.92223
944.61295
944.30311
942.02486
941.5639
943.61404
946.34753
947.13412
948.26008
950.46728
949.20571
949.35713
952.00379
955.44609
954.85456
955.38482
966.25141
966.52619
966.15954
966.14062
962.06967
958.15505
959.60914
958.01171
956.88866
954.59485
954.90959
954.20123
947.38035
945.28295
945.37186
944.51744
937.22403
938.97964
940.70235
943.72443
945.3638
945.05775
944.54577
946.34339
947.92831
948.69647
953.18994
954.52034
955.16605
955.29804
965.56055
965.73517
965.99056
966.37386
962.49925
957.49597
955.85099
954.59087
954.79354
953.21865
952.00793
950.59148
946.57834
942.40378
941.83256
937.11976
937.06856
938.49779
939.33419
940.45896
942.3794
944.02217
944.41253
946.30289
950.17153
951.11285
952.58212
953.14491
953.71583
954.24128
)
;

boundaryField
{
    minX
    {
        type            zeroGradient;
    }
    maxX
    {
        type            zeroGradient;
    }
    minY
    {
        type            fixedValue;
        value           uniform 1073;
    }
    minZ
    {
        type            zeroGradient;
    }
    maxZ
    {
        type            zeroGradient;
    }
    bottomWater_to_rightSolid
    {
        type            compressible::turbulentTemperatureCoupledBaffleMixed;
        refValue        nonuniform List<scalar> 
130
(
746.961
754.8036
762.95301
771.00674
778.67122
785.73962
792.07455
797.58973
802.24671
806.02316
808.87101
810.77627
811.73015
741.16457
750.326
759.63005
768.6191
776.99591
784.57528
791.26535
797.02291
801.83866
805.71671
808.63716
810.58642
811.56311
729.55413
741.73597
753.51665
764.36999
774.07555
782.57552
789.88986
796.07033
801.1663
805.22484
808.26773
810.28948
811.29951
712.1956
730.07044
745.82596
759.31556
770.74074
780.36039
788.4011
795.05089
800.44957
804.70354
807.87849
809.97948
811.02687
691.58651
718.84513
739.32807
755.36066
768.23618
778.72466
787.29461
794.27196
799.87782
804.26571
807.53166
809.68684
810.76244
691.11226
718.37585
738.88756
754.96079
767.88697
778.4272
787.02465
794.01632
799.62651
804.01189
807.28349
809.44336
810.51939
710.8765
728.79264
744.62647
758.21678
769.76221
779.50329
787.61763
794.30954
799.73076
803.99129
807.17493
809.28754
810.33991
727.62373
739.87648
751.76504
762.75566
772.61428
781.26276
788.68243
794.93083
800.07045
804.15785
807.20807
809.23569
810.24924
738.84851
748.09935
757.53933
766.69153
775.22819
782.95339
789.76214
795.62325
800.5073
804.40887
807.33137
809.28035
810.25748
744.40553
752.35967
760.65937
768.89213
776.73412
783.96057
790.43705
796.07375
800.80019
804.59603
807.44667
809.35088
810.30604
)
;
        refGradient     uniform 0;
        valueFraction   uniform 0.99248593;
        value           nonuniform List<scalar> 
130
(
748.55331
756.33411
764.41499
772.39143
779.98414
786.99649
793.28592
798.75249
803.37294
807.14743
809.97895
811.8736
812.81879
742.75704
751.86534
761.09149
770.00704
778.32838
785.85152
792.49215
798.20038
802.97219
806.83344
809.7455
811.68446
812.65697
731.21054
743.31939
755.02083
765.80179
775.43673
783.86905
791.11928
797.25178
802.30609
806.33873
809.38013
811.39052
812.39391
713.97836
731.73647
747.37902
760.77116
772.10974
781.65793
789.63398
796.23321
801.58787
805.81157
808.99437
811.08426
812.1251
693.48193
720.54993
740.88707
756.8093
769.5917
780.01434
788.51618
795.43897
801.00138
805.36256
808.64742
810.79256
811.86916
692.92598
720.02396
740.39893
756.36959
769.22074
779.7213
788.24714
795.18419
800.74724
805.09345
808.39396
810.54656
811.62025
712.56081
730.35753
746.09332
759.59524
771.08257
780.79937
788.84537
795.48482
800.86249
805.07935
808.27368
810.38588
811.43314
729.18339
741.35664
753.16711
764.09848
773.9121
782.53491
789.89675
796.08901
801.18364
805.26576
808.30576
810.32444
811.33409
740.36188
749.53719
758.91616
768.02375
776.51424
784.19165
790.94201
796.77606
801.63936
805.51776
808.42211
810.36114
811.33642
745.86396
753.76462
762.0104
770.19573
777.99114
785.16621
791.60826
797.23166
801.92965
805.70801
808.54144
810.43563
811.38756
)
;
        Tnbr            T;
        thicknessLayers List<scalar> 0();
        kappaLayers     List<scalar> 0();
        kappaMethod     fluidThermo;
        kappa           none;
        alphaAni        none;
        alpha           none;
        field           T;
    }
    bottomWater_to_leftSolid
    {
        type            compressible::turbulentTemperatureCoupledBaffleMixed;
        refValue        nonuniform List<scalar> 
130
(
873.38177
873.31709
873.19499
873.01963
872.79258
872.54949
872.32067
872.11892
871.93513
871.76277
871.60067
871.48249
871.41296
873.25556
873.19044
873.06166
872.87813
872.65398
872.41688
872.16759
871.94303
871.73771
871.54147
871.34542
871.19939
871.10734
873.0139
872.9422
872.81064
872.63705
872.4258
872.179
871.90201
871.64316
871.39653
871.15313
870.90634
870.68798
870.55947
872.7303
872.66041
872.53382
872.36067
872.14299
871.88212
871.56769
871.26598
870.96047
870.63684
870.29091
870.04871
869.91968
872.47024
872.39308
872.25154
872.05821
871.81576
871.52872
871.19826
870.86051
870.49929
870.10389
869.75012
869.50284
869.35952
872.19892
872.13202
871.99447
871.77932
871.49869
871.18684
870.84342
870.47758
870.07499
869.65858
869.3271
869.08249
868.93277
871.8778
871.81776
871.69014
871.48564
871.2004
870.85298
870.50831
870.14953
869.77789
869.39395
869.05743
868.82135
868.67413
871.51666
871.46471
871.3503
871.16198
870.89204
870.55567
870.22784
869.89122
869.55527
869.2273
868.9183
868.68065
868.5531
871.22251
871.17438
871.06727
870.89207
870.64268
870.34161
870.03503
869.71512
869.40909
869.11828
868.8532
868.64273
868.523
871.06434
871.01601
870.90949
870.7362
870.48763
870.1986
869.90303
869.60853
869.32966
869.06564
868.83336
868.65043
868.53649
)
;
        refGradient     uniform 0;
        valueFraction   uniform 0.99248593;
        value           nonuniform List<scalar> 
130
(
874.16525
874.09214
873.96607
873.78617
873.52139
873.24796
873.0112
872.81658
872.63621
872.46191
872.27351
872.15383
872.07747
874.03759
873.96958
873.82968
873.62365
873.36945
873.12934
872.85115
872.62924
872.43114
872.24034
872.00188
871.86381
871.75634
873.77654
873.69027
873.54112
873.36399
873.15264
872.89734
872.58245
872.322
872.07839
871.84146
871.5762
871.28776
871.12596
873.47366
873.39358
873.26411
873.09393
872.87845
872.62411
872.2486
871.94737
871.64073
871.30331
870.82871
870.57341
870.44257
873.23372
873.1337
872.97345
872.77449
872.52933
872.23716
871.87612
871.5433
871.17841
870.70214
870.28837
870.03638
869.86496
872.97583
872.90631
872.7657
872.52254
872.20341
871.89029
871.534
871.1655
870.72109
870.21046
869.88115
869.62314
869.43196
872.65728
872.59596
872.46841
872.26141
871.95548
871.53489
871.19144
870.82441
870.44737
870.00726
869.61831
869.38474
869.18662
872.25967
872.21063
872.1016
871.91601
871.62933
871.22233
870.90337
870.55857
870.2149
869.88096
869.52736
869.2408
869.10089
871.94135
871.89688
871.79449
871.62404
871.3614
871.02048
870.71728
870.37357
870.06261
869.7627
869.47709
869.23696
869.09836
871.77439
871.72773
871.62392
871.45482
871.17891
870.85458
870.54885
870.24709
869.97183
869.69797
869.45833
869.26613
869.12287
)
;
        Tnbr            T;
        thicknessLayers List<scalar> 0();
        kappaLayers     List<scalar> 0();
        kappaMethod     fluidThermo;
        kappa           none;
        alphaAni        none;
        alpha           none;
        field           T;
    }
    bottomWater_to_heater
    {
        type            compressible::turbulentTemperatureCoupledBaffleMixed;
        refValue        nonuniform List<scalar> 
92
(
728.08865
730.15088
734.17004
739.90854
718.76909
721.19831
725.9742
732.80317
699.25804
702.40437
708.73465
718.02647
345.48507
342.71596
342.77093
345.58445
421.80439
418.41295
418.6887
422.44172
486.77993
483.94375
484.7353
488.71187
541.74992
540.03175
542.02278
546.76565
667.53388
586.93696
671.48705
587.13956
679.9775
591.80381
693.64451
599.54232
345.48507
345.58445
421.80439
422.44172
486.77993
488.71187
541.74992
546.76565
586.93696
599.54232
345.40081
345.40081
342.65102
342.70028
345.47892
345.47892
421.68531
421.68531
418.30325
418.55907
422.25893
422.25893
486.65179
486.65179
483.8168
484.58358
488.50046
488.50046
541.62247
541.62247
539.89507
541.85428
546.53024
546.53024
586.77421
586.77421
586.96499
591.5916
599.25782
599.25782
666.33355
670.25591
678.69422
692.32509
697.33031
700.46338
706.75963
716.05783
716.32291
718.76227
723.55192
730.42255
725.35219
727.43787
731.48893
737.28065
)
;
        refGradient     uniform 0;
        valueFraction   nonuniform List<scalar> 
92
(
0.99248593
0.99248593
0.99248593
0.99248593
0.99248593
0.99248593
0.99248593
0.99248593
0.99248593
0.99248593
0.99248593
0.99248593
0.99248593
0.99248593
0.99248593
0.99248593
0.99248593
0.99248593
0.99248593
0.99248593
0.99248593
0.99248593
0.99248593
0.99248593
0.99248593
0.99248593
0.99248593
0.99248593
0.99248593
0.99248593
0.99248593
0.99248593
0.99248593
0.99248593
0.99248593
0.99248593
0.99248593
0.99248593
0.99248593
0.99248593
0.99248593
0.99248593
0.99248593
0.99248593
0.99248593
0.99248593
0.99248593
0.99248593
0.99248593
0.99248593
0.99248593
0.99248593
0.99248593
0.99248593
0.99248593
0.99248593
0.99248593
0.99248593
0.99248593
0.99248593
0.99248593
0.99248593
0.99248593
0.99248593
0.99248593
0.99248593
0.99248593
0.99248593
0.99248593
0.99248593
0.99248593
0.99248593
0.99248593
0.99248593
0.99248593
0.99248593
0.99248593
0.99248593
0.99248593
0.99248593
0.99248593
0.99248593
0.99248593
0.99248593
0.99248593
0.99248593
0.99248593
0.99248593
0.99248593
0.99248593
0.99248593
0.99248593
)
;
        value           nonuniform List<scalar> 
92
(
729.81173
731.84302
735.81094
741.52112
720.51266
722.90183
727.65272
734.44118
701.12133
704.22398
710.53379
719.75566
350.00758
347.19034
347.23785
350.04961
425.73445
422.33162
422.60546
426.33373
490.22069
487.39164
488.16176
492.12595
544.76743
543.0761
545.00701
549.7648
669.56688
589.57557
673.48601
589.77231
681.92111
594.40996
695.53857
602.14347
349.96796
350.00923
425.73593
426.33059
490.20744
492.12307
544.74843
549.7432
589.56454
602.12937
349.87064
349.74357
347.02438
347.06893
349.8385
349.8458
425.60192
425.51128
422.13232
422.36336
426.07504
426.04093
490.06267
490.0107
487.17314
487.90734
491.83973
491.80669
544.6045
544.59888
542.86168
544.74798
549.43744
549.41388
589.39355
589.3893
589.55817
594.1253
601.76174
601.75587
668.35083
672.22323
680.57342
694.12382
699.14798
702.24228
708.46376
717.69616
718.00689
720.40771
725.15631
731.98725
726.98309
729.04882
733.03395
738.78189
)
;
        Tnbr            T;
        thicknessLayers List<scalar> 0();
        kappaLayers     List<scalar> 0();
        kappaMethod     fluidThermo;
        kappa           none;
        alphaAni        none;
        alpha           none;
        field           T;
    }
}


// ************************************************************************* //
