/*--------------------------------*- C++ -*----------------------------------*\
| =========                 |                                                 |
| \\      /  F ield         | OpenFOAM: The Open Source CFD Toolbox           |
|  \\    /   O peration     | Version:  v2012                                 |
|   \\  /    A nd           | Website:  www.openfoam.com                      |
|    \\/     M anipulation  |                                                 |
\*---------------------------------------------------------------------------*/
FoamFile
{
    version     2.0;
    format      ascii;
    class       volVectorField;
    location    "370/bottomWater";
    object      U;
}
// * * * * * * * * * * * * * * * * * * * * * * * * * * * * * * * * * * * * * //

dimensions      [0 1 -1 0 0 0 0];


internalField   nonuniform List<vector> 
1460
(
(-0.0012657061 -0.015899651 0.0013863334)
(-0.003788032 -0.014859738 0.00098682759)
(-0.0056073735 -0.014210213 0.0012290671)
(-0.0048150693 -0.011913193 0.0014099554)
(-0.0029839287 -0.012118308 0.0015660649)
(-0.00068425293 -0.012552987 0.0005259696)
(0.0011564161 -0.012019199 0.0013166134)
(0.0023385324 -0.012874409 0.0010805043)
(0.0023156607 -0.018448669 0.0018075605)
(0.00015473155 -0.0197537 0.0030255927)
(-0.0025113716 -0.017430442 0.0033651642)
(-0.0034992913 -0.013708946 0.0021342278)
(-0.0012539564 -0.013168099 0.00088180159)
(0.0011588007 -0.011597662 0.0012926497)
(0.0017524193 -0.010748765 0.0016244827)
(0.0029838731 -0.013394238 0.0010261525)
(0.00063245708 -0.016896608 0.0008731116)
(-0.00045343608 -0.017051243 0.0013255565)
(-0.0023260259 -0.014664999 0.0011570759)
(-0.0039366226 -0.013846138 0.0013105388)
(-0.0030377564 -0.010899556 0.0014005441)
(-0.00070506238 -0.011714143 0.001308282)
(0.0013040997 -0.011203055 0.0015335873)
(0.0012179802 -0.0197193 0.0019602519)
(-0.002726477 -0.017122475 0.0017924426)
(-0.0015498597 -0.011690037 0.0015374395)
(0.00073670286 -0.012065109 0.00069625976)
(0.0031870226 -0.012408577 0.00010941426)
(0.0036923215 -0.016232049 0.00057620544)
(0.0018001791 -0.017055208 0.00080505879)
(-0.0026254761 0.017671215 0.00010813174)
(-0.0057128337 0.017389149 -0.00039520053)
(-0.0065144262 0.014373314 0.00087213815)
(-0.0028116841 0.0031675725 0.00012649851)
(-0.0026247643 0.001105082 0.0012465443)
(-2.1872146e-05 0.0024924515 0.00098542737)
(0.0017605086 0.0036280905 0.00054210885)
(0.0027323379 0.0075064029 -0.00035381917)
(0.0057848097 0.018875459 0.001940044)
(0.00038056102 0.020942435 -0.001168155)
(-0.0069548942 0.017437027 -0.0022100355)
(-0.0059509893 0.0069700698 -0.0013081638)
(-0.0037185806 -0.00087857142 -0.0017286982)
(-0.0017229793 0.0022982164 0.00016556765)
(-0.00073506993 0.00093941171 -1.6591611e-06)
(0.003671609 0.013880168 0.0017997372)
(0.0030869592 0.018380716 0.0019728714)
(-0.0019057571 0.018487404 0.00056327546)
(-0.0056178528 0.016993016 -0.00050440044)
(-0.0058515972 0.013526179 8.1662978e-06)
(-0.0022702275 0.00057487181 -9.6718443e-05)
(0.00033487543 0.0002603863 0.0011053263)
(0.0017689551 0.0027331079 0.00064012216)
(0.0027671169 0.019802094 0.0036325175)
(-0.0052753967 0.016990834 0.002958905)
(-0.0015508133 0.0009271875 0.00079405775)
(3.4989643e-05 0.0029303787 0.00021113318)
(0.0046339502 0.0049115029 -5.8592636e-05)
(0.0071074188 0.015767067 0.00016156282)
(0.0065606866 0.018588403 0.00022180602)
(0.0014200699 0.0030329719 0.00017369174)
(-0.00075939382 0.0025151286 -0.0015899871)
(0.0032069929 -0.014932394 -0.0034023944)
(-0.00027168053 -0.014749729 -0.0035017684)
(-0.0019101125 -0.013867383 -0.0015188771)
(-0.0012989432 -0.013637658 -0.001253849)
(-0.0012739819 -0.013520741 -0.002755747)
(-0.0008026346 -0.014720363 -0.0044194496)
(-0.0031327773 -0.011749404 -0.0011479958)
(0.00084181805 0.0095282997 -0.0013199878)
(-0.0029278679 0.0035827653 -0.0026700966)
(0.0030297949 -0.013529308 -0.0053678157)
(-0.0030558262 -0.015125438 -0.0051549545)
(-0.004504694 -0.013693332 -0.0030735782)
(-0.0045303797 -0.014242965 -0.001877175)
(-0.0042624811 -0.014158224 -0.0006817547)
(0.0010447575 -0.0032885689 -0.00050996172)
(0.0011386046 0.0028667684 0.0018143262)
(0.00052873482 0.0017409805 -0.00067161256)
(0.0032910672 -0.014537084 -0.001078388)
(0.00044619588 -0.014400782 -0.0019884557)
(0.00037115496 -0.013336825 -0.00094725808)
(-0.0018810426 -0.012825679 -0.0029786801)
(-0.0020566849 -0.013249905 -0.0010110469)
(0.00029237905 -0.011685799 -0.00029369972)
(0.0015745418 -0.013618632 -0.0013307466)
(-0.00081769807 -0.013020177 -0.0011556227)
(0.0025729877 -0.01418407 0.00026940161)
(-0.005666283 -0.015506043 0.00011146907)
(0.0046372006 0.0065562834 0.00020040682)
(0.0014715674 0.0092053153 0.00093247858)
(0.0030193381 0.0075894455 0.0015195665)
(0.0033751681 0.011821075 0.00046484992)
(-0.001994371 0.0050347085 0.00085498062)
(-0.00069841341 -0.0040256106 -0.00063344212)
(-0.00077275897 -0.00023292633 -0.00022497793)
(-0.0013003287 -0.00089496722 -0.0019112349)
(0.0029176646 0.0083058456 -0.0024091971)
(-0.0051630572 0.01265112 -0.0014060828)
(-0.0016180395 0.011250293 0.0014304056)
(0.0011724964 0.0083388349 0.00071951782)
(0.003293271 0.0098502967 -0.0017174901)
(-0.002349613 0.0097564112 -0.0016936082)
(-0.0028876676 0.0043055795 -0.0012790954)
(-0.00049469012 -0.002434968 -0.00095479189)
(-0.0029775176 0.0025095312 -0.0015812298)
(-0.00046009658 0.0091642516 -0.0011115168)
(0.0014063441 0.0092998719 0.0018893373)
(0.0037100113 0.007595227 0.0023716393)
(0.0032417627 0.010363323 0.0015930518)
(0.00031042392 -5.6111814e-05 2.5246144e-06)
(0.0012446694 -0.0018422523 -0.0018532341)
(0.0019946999 0.0034246745 -0.0027343283)
(0.0016717515 0.012141491 -0.0042656156)
(-0.0031573993 0.0084277606 -0.0030704566)
(0.0014919012 -0.0042499744 -0.0012291112)
(-0.003231234 -0.0034267722 -0.0010492575)
(0.0046230834 0.0061939271 -0.0018767035)
(-0.0050265478 0.011387171 -0.0015306373)
(-0.00073124047 0.0089050234 0.00011219719)
(0.0012301054 0.00098377287 0.0014647304)
(0.0022557061 -0.0020321612 0.00020292543)
(0.0035504474 -0.0055760789 -0.00041774149)
(0.0047202456 -0.010048332 0.00015420727)
(-0.00073436044 -0.010400667 -0.0031300725)
(-0.0030280203 -0.0082553731 -0.0036846742)
(-0.0045782102 -0.010072099 -0.0020901872)
(-0.0073638548 -0.0063674879 0.0006043969)
(-0.0051356799 0.00010977695 0.00056094352)
(-0.0016724733 0.0030878151 0.0012490477)
(0.0020756384 0.0017255057 0.00084960886)
(0.003853073 -0.002023746 0.00067791321)
(0.0040074632 -0.0036704405 0.00028641584)
(0.004758603 -0.008546553 -0.0019085874)
(0.0032879998 -0.010671567 -0.0019494242)
(-0.0043488747 -0.0098608119 -0.0012249878)
(-0.0028875701 -0.0041395817 -0.00084265056)
(0.00055912056 -0.00027508975 0.00096405402)
(0.0022549633 -0.0029291557 -0.00023209335)
(0.0039041057 -0.0088839007 -0.0016896045)
(0.0026825778 -0.010443927 -0.0023148539)
(-0.0016880014 -0.0096715335 -0.0049919272)
(-0.0028950613 -0.0071311321 -0.005297305)
(0.0014805537 -0.0020679003 -0.0033535715)
(0.0050631137 -0.0083077675 -0.0028309508)
(0.0041830835 -0.010109874 -0.0025921453)
(-0.0057907899 -0.0097303675 -0.0003886313)
(-0.0069282609 -0.0067474058 -8.3652973e-05)
(-0.0052822282 -0.0021053514 0.00021771049)
(-0.0016274557 0.0022016512 0.00090057587)
(-0.00097439603 -0.015600373 -4.0091423e-05)
(-0.002290463 -0.016707928 -0.0018161391)
(-0.0034325892 -0.016096473 -0.001095858)
(-0.0041356503 -0.015539685 0.00053011219)
(-0.0039850778 -0.015511652 0.0014342964)
(-0.00095016886 -0.0119741 0.001655322)
(0.0013285365 -0.016670546 0.00076925182)
(0.00052019036 -0.017979868 0.00038553062)
(0.0002052604 -0.016915526 -0.0014601413)
(-0.00026819602 -0.018269782 -0.0014508845)
(0.0018469835 -0.018605508 -0.00049374413)
(0.0019878351 -0.01682489 0.0013340702)
(0.0012442632 -0.01748424 0.0034430789)
(0.0017197263 -0.016335617 0.0023945398)
(0.0019840598 -0.01581763 0.001927786)
(0.0016787401 -0.016221865 -0.0010079589)
(0.00086136932 -0.016790315 -0.001738627)
(-8.4746623e-05 -0.015496928 -0.002186183)
(-0.0003605055 -0.015564361 -0.0029879673)
(-0.001580159 -0.01752412 -0.0010289164)
(-0.0029786798 -0.01460973 0.0014563759)
(-0.0010996895 -0.011637337 0.0022102286)
(-0.00027768523 -0.015300727 0.0022481559)
(-0.0012348882 -0.018989582 0.0015815158)
(-0.002379085 -0.017039346 0.0013040942)
(-0.0027790095 -0.01552244 0.00141236)
(-0.0030281133 -0.011962285 0.00052290281)
(0.0024768826 -0.012300669 0.00011983253)
(0.0037903008 -0.015766263 0.001231272)
(0.0016844438 -0.016976386 0.0017006374)
(-0.0027783735 0.017569726 -0.0032167408)
(-0.0016737327 0.017801593 -0.004779155)
(-0.00090362741 0.018144552 -0.0010920367)
(-0.0035429143 0.016704047 0.0051499107)
(-0.0039566441 0.0144833 0.0059428349)
(7.4134044e-05 0.0033816928 0.0018687455)
(0.0037627558 0.016763197 0.005166023)
(0.0032245803 0.018925398 0.0040287874)
(-0.002427583 0.018770009 -0.002431774)
(-0.0033994036 0.018167404 -0.006010309)
(-8.7100523e-05 0.018468287 -0.005581053)
(-0.0015471437 0.018733291 0.0025611291)
(-0.0023301815 0.017992937 0.0061312925)
(-0.00038123443 0.016454746 0.0062082057)
(0.001354654 0.016788303 0.0048705952)
(0.0019183073 0.018326958 -0.0014253043)
(-0.0010301746 0.01838993 -0.0031344823)
(-0.0041816398 0.017567794 -0.0044378627)
(-0.0038518628 0.01704459 -0.004039246)
(-0.0024032379 0.019433991 -0.00066660269)
(-0.00164997 0.014972951 0.0041259908)
(0.00188221 0.0057144792 0.0030979806)
(0.0040281787 0.01524262 0.0051901549)
(-0.0016722413 0.020193219 0.0037533387)
(-0.006240571 0.018567171 0.0020169852)
(-0.0063663855 0.015464202 0.0015081982)
(-0.0029582601 0.003798668 -0.00015531582)
(0.0018578571 -0.00075556489 -0.00090775783)
(0.0065644418 0.01523313 -0.00012458649)
(0.0056772363 0.018538879 0.00030919445)
(-0.00043574842 -0.00040311416 -0.00042141937)
(0.0019060977 -0.015702428 0.0042567378)
(-0.0011318655 -0.0080004617 0.0019280516)
(-0.0023555795 -0.001560635 0.0031442518)
(0.0043729518 -0.014573984 0.00045382929)
(-0.0013262683 -0.014536678 -0.0033558773)
(-0.0051928063 -0.012536828 -0.0010185817)
(0.0021311236 -0.00090306907 0.0020179979)
(2.1076697e-05 0.0039685571 0.00073689636)
(-0.00042941676 -0.017876383 0.0027315196)
(-0.00092672559 -0.017567659 0.0013621043)
(-0.0018970967 -0.0053484128 -0.0023334616)
(-0.0012947303 -0.016030716 -0.0036845277)
(-0.002432043 -0.016766308 -0.0033232581)
(-0.0023726568 -0.011612428 -0.00091687617)
(-0.00031417981 0.00089222248 0.0001333983)
(3.2996988e-05 0.0033486129 -0.0016983526)
(-0.00045069765 0.0015079035 -0.00052880553)
(0.0023373265 -0.01355632 0.0026890959)
(-0.0013185635 -0.017297984 0.0010931518)
(0.002799712 -0.015603705 7.5237414e-05)
(-0.00032919556 -0.013887692 -0.0018776729)
(-0.0031709929 -0.0027274451 0.00020382047)
(-0.0014198852 0.0071221281 0.0025269873)
(-0.0024548402 0.0018262734 0.002029939)
(0.00050707031 -0.012792436 0.0016395177)
(0.00087590041 -0.014069328 -0.00087658664)
(-0.00015034269 -0.014852211 -0.00068287075)
(-0.0062857473 -0.014321069 -0.00047838238)
(0.0034590988 0.0051657597 0.0003945146)
(0.0032980776 0.0088109289 0.00090469954)
(0.0033393645 0.012682833 0.0028975158)
(-0.0038460378 0.010020721 0.00049260088)
(0.0023764111 -0.00048330256 0.0016329707)
(0.0038814518 0.0059964366 0.00039473315)
(-0.0023302142 0.011479836 -0.0023281803)
(-0.0038717029 0.0076295302 -0.0025478434)
(-0.003093735 -0.00021532072 0.00024745725)
(0.002972677 0.0092698643 -0.00038095488)
(0.0048353311 0.013274882 0.0014105294)
(-0.0052159025 0.012337491 -0.0014691132)
(-0.0040218811 0.0078586149 -0.0029898335)
(-0.0019093748 0.0067193871 -0.001378474)
(-0.005076509 0.012159974 -0.0029835266)
(-0.0057244443 0.009524363 -0.00032102493)
(-0.0029245616 0.0076595476 0.0018537653)
(0.00077032813 0.009965342 -0.00069295077)
(0.0032930599 0.0082306092 0.0016102925)
(0.005389573 0.011698121 0.0024236791)
(0.00014053451 0.013498646 0.00076300443)
(0.0004651501 0.0036151938 0.00075863286)
(-0.0021750465 0.0097476381 -0.000907011)
(-0.0044642348 0.0087558974 -0.0011974378)
(-0.0013919046 0.010555579 0.0010833349)
(0.00045114394 0.0082890508 0.0019692774)
(0.00067390081 0.0046088959 0.0012592389)
(-0.0024912599 -0.0033788616 -0.0015606268)
(0.0013170731 0.0061145431 -0.0022749642)
(-0.0045807328 0.0111632 -0.0012818073)
(-0.0016720693 0.0082038422 0.00041010851)
(-0.0019465121 -0.0065403205 0.0040433037)
(0.0013232521 0.00014395198 0.003070542)
(0.0037159436 -0.006988654 0.0020514007)
(0.0015230393 -0.010460088 -0.00076752818)
(-0.0044986049 -0.0070238478 -0.0042329062)
(-0.0018534672 0.0010173973 -0.0038936446)
(0.0033087418 -0.0088617882 -0.0051445055)
(-0.0032110034 -0.010852446 0.0013558732)
(-0.0048909535 -0.0060278922 0.0033611321)
(0.00039185015 -0.0012591675 0.0041754791)
(0.00041776548 -0.0016299086 0.0022428942)
(0.0042154418 -0.0086070465 0.0043618701)
(0.00028927643 -0.013424538 0.0033002513)
(-0.0010891265 -0.0074313909 -0.0027377057)
(0.0010796817 -0.012591647 -0.0018719507)
(-0.0044676984 -0.0074143139 -0.0010000285)
(-0.0015267685 -0.00028440779 -0.0003915506)
(0.00015047907 -0.0019110608 3.6520129e-05)
(0.0018489573 -0.0017303447 0.001323957)
(0.003868401 -0.0091462733 0.00094114097)
(-0.00026025867 -0.010899561 -0.0027159439)
(-0.0034585582 -0.0053452947 -0.0034951157)
(-0.0023834503 -0.00027044158 -0.0036652571)
(0.00097187554 0.0025727827 0.00040209583)
(0.0039420878 -0.00065056457 -0.00022737427)
(0.0057798305 -0.0071562217 -0.0017393668)
(-0.0010847413 -0.011198745 -0.0015913429)
(-0.0060805052 -0.01087053 -0.0012755909)
(-0.0046352658 -0.0070988936 0.00031994631)
(-0.0023713815 0.00032607581 0.00098669896)
(-0.0029317651 -0.014886675 9.5850499e-06)
(-0.00096067004 -0.01111472 -4.4514119e-07)
(0.00094417623 -0.012303161 -0.0014142665)
(0.0010214589 -0.015589136 -0.0033486016)
(-0.00072223565 -0.017154507 -0.0029808279)
(-0.00080775847 -0.018703413 -0.0020999794)
(-0.0017548766 -0.017090809 -0.0029400343)
(-0.0030750157 -0.01598885 -0.0027791453)
(-0.0030502247 -0.014215668 -0.0028131992)
(-0.0019072805 -0.011697456 -0.0017077256)
(0.0020389825 -0.01170057 -0.0020648878)
(0.0041021906 -0.013939329 -0.0023466612)
(0.003509525 -0.016190177 -0.0016078568)
(0.0031583844 -0.016571777 -0.0019613764)
(0.0016497959 -0.016637373 -0.0025282034)
(0.0017152877 -0.016955423 -0.0032584585)
(-0.00033316671 -0.017203408 -0.0021377013)
(-0.0026378279 -0.015387425 -0.0030857772)
(0.00030152555 -0.011643827 -0.00090032535)
(0.0025145573 -0.012523715 -0.00098235707)
(0.0023138504 -0.015946909 -0.0011763459)
(0.00045460341 -0.015891485 0.0011205423)
(-0.00037029592 -0.018066124 0.00033683703)
(-0.0012958923 -0.017470517 -0.00064991475)
(-0.0015266625 -0.016267921 -0.00075181197)
(-0.0016552747 -0.015790283 -0.00020740965)
(-0.0010939939 -0.011558172 -0.00022990029)
(0.0026755974 -0.011748918 0.00010258476)
(0.0036403211 -0.01483644 0.0017374457)
(0.0014926515 -0.016371185 0.0028056609)
(-0.0043092265 0.016326589 -0.0021081075)
(0.0016884267 -0.00047344898 0.00063047272)
(0.0016155983 0.0045846886 0.00062893924)
(0.0063666462 0.015856039 -0.0026489059)
(0.0047052609 0.018763161 -0.00075869576)
(0.00092652404 0.019674995 8.5829523e-05)
(-0.0054723795 0.018952398 -0.0023437347)
(-0.0065232927 0.016872169 -0.0040609203)
(-0.0050184257 0.010709115 -0.003084958)
(-0.0027812126 0.00044711818 -0.001360396)
(-0.00085213159 0.00021815371 -0.0015860898)
(0.0023030971 0.01306541 -0.0029070032)
(0.0038026172 0.018039536 -0.00071917917)
(0.0039470953 0.018754787 0.00081215334)
(-0.001548772 0.018416157 -0.0034642016)
(0.00011249311 0.017918939 -0.0060325535)
(-0.0022704348 0.018747432 -0.0050404519)
(-0.0048886386 0.014126768 -0.0060527837)
(0.00058633272 -0.0020907649 -2.7408803e-05)
(0.0019230865 0.0064657495 0.00036291006)
(0.0053374897 0.016845575 0.0002988273)
(0.0045015163 0.017343002 0.0014766904)
(5.8590051e-05 0.019116299 -0.00066428376)
(-0.0050929669 0.018617511 -0.0041613341)
(-0.0055965647 0.017305673 -0.0036573894)
(-0.0048044329 0.013597339 -0.0025416789)
(-0.001687151 0.0035835115 -0.0014311046)
(0.0022728996 0.00023821824 -0.0027937283)
(0.0065360925 0.014274453 -0.0018981374)
(0.0056600425 0.017923139 -0.00063234462)
(0.0036534475 -0.010078758 -0.0001571694)
(0.0041534504 -0.014833287 0.0021457081)
(-0.0036860635 -0.013824049 0.0056523663)
(-0.0015185131 -0.0088214637 0.0039281958)
(0.0002623266 0.0028709755 0.0016279095)
(-0.00023993004 0.0064347164 -0.00086328945)
(-0.0018921103 0.0041877518 -0.0012841899)
(0.0017872766 -0.0075387902 0.0029096646)
(0.0018586032 -0.014899497 0.0045950405)
(-0.00089440816 -0.014509219 0.0020222936)
(-0.0025881972 -0.014359163 0.0018803231)
(-0.0025810785 -0.014218211 0.0028570889)
(-0.00047464717 -0.011355578 0.0027989615)
(0.0024905807 0.003082767 0.0015233419)
(-0.00082473083 0.0012623108 -0.0018107039)
(0.0025456562 -0.013360708 0.0017536765)
(0.0010362302 -0.0038816259 -0.0011605186)
(0.0052284686 -0.014259147 0.0023596781)
(0.00247987 -0.015104196 0.0024035657)
(-0.0034795154 -0.013771234 0.0032312718)
(-0.0011264841 -0.0083312253 0.003207733)
(-0.00050141435 0.0034614678 -1.5991846e-06)
(-0.00099329867 0.0069996438 -0.00087838356)
(-0.001032986 0.0046019727 -0.0020043362)
(0.0019027302 -0.005825084 0.0013451203)
(0.0014784329 -0.015373574 0.0034560897)
(0.0012901109 -0.013565773 -3.9499698e-05)
(-4.6529139e-05 -0.014956114 -0.0036580351)
(-0.0055062384 -0.014409635 -0.0030000036)
(0.0032318449 0.0046716783 -0.0008221389)
(6.1424217e-05 0.0016613053 0.0017957477)
(0.0012899435 0.010336701 -0.0011152179)
(-0.0020548686 0.010492837 0.003113696)
(-0.0029499778 0.0087748492 0.0027342135)
(-0.003077969 0.0081433985 0.0015915903)
(-0.00099448802 0.010826559 -0.0021352435)
(0.00096270025 0.0088004695 -0.0023348338)
(0.0029655982 0.0087309022 0.0024284294)
(-0.00031492471 0.012281541 0.0024620157)
(0.0012071306 0.00062293153 -0.00016664613)
(-0.00074982874 -0.00026159548 -2.9173613e-05)
(-0.0010696446 0.00065248945 0.00015065971)
(-0.0037425363 0.0058316056 0.00037892564)
(-9.8602185e-05 0.0087685282 -0.001251687)
(0.0027038434 0.0077405186 -0.00022773687)
(0.0042764566 0.012457737 0.00066440098)
(0.0022823923 0.0090043697 0.00051719445)
(0.0021518713 0.011198597 0.0013622474)
(-0.0022324933 0.0077476993 -0.0016061257)
(-0.0014907655 0.0052040917 0.0014095666)
(-0.0042146711 0.0087563663 0.0015604898)
(-0.0034759487 0.008993729 -0.00046523749)
(-0.0015059104 0.010998807 -0.001468913)
(0.0018463902 0.0094397218 -0.00085778025)
(0.0045447494 0.008770024 0.0014291451)
(0.0017164085 0.010338073 0.00091642321)
(-0.00039718771 -0.0023149991 -0.0011198976)
(0.000957408 0.0062735402 -0.0019660809)
(-0.0040658173 0.010841662 -0.0008948021)
(-0.0017468068 0.0081025776 -0.00011706677)
(-0.0035070948 -0.010288638 0.0043296937)
(-0.003481495 -0.0098310691 0.0042573244)
(-0.0040828761 -0.010131896 0.0007152908)
(-0.0044074843 -0.0045719456 -0.0013554391)
(-0.0040936062 0.0011013097 -0.00095936098)
(-0.0014380713 0.0043172652 -0.0024487377)
(0.002628258 0.00094793278 -0.0028355014)
(0.0034544245 -0.0066928737 -0.0025064192)
(0.0045186027 -0.012373876 -0.00034580399)
(0.003639935 -0.0098846838 0.0034267918)
(0.00048142964 -0.0082690813 0.0047787394)
(-0.00034812846 -0.011122076 0.00030789184)
(-0.0028941794 -0.010167013 -0.0017746045)
(-0.0003336535 -0.0047876199 -5.6095236e-05)
(-0.0017714043 -0.0087743937 -0.001348178)
(-0.0018465318 -0.0068439702 0.0022381509)
(-0.0012113021 -0.0019570459 0.0019595654)
(0.00090035105 -0.0009553472 0.003006292)
(0.0011566233 -0.009486228 0.0048734708)
(-0.0034328781 -0.0099424246 0.0031279433)
(-0.0052799649 -0.003256956 0.00026027835)
(-0.0038374379 0.0016598981 0.00018040241)
(-0.0012912146 0.0046212895 -0.0016522625)
(0.0032762928 0.0014043366 -9.5675434e-06)
(0.0050065185 -0.0017089683 -6.6734848e-05)
(0.0069214357 -0.0057220694 -0.00040310976)
(0.0030661952 -0.009842504 -0.0013030681)
(-0.0058076128 -0.010422709 -0.001866775)
(-0.0035740851 -0.0062161856 -0.0011717019)
(-0.0021058097 4.1539721e-05 -0.00037076219)
(-0.0025665596 -0.015350611 0.0014369064)
(-0.0018528682 -0.01092038 0.0017722747)
(-0.0003216685 -0.013081617 0.0017063146)
(0.0019258725 -0.012790119 0.00054789134)
(0.0018197147 -0.016051541 -0.0009640189)
(0.00041486944 -0.019743163 -0.0016954812)
(-0.0028074212 -0.016902919 -0.0016359194)
(-0.0036796893 -0.01362333 -0.0013683746)
(-0.0025188648 -0.013055818 -0.0010570022)
(0.00011343928 -0.013004424 -0.00028575608)
(0.0021104606 -0.012973522 -0.00079153512)
(0.0042898173 -0.011695675 -0.00043918132)
(0.0047722187 -0.01508272 -0.0016139957)
(0.0035533022 -0.016320738 -0.0019268885)
(-0.0019405303 -0.015754165 -0.002117664)
(0.0019850228 -0.011402689 -0.0015984941)
(-0.0009497533 -0.01501916 -0.0015175673)
(-0.0023091414 -0.013093419 -0.002551519)
(0.00073332646 -0.012316119 0.00014334463)
(0.0025733412 -0.011751666 0.00092768767)
(0.0035527304 -0.014550814 0.00016506868)
(0.0026044371 -0.016118066 0.00049382452)
(0.00061779359 -0.017564361 0.00028167607)
(-0.0012330896 -0.017098606 -0.0015634172)
(-5.6706029e-05 -0.013293849 -0.0020593822)
(0.00060223504 -0.011982586 0.00082810607)
(0.0026347944 -0.01148066 0.0010083407)
(0.0039126019 -0.011309547 0.0019932935)
(0.0036548189 -0.01377101 0.002906984)
(0.0011885004 -0.015386314 0.0036303549)
(-0.0032867141 0.016352679 0.0006191348)
(0.00060291125 0.0015852654 -0.00019768455)
(0.0025963474 0.00064729549 -0.000306533)
(0.0038569134 0.0013227499 -4.9443794e-05)
(0.0079802746 0.014691921 -0.0028158534)
(0.0069489234 0.020242403 -0.0032757232)
(-0.0070562195 0.017299914 -0.00071442452)
(-0.0052436081 0.0079261589 -0.00059471423)
(-0.0045628574 0.0020475296 -0.00046595365)
(-0.00084822594 0.001408136 -9.1030976e-05)
(0.0014749699 0.00032523974 -0.00081242098)
(0.0033482008 0.00067096798 0.001645886)
(0.0057805629 0.013532753 0.0020397432)
(0.0019219975 0.018010203 -0.00024372541)
(-0.0045873824 0.0124829 -0.0016561311)
(0.00069455318 0.0028343092 -0.00050368363)
(-0.0022977108 0.015906403 -0.0039850125)
(-0.0020136826 0.0036362025 -0.0045589003)
(-0.00098164676 0.00018968665 -0.0011369702)
(0.0019726681 0.0021977332 0.00037892707)
(0.0051618147 0.012207532 -0.0019683948)
(0.0067360228 0.017352911 -0.0031465479)
(0.0022646854 0.019088557 -0.0034068847)
(-0.0051637256 0.016546371 -0.0068504118)
(-0.0039195334 0.0104801 -0.004221118)
(-0.0015902937 0.0031681144 0.0001163757)
(0.0016628096 0.0031133486 -0.0003867252)
(0.0040135287 0.0039924891 -0.0015258172)
(0.0064293044 0.014405785 -0.00034842059)
(0.0049989573 0.017185189 0.00054101661)
(0.0035852683 -0.012492257 6.8314865e-08)
(0.0051744375 -0.013435118 -0.0022516558)
(0.0042090627 -0.014908077 -0.0022334357)
(-0.0021325192 -0.014956896 0.0021520875)
(-0.0049467269 -0.011858842 0.0031490225)
(0.0038212244 0.0075816223 -0.0022280377)
(-0.0027112998 0.0034177963 -0.00020407592)
(0.0044810722 -0.014272968 0.00075809313)
(-0.0023917931 -0.014410875 0.00084915412)
(0.00023980537 -0.013747036 0.00067230204)
(-0.00013166191 -0.013366842 -0.0012345297)
(0.00052024266 -0.014317231 0.0023130067)
(-0.0031328876 -0.014818549 0.00012381141)
(0.00072794903 0.0052057424 0.00056531516)
(0.00074155578 -0.015160673 0.0035610148)
(-0.0014615556 -0.013749893 0.0016257238)
(0.0019707705 -0.014255445 -0.00049540766)
(0.0027478188 -0.014456531 -0.0023387335)
(-0.001652988 -0.013036497 -0.0018257047)
(-0.0014175889 -0.013707407 0.00072869377)
(-0.003478971 -0.014285959 0.0030509235)
(7.0227471e-05 -0.003881073 -0.0018648169)
(0.0019464399 0.0065975444 -0.00078810095)
(0.0014119258 -0.001496288 -0.0010075482)
(0.0050367302 -0.01262744 0.002989765)
(0.0016877348 -0.014977168 0.0025207156)
(0.00025914144 -0.013228398 7.9081407e-05)
(0.001153044 -0.014361949 -0.0043129776)
(-0.0031831194 -0.013859022 -0.0038693813)
(0.0023211195 0.0038695404 -0.00025288616)
(0.00023604477 -0.0012440312 0.0031043691)
(0.00029910985 -0.00051930336 0.0020134967)
(0.00092053285 0.011567231 0.0021079146)
(-0.0014096069 0.011867508 0.0021071896)
(-0.004646635 0.010868791 0.0030045433)
(-0.00047665237 0.010547818 -0.00040763719)
(0.0011590348 0.0083832652 -0.00035487168)
(0.0029101785 0.010320417 0.0042926033)
(-0.0048395197 0.0068367599 0.00040554752)
(0.0022883127 -0.0051763328 0.00032679857)
(-0.0025274578 -0.0043496105 -0.0022299768)
(0.0034322297 0.0054583176 0.0018725476)
(-0.0037497567 0.01156276 -0.00071356803)
(-0.00021319532 0.0084859175 0.0008245521)
(0.001729303 0.012640095 0.0059328416)
(-0.00123903 -0.0013692441 0.00019726034)
(0.00059938085 0.0045724449 0.0020456199)
(-0.00047406072 0.006565307 -0.0030366384)
(-0.0021844063 -0.00012553549 0.0026565032)
(-0.0011774307 0.0044493671 0.0023374574)
(-0.0025991871 0.010775855 0.0019832793)
(-0.0037247595 0.0082144363 0.00172208)
(0.00083967226 0.0099984438 -0.00030742092)
(0.0037782298 0.00768304 0.001159168)
(0.0047009989 0.0098568341 0.0012055827)
(0.0017592165 0.0098743557 -1.5138264e-05)
(0.0015712234 -0.0017406041 0.00010230403)
(0.0023863542 0.0033368622 -0.00055522987)
(-0.0025837259 0.011241025 -0.0022305127)
(-0.0019429066 0.008253119 0.00049300082)
(-0.0024427868 -0.011151131 0.0033354426)
(-0.0053481644 -0.0097292702 0.003956576)
(-0.0061942883 -0.0074060728 0.003372464)
(-0.0045880338 -0.0044524808 0.0030681613)
(-0.0042842692 -0.004417869 0.0024840309)
(-0.0014557392 0.0020486863 0.0010854365)
(0.0021689286 0.0012551251 -0.0014657947)
(0.0045674958 -0.003021579 0.0001234532)
(0.0058386358 -0.0081168872 0.00065625045)
(0.0037890062 -0.010878977 -0.00016665728)
(-0.0045534263 -0.010072892 -0.0040287082)
(-0.0044770448 -0.0073415305 -0.0045628988)
(-0.0030207894 -0.0035577 -0.0027939053)
(-3.4566605e-05 0.00040292422 -0.00063679908)
(0.0036129232 -0.0051508316 0.00013916648)
(0.0028355709 -0.0086323168 0.002072037)
(-0.0017140113 -0.0098377534 0.0036101037)
(0.00086130874 -0.0084385451 0.0056187927)
(-0.0026853973 -0.011050821 0.0052322556)
(-0.0059924054 -0.0094831202 0.0037850212)
(-0.0050938535 -0.0055727172 0.002342724)
(-0.0035842387 -0.0027287945 0.0020042341)
(0.00022809126 0.0027265899 0.0017276503)
(0.0034107831 -0.0021591855 0.0022828559)
(0.0048373733 -0.0043410679 0.0023516079)
(0.0067549897 -0.0081651814 0.0032952821)
(0.0043842519 -0.010561873 0.0021597861)
(-0.0053561142 -0.0084505434 0.00082819086)
(-0.0033354629 -0.0034256451 -6.2762077e-05)
(-0.0018527806 0.00014033019 0.00088576139)
(-0.00094579729 -0.017698204 0.0022511776)
(-0.0015011885 -0.015149087 0.003481652)
(-0.002642987 -0.014196942 0.0035763796)
(-0.0020430218 -0.012004893 0.0016140852)
(-0.00018736865 -0.012114416 -0.0012215027)
(0.00067759492 -0.019856726 0.00010700651)
(-0.0018131977 -0.019092128 0.00011812647)
(-0.0032696685 -0.017974695 0.00022751746)
(-0.0021245583 -0.012044194 -3.6881087e-05)
(0.0013016348 -0.012310193 0.0018609888)
(0.0033971301 -0.011806545 0.0024052097)
(0.0038004048 -0.014702574 0.0024365384)
(0.0021497786 -0.016490617 0.00087389332)
(0.0018753235 -0.011520022 0.00071429017)
(0.0020527965 -0.016091121 0.0025558924)
(-0.0013308063 -0.014851031 0.0026504601)
(0.00078718116 -0.011414079 2.3797897e-05)
(0.0019617092 -0.018304817 0.0012343699)
(-0.0014365453 -0.01787211 0.00085382437)
(-0.0024595666 -0.013768221 -0.0014340705)
(0.00039723726 -0.012767692 -0.0014586207)
(0.0027102803 -0.011552091 0.0023116025)
(0.0038495107 -0.011104814 0.0026372784)
(0.0044738237 -0.012499639 0.0033894392)
(0.0029982228 -0.013890032 0.0034882689)
(0.00035465978 -0.015621682 0.0041264754)
(-0.00095011904 0.018628307 0.003496611)
(0.0010964337 0.015187555 0.0047566963)
(-0.0013315441 0.014175209 0.0054303163)
(0.0031050424 0.005947571 -0.00017424627)
(0.0041853905 0.0056734247 -0.0033606224)
(0.0079086679 0.018005194 -0.0039952246)
(-0.0048592587 0.020280899 -0.00074424382)
(-0.0075994282 0.015763285 -0.00059240729)
(-0.0029504559 0.0014061505 -0.00078394696)
(0.00052827975 0.0010204203 0.00046111988)
(0.0037220431 0.0018850071 0.0011465635)
(0.005955543 0.012982341 0.0034464254)
(0.0056909308 0.017724789 0.0035891998)
(0.00040587787 -0.001353055 -0.00041106392)
(0.0024260201 0.016000904 0.0038760384)
(-0.00057677509 0.013312859 0.0011828719)
(0.0022933899 0.00030589683 -0.0014423136)
(0.0072387237 0.016192315 -0.00203839)
(-0.0027190872 0.018277891 -0.0035303681)
(-0.0042443045 0.0064843644 -0.0054530817)
(-0.0018488954 -0.0001562346 -0.003519956)
(0.0015089845 0.0044226576 -3.413663e-05)
(0.0028847916 0.0035436432 3.2260777e-05)
(0.0056102905 0.012090461 0.0012053793)
(0.0052274658 0.015995633 0.0017766111)
(0.0027077641 0.017445591 0.00099173695)
(-7.4803784e-06 -0.017507831 0.0022956822)
(0.0023072989 -0.0153131 -0.0023374541)
(0.0034829415 -0.014793328 -0.002078081)
(0.0052972361 -0.01409711 -0.0024955342)
(-0.00054980461 -0.014966969 -0.0031270389)
(0.0026156891 -0.0013300051 -0.0030383218)
(-0.0025695858 0.0092632541 -0.00036243162)
(0.0036888779 -0.016557676 -0.0046101093)
(-0.00019775815 -0.014311986 -0.0024275341)
(0.0005159433 -0.013856029 -0.0023451852)
(0.00068846384 -0.014270323 -0.0020413077)
(-0.0035024389 -0.013539353 -0.0044677581)
(0.0032185282 0.0047040066 0.00040081621)
(-0.0030270962 -0.013515226 -2.790353e-05)
(-0.0027886469 -0.013567199 0.00049734377)
(0.0046134153 -0.013519417 -0.0022643792)
(0.0017923123 -0.015911847 -0.0014074941)
(-0.0026820622 -0.01425306 -0.0026062423)
(0.00072267014 0.0034350598 -0.0028345047)
(0.004330946 -0.012994981 -0.0025779604)
(-0.001946256 -0.015051535 -0.0021394553)
(-0.0023344776 -0.013084949 -0.0023100225)
(-7.6021088e-05 -0.014122654 -0.0017638264)
(0.00099145561 -0.013703779 -0.0041818861)
(0.00080211855 -0.0070851796 -0.0026900819)
(0.00082345861 0.0035241349 -7.8622878e-05)
(-0.00080315975 0.0098985071 0.0032498701)
(-0.00023149867 -0.0002695944 -0.0018906413)
(-0.0015630654 0.00078210465 0.00013344603)
(-0.00055703811 0.0041608571 -0.00097713297)
(-0.0019590057 0.0084173062 -0.0031000852)
(-0.0028740737 0.0085651772 0.001827354)
(0.00055630275 0.011190616 -0.00053808099)
(0.0036836009 0.013100539 0.0025686397)
(-0.0022384737 0.00044301438 -0.001711557)
(0.00063448274 -0.0040051489 -0.002086488)