/*--------------------------------*- C++ -*----------------------------------*\
| =========                 |                                                 |
| \\      /  F ield         | OpenFOAM: The Open Source CFD Toolbox           |
|  \\    /   O peration     | Version:  v2012                                 |
|   \\  /    A nd           | Website:  www.openfoam.com                      |
|    \\/     M anipulation  |                                                 |
\*---------------------------------------------------------------------------*/
FoamFile
{
    version     2.0;
    format      ascii;
    class       volScalarField;
    location    "390/bottomWater";
    object      p;
}
// * * * * * * * * * * * * * * * * * * * * * * * * * * * * * * * * * * * * * //

dimensions      [1 -1 -2 0 0 0 0];


internalField   nonuniform List<scalar> 
1460
(
353.44703
353.4494
353.45226
353.45007
353.44874
353.44466
353.45041
353.4445
353.44573
353.45094
353.45804
353.46304
353.46978
353.46721
353.46211
353.45642
353.46391
353.47533
353.4755
353.47565
353.47595
353.47374
353.47573
353.47936
353.48297
353.48538
353.47478
353.47655
353.4738
353.4774
274.44524
274.47893
274.49586
274.48603
274.45353
274.42506
274.41676
274.41531
274.4267
274.45018
274.46468
274.47786
274.46321
274.41924
274.41135
274.40792
274.44972
274.48109
274.47504
274.47081
274.44139
274.40894
274.38678
274.42237
274.45845
274.46219
274.42508
274.4167
274.37637
274.39559
196.28192
196.24602
196.26367
196.25407
196.2354
196.27014
196.30101
196.29661
196.27874
196.27762
196.28455
196.27321
196.23718
196.28608
196.28504
196.28684
196.23304
196.26947
196.25357
196.25873
196.23345
196.28148
196.26964
196.24407
196.25941
196.26461
196.28721
196.27875
196.30362
196.35429
117.6643
117.65112
117.68686
117.68406
117.66034
117.66388
117.69097
117.66066
117.64676
117.64479
117.66655
117.67351
117.63329
117.63366
117.66985
117.66326
117.64554
117.68418
117.69316
117.65653
117.65307
117.65111
117.68399
117.62386
117.68109
117.65505
117.62784
117.62619
117.65316
117.68401
39.238946
39.231607
39.230954
39.232665
39.247939
39.260694
39.26213
39.255569
39.252539
39.248294
39.230855
39.22671
39.240607
39.261549
39.249798
39.255493
39.242428
39.231219
39.23568
39.230038
39.256744
39.254424
39.254681
39.247059
39.237583
39.22398
39.239151
39.266134
39.25893
39.277507
353.4412
353.43823
353.44136
353.43915
353.44366
353.44514
353.44421
353.44098
353.45387
353.45573
353.45714
353.4597
353.4561
353.46344
353.46093
353.46205
353.45642
353.46521
353.45778
353.46472
353.46492
353.46816
353.46801
353.47119
353.48182
353.48207
353.47872
353.48938
353.4727
353.47873
274.42229
274.44234
274.44771
274.43326
274.43233
274.41348
274.41607
274.42328
274.46029
274.45653
274.41651
274.40805
274.43582
274.41266
274.39517
274.39356
274.39193
274.41762
274.4032
274.41979
274.39501
274.38908
274.38319
274.40343
274.45529
274.46947
274.46472
274.45845
274.39864
274.39537
196.29298
196.26956
196.27585
196.27923
196.2737
196.29596
196.28993
196.26484
196.24719
196.25517
196.29456
196.27868
196.30642
196.29553
196.31476
196.32622
196.28789
196.28476
196.30632
196.28885
196.30722
196.31625
196.29493
196.26272
196.23572
196.26689
196.27684
196.23964
196.25684
196.29736
117.67039
117.62075
117.65283
117.65247
117.63782
117.67564
117.68735
117.65487
117.65428
117.6666
117.67155
117.67545
117.62495
117.62152
117.67349
117.67699
117.63866
117.64727
117.66228
117.60934
117.64093
117.66789
117.6671
117.62911
117.63994
117.6684
117.64383
117.62173
117.61157
117.67227
39.25172
39.257543
39.249207
39.243684
39.257252
39.257214
39.246707
39.243904
39.248895
39.234773
39.230945
39.232441
39.263201
39.289854
39.266528
39.274269
39.252853
39.255457
39.241058
39.268873
39.266099
39.266491
39.261075
39.250805
39.248302
39.230322
39.227316
39.246663
39.263656
39.267249
353.43688
353.42857
353.44973
353.43671
353.44231
353.44391
353.44168
353.44491
353.45539
353.4522
353.4633
353.45835
353.45827
353.45991
353.46265
353.46532
353.45994
353.47371
353.46437
353.47116
353.46988
353.47559
353.47378
353.4757
353.49174
353.48366
353.47449
353.48153
353.47844
353.47738
274.43296
274.43546
274.47251
274.44578
274.41766
274.41608
274.42149
274.45129
274.49535
274.48799
274.47196
274.42691
274.42987
274.41418
274.40418
274.40549
274.421
274.45381
274.43631
274.41914
274.38533
274.38644
274.38925
274.37856
274.43351
274.45757
274.44959
274.46447
274.42363
274.40114
196.28984
196.26222
196.23373
196.27189
196.2472
196.29929
196.26373
196.24223
196.24023
196.26661
196.26622
196.30248
196.28671
196.2887
196.31812
196.30235
196.27173
196.2637
196.28902
196.28211
196.29189
196.33526
196.32674
196.26696
196.25755
196.24507
196.27385
196.27216
196.26526
196.30441
117.68581
117.64195
117.66333
117.62807
117.67053
117.67685
117.6687
117.6555
117.66546
117.67496
117.68654
117.65313
117.63157
117.62845
117.65909
117.67816
117.61354
117.65685
117.64659
117.61472
117.65972
117.67927
117.6719
117.64999
117.63581
117.62849
117.65458
117.65137
117.61197
117.65739
39.24397
39.246483
39.261561
39.260804
39.253651
39.269749
39.255059
39.252518
39.234187
39.223546
39.227781
39.221697
39.241099
39.262926
39.257193
39.263281
39.26079
39.24578
39.251529
39.26146
39.264272
39.278035
39.268804
39.251026
39.259368
39.242002
39.227197
39.228458
39.247181
39.250651
353.4341
353.42794
353.43205
353.45107
353.45396
353.45744
353.45166
353.44665
353.45571
353.45003
353.4625
353.46164
353.4632
353.4735
353.46004
353.46801
353.46362
353.47518
353.46742
353.47268
353.47072
353.47193
353.47146
353.47325
353.48148
353.46377
353.4655
353.4708
353.47332
353.46812
274.44179
274.43687
274.45523
274.49857
274.45282
274.4108
274.42939
274.4524
274.48591
274.49287
274.49874
274.477
274.46817
274.46586
274.42589
274.40999
274.42912
274.46302
274.47333
274.46329
274.43366
274.39898
274.40445
274.45009
274.46156
274.41802
274.41919
274.44648
274.44716
274.4294
196.30207
196.2751
196.236
196.23087
196.22093
196.25748
196.28226
196.24035
196.24276
196.26118
196.26538
196.2618
196.262
196.24231
196.28618
196.2721
196.27174
196.25659
196.2607
196.25419
196.23433
196.27539
196.27848
196.23782
196.23694
196.27222
196.30195
196.2597
196.27504
196.29317
117.68193
117.65965
117.6427
117.65125
117.63371
117.671
117.68982
117.65248
117.67167
117.67425
117.69198
117.6828
117.65718
117.64295
117.62549
117.68089
117.61477
117.68019
117.66409
117.6455
117.62259
117.65827
117.65784
117.64869
117.65296
117.66208
117.6863
117.67417
117.63401
117.62658
39.23266
39.219516
39.230655
39.246654
39.247183
39.253228
39.250061
39.247465
39.235868
39.223835
39.227167
39.219796
39.217119
39.24746
39.253172
39.253366
39.255805
39.232305
39.22671
39.227421
39.244739
39.242892
39.241325
39.238667
39.231776
39.212715
39.22265
39.223067
39.216966
39.249276
353.43244
353.43258
353.42297
353.43342
353.45444
353.45407
353.45339
353.44941
353.43657
353.4477
353.4509
353.44593
353.44981
353.47415
353.47672
353.47475
353.4686
353.47063
353.4698
353.47358
353.48676
353.45755
353.46777
353.45352
353.47406
353.46165
274.44476
274.44677
274.44315
274.47386
274.50386
274.44965
274.40991
274.43721
274.43761
274.46513
274.47879
274.45821
274.4476
274.47357
274.47909
274.47417
274.44451
274.39965
274.42118
274.45327
274.48012
274.4132
274.40571
274.41384
274.44513
274.44188
196.32219
196.30442
196.27819
196.23597
196.22521
196.22604
196.25463
196.27253
196.24213
196.22908
196.24241
196.24202
196.27198
196.27672
196.26549
196.25624
196.25093
196.2643
196.28654
196.25942
196.2425
196.28509
196.29338
196.30808
196.27155
196.30797
117.69922
117.68969
117.6733
117.64775
117.65251
117.62695
117.68
117.68379
117.65221
117.64682
117.65476
117.65955
117.65476
117.68821
117.68946
117.66815
117.6434
117.68016
117.65299
117.67097
117.65959
117.66275
117.71282
117.66415
117.63502
117.62893
39.239327
39.230225
39.221371
39.209632
39.241803
39.244399
39.257994
39.237621
39.244507
39.243622
39.225175
39.22747
39.229777
39.215721
39.212096
39.213397
39.230511
39.235212
39.228965
39.218366
39.236776
39.223203
39.234903
39.227473
39.226889
39.262325
353.43433
353.43338
353.42872
353.44619
353.45452
353.45712
353.45124
353.4481
353.44644
353.43968
353.44236
353.4412
353.44464
353.45831
353.45649
353.46826
353.46448
353.46336
353.46299
353.44937
353.47779
353.44132
353.46627
353.45087
353.46926
353.46013
274.43536
274.44376
274.44724
274.48311
274.50382
274.45109
274.40879
274.41606
274.4149
274.41774
274.42888
274.42632
274.42304
274.42944
274.42068
274.44464
274.42207
274.39162
274.40367
274.42349
274.44904
274.41321
274.40333
274.41181
274.43761
274.41878
196.30816
196.28112
196.28175
196.24852
196.21704
196.23564
196.2622
196.30288
196.2899
196.28755
196.27321
196.2868
196.29099
196.28441
196.28296
196.2374
196.25205
196.2797
196.27877
196.25711
196.22732
196.26965
196.28729
196.28433
196.22939
196.29431
117.68879
117.66345
117.6843
117.67029
117.65026
117.64954
117.66192
117.67924
117.67294
117.64689
117.6359
117.65129
117.66589
117.65278
117.63835
117.63724
117.61509
117.66241
117.6597
117.63991
117.64765
117.63587
117.69457
117.66642
117.65663
117.67121
39.239498
39.241657
39.238487
39.219842
39.238346
39.244211
39.244105
39.252472
39.255093
39.275069
39.265232
39.239067
39.248665
39.228436
39.21537
39.238389
39.249861
39.249102
39.245332
39.248879
39.254548
39.238499
39.231539
39.238627
39.248868
39.241649
353.43554
353.43413
353.42971
353.43462
353.44794
353.45076
353.4506
353.4464
353.4506
353.44764
353.44618
353.44412
353.44757
353.46222
353.46537
353.47008
353.45607
353.4636
353.46219
353.46218
353.46267
353.46345
353.46155
353.45576
353.45388
353.45252
353.45903
353.45373
353.45636
353.45338
274.42997
274.42401
274.44042
274.45349
274.49076
274.48801
274.44579
274.4192
274.40544
274.41497
274.41069
274.41654
274.43846
274.46369
274.47869
274.45118
274.42878
274.41974
274.40585
274.40095
274.39163
274.39174
274.39754
274.39578
274.41371
274.40079
274.39733
274.40218
274.41459
274.41943
196.32429
196.29571
196.27323
196.25891
196.25057
196.2403
196.23338
196.2768
196.30529
196.31657
196.30335
196.2831
196.2704
196.25859
196.2747
196.26033
196.30542
196.29624
196.30947
196.29785
196.31354
196.33401
196.32891
196.30092
196.29494
196.30153
196.32363
196.31542
196.29416
196.31177
117.6763
117.66564
117.63212
117.65393
117.66077
117.65256
117.63345
117.61848
117.67591
117.6835
117.67453
117.67469
117.64425
117.66672
117.66481
117.65896
117.65367
117.65039
117.65
117.65727
117.65468
117.67375
117.6704
117.66388
117.63568
117.66545
117.67881
117.66525
117.6197
117.64071
39.255611
39.254342
39.24998
39.245468
39.221046
39.231661
39.249469
39.263975
39.270266
39.272666
39.259279
39.242979
39.257334
39.234062
39.225414
39.228527
39.231615
39.249946
39.251664
39.250891
39.252322
39.264654
39.264283
39.260084
39.280017
39.24899
39.243744
39.23761
39.259473
39.28144
353.43589
353.43334
353.42878
353.42878
353.44618
353.44614
353.44411
353.44603
353.44764
353.44694
353.44437
353.44103
353.46258
353.46984
353.47805
353.47952
353.47125
353.47492
353.46441
353.46001
353.45895
353.46065
353.45705
353.44711
353.45498
353.44156
353.45711
353.45673
353.4586
353.46192
274.43455
274.42483
274.43991
274.45264
274.48797
274.47145
274.42916
274.42846
274.40781
274.41911
274.42239
274.4297
274.46309
274.47927
274.45999
274.40174
274.45731
274.45693
274.44017
274.42304
274.39364
274.39813
274.39699
274.4155
274.42343
274.40842
274.40507
274.40877
274.40093
274.44026
196.323
196.29416
196.26351
196.25915
196.23529
196.26479
196.28264
196.29712
196.2996
196.31594
196.28788
196.27052
196.26165
196.27607
196.25505
196.2825
196.27732
196.27133
196.276
196.28469
196.29723
196.33645
196.31449
196.30656
196.30257
196.29951
196.31412
196.31597
196.27642
196.25948
117.68441
117.67393
117.6505
117.64487
117.65778
117.65681
117.64264
117.62682
117.67758
117.66817
117.66907
117.65054
117.67744
117.65282
117.62399
117.65326
117.63276
117.65266
117.61247
117.62509
117.65106
117.67101
117.66827
117.62178
117.62412
117.6279
117.66818
117.69021
117.65325
117.6544
39.266023
39.261054
39.256159
39.25118
39.242029
39.228846
39.241058
39.279954
39.254751
39.265187
39.251898
39.243767
39.234817
39.226302
39.234369
39.24129
39.238225
39.227517
39.26264
39.258801
39.252719
39.271152
39.261253
39.278075
39.267589
39.230978
39.231667
39.238209
39.229821
39.260994
353.43647
353.42633
353.43587
353.45233
353.45782
353.45248
353.44969
353.44879
353.44962
353.44271
353.44916
353.44242
353.46272
353.47203
353.47209
353.4705
353.4687
353.46965
353.46826
353.47632
353.47737
353.47038
353.46945
353.47811
353.47405
353.47453
353.46273
353.46477
353.46967
353.47182
274.43549
274.43309
274.46145
274.49123
274.47765
274.42313
274.42839
274.43065
274.43455
274.42171
274.42644
274.42025
274.45243
274.46527
274.40798
274.38357
274.3968
274.39045
274.40584
274.44701
274.4525
274.39607
274.42899
274.45341
274.46869
274.44836
274.41119
274.40683
274.40458
274.45177
196.28742
196.2556
196.23759
196.22843
196.23408
196.28704
196.28921
196.31516
196.29755
196.30481
196.31221
196.28896
196.25597
196.2482
196.25933
196.29111
196.32847
196.29042
196.30726
196.24811
196.26113
196.26417
196.25774
196.24402
196.26423
196.25774
196.2807
196.27195
196.27826
196.24916
117.67333
117.65289
117.64448
117.66297
117.65083
117.67501
117.64747
117.62566
117.62695
117.63982
117.67361
117.64652
117.63562
117.62681
117.62537
117.66847
117.65772
117.6752
117.65274
117.65396
117.61143
117.66884
117.61478
117.63607
117.63387
117.6774
117.65592
117.67536
117.65576
117.6445
39.253409
39.250807
39.245547
39.238868
39.237922
39.230155
39.228263
39.262666
39.262361
39.237789
39.229736
39.225062
39.231033
39.245787
39.262032
39.260045
39.251088
39.253956
39.23139
39.238313
39.253716
39.248132
39.256454
39.234565
39.220356
39.225841
39.222615
39.223409
39.230862
39.252985
353.43142
353.42353
353.44754
353.44341
353.4487
353.45023
353.45468
353.44301
353.45505
353.44986
353.46399
353.45617
353.46193
353.46141
353.46579
353.46831
353.46561
353.46702
353.46842
353.46548
353.46153
353.46271
353.46668
353.46595
353.46898
353.472
353.47326
353.4779
353.46922
353.47228
274.44113
274.44641
274.48386
274.41887
274.44909
274.47611
274.48374
274.43804
274.47285
274.48032
274.47272
274.43413
274.40112
274.42675
274.39094
274.39653
274.40093
274.4253
274.46282
274.4693
274.43535
274.40906
274.40443
274.40315
274.42435
274.4618
274.48975
274.4692
274.4282
274.41207
196.27803
196.25958
196.258
196.29752
196.26361
196.25992
196.26612
196.31572
196.2824
196.25841
196.25865
196.26733
196.28891
196.29174
196.30826
196.34447
196.30906
196.27152
196.27106
196.26787
196.26641
196.28929
196.31744
196.30358
196.29924
196.26567
196.24823
196.23445
196.25392
196.28392
117.67345
117.65835
117.67451
117.70541
117.66097
117.6894
117.6868
117.66596
117.67502
117.64659
117.6465
117.60898
117.66747
117.61514
117.66737
117.67845
117.66686
117.6336
117.65771
117.67011
117.6653
117.67486
117.67935
117.66272
117.67868
117.66863
117.63464
117.64634
117.61437
117.67746
39.247481
39.250822
39.225781
39.23341
39.229589
39.218524
39.216448
39.227214
39.220043
39.227573
39.244681
39.248112
39.250699
39.279365
39.265997
39.28456
39.266675
39.267492
39.245605
39.237845
39.244528
39.2442
39.239398
39.228101
39.235704
39.225505
39.229613
39.247685
39.254045
39.256666
)
;

boundaryField
{
    minX
    {
        type            calculated;
        value           nonuniform List<scalar> 
50
(
353.44703
274.44524
196.28192
117.6643
39.238946
353.4412
274.42229
196.29298
117.67039
39.25172
353.43688
274.43296
196.28984
117.68581
39.24397
353.4341
274.44179
196.30207
117.68193
39.23266
353.43244
274.44476
196.32219
117.69922
39.239327
353.43433
274.43536
196.30816
117.68879
39.239498
353.43554
274.42997
196.32429
117.6763
39.255611
353.43589
274.43455
196.323
117.68441
39.266023
353.43647
274.43549
196.28742
117.67333
39.253409
353.43142
274.44113
196.27803
117.67345
39.247481
)
;
    }
    maxX
    {
        type            calculated;
        value           nonuniform List<scalar> 
50
(
353.4774
274.39559
196.35429
117.68401
39.277507
353.47873
274.39537
196.29736
117.67227
39.267249
353.47738
274.40114
196.30441
117.65739
39.250651
353.46812
274.4294
196.29317
117.62658
39.249276
353.46165
274.44188
196.30797
117.62893
39.262325
353.46013
274.41878
196.29431
117.67121
39.241649
353.45338
274.41943
196.31177
117.64071
39.28144
353.46192
274.44026
196.25948
117.6544
39.260994
353.47182
274.45177
196.24916
117.6445
39.252985
353.47228
274.41207
196.28392
117.67746
39.256666
)
;
    }
    minY
    {
        type            calculated;
        value           nonuniform List<scalar> 
292
(
392.4
392.4
392.4
392.4
392.4
392.4
392.4
392.4
392.4
392.4
392.4
392.4
392.4
392.4
392.4
392.4
392.4
392.4
392.4
392.4
392.4
392.4
392.4
392.4
392.4
392.4
392.4
392.4
392.4
392.4
392.4
392.4
392.4
392.4
392.4
392.4
392.4
392.4
392.4
392.4
392.4
392.4
392.4
392.4
392.4
392.4
392.4
392.4
392.4
392.4
392.4
392.4
392.4
392.4
392.4
392.4
392.4
392.4
392.4
392.4
392.4
392.4
392.4
392.4
392.4
392.4
392.4
392.4
392.4
392.4
392.4
392.4
392.4
392.4
392.4
392.4
392.4
392.4
392.4
392.4
392.4
392.4
392.4
392.4
392.4
392.4
392.4
392.4
392.4
392.4
392.4
392.4
392.4
392.4
392.4
392.4
392.4
392.4
392.4
392.4
392.4
392.4
392.4
392.4
392.4
392.4
392.4
392.4
392.4
392.4
392.4
392.4
392.4
392.4
392.4
392.4
392.4
392.4
392.4
392.4
392.4
392.4
392.4
392.4
392.4
392.4
392.4
392.4
392.4
392.4
392.4
392.4
392.4
392.4
392.4
392.4
392.4
392.4
392.4
392.4
392.4
392.4
392.4
392.4
392.4
392.4
392.4
392.4
392.4
392.4
392.4
392.4
392.4
392.4
392.4
392.4
392.4
392.4
392.4
392.4
392.4
392.4
392.4
392.4
392.4
392.4
392.4
392.4
392.4
392.4
392.4
392.4
392.4
392.4
392.4
392.4
392.4
392.4
392.4
392.4
392.4
392.4
392.4
392.4
392.4
392.4
392.4
392.4
392.4
392.4
392.4
392.4
392.4
392.4
392.4
392.4
392.4
392.4
392.4
392.4
392.4
392.4
392.4
392.4
392.4
392.4
392.4
392.4
392.4
392.4
392.4
392.4
392.4
392.4
392.4
392.4
392.4
392.4
392.4
392.4
392.4
392.4
392.4
392.4
392.4
392.4
392.4
392.4
392.4
392.4
392.4
392.4
392.4
392.4
392.4
392.4
392.4
392.4
392.4
392.4
392.4
392.4
392.4
392.4
392.4
392.4
392.4
392.4
392.4
392.4
392.4
392.4
392.4
392.4
392.4
392.4
392.4
392.4
392.4
392.4
392.4
392.4
392.4
392.4
392.4
392.4
392.4
392.4
392.4
392.4
392.4
392.4
392.4
392.4
392.4
392.4
392.4
392.4
392.4
392.4
392.4
392.4
392.4
392.4
392.4
392.4
392.4
392.4
392.4
392.4
392.4
392.4
)
;
    }
    minZ
    {
        type            calculated;
        value           nonuniform List<scalar> 
150
(
353.44703
274.44524
196.28192
117.6643
39.238946
353.4494
274.47893
196.24602
117.65112
39.231607
353.45226
274.49586
196.26367
117.68686
39.230954
353.45007
274.48603
196.25407
117.68406
39.232665
353.44874
274.45353
196.2354
117.66034
39.247939
353.44466
274.42506
196.27014
117.66388
39.260694
353.45041
274.41676
196.30101
117.69097
39.26213
353.4445
274.41531
196.29661
117.66066
39.255569
353.44573
274.4267
196.27874
117.64676
39.252539
353.45094
274.45018
196.27762
117.64479
39.248294
353.45804
274.46468
196.28455
117.66655
39.230855
353.46304
274.47786
196.27321
117.67351
39.22671
353.46978
274.46321
196.23718
117.63329
39.240607
353.46721
274.41924
196.28608
117.63366
39.261549
353.46211
274.41135
196.28504
117.66985
39.249798
353.45642
274.40792
196.28684
117.66326
39.255493
353.46391
274.44972
196.23304
117.64554
39.242428
353.47533
274.48109
196.26947
117.68418
39.231219
353.4755
274.47504
196.25357
117.69316
39.23568
353.47565
274.47081
196.25873
117.65653
39.230038
353.47595
274.44139
196.23345
117.65307
39.256744
353.47374
274.40894
196.28148
117.65111
39.254424
353.47573
274.38678
196.26964
117.68399
39.254681
353.47936
274.42237
196.24407
117.62386
39.247059
353.48297
274.45845
196.25941
117.68109
39.237583
353.48538
274.46219
196.26461
117.65505
39.22398
353.47478
274.42508
196.28721
117.62784
39.239151
353.47655
274.4167
196.27875
117.62619
39.266134
353.4738
274.37637
196.30362
117.65316
39.25893
353.4774
274.39559
196.35429
117.68401
39.277507
)
;
    }
    maxZ
    {
        type            calculated;
        value           nonuniform List<scalar> 
150
(
353.43142
274.44113
196.27803
117.67345
39.247481
353.42353
274.44641
196.25958
117.65835
39.250822
353.44754
274.48386
196.258
117.67451
39.225781
353.44341
274.41887
196.29752
117.70541
39.23341
353.4487
274.44909
196.26361
117.66097
39.229589
353.45023
274.47611
196.25992
117.6894
39.218524
353.45468
274.48374
196.26612
117.6868
39.216448
353.44301
274.43804
196.31572
117.66596
39.227214
353.45505
274.47285
196.2824
117.67502
39.220043
353.44986
274.48032
196.25841
117.64659
39.227573
353.46399
274.47272
196.25865
117.6465
39.244681
353.45617
274.43413
196.26733
117.60898
39.248112
353.46193
274.40112
196.28891
117.66747
39.250699
353.46141
274.42675
196.29174
117.61514
39.279365
353.46579
274.39094
196.30826
117.66737
39.265997
353.46831
274.39653
196.34447
117.67845
39.28456
353.46561
274.40093
196.30906
117.66686
39.266675
353.46702
274.4253
196.27152
117.6336
39.267492
353.46842
274.46282
196.27106
117.65771
39.245605
353.46548
274.4693
196.26787
117.67011
39.237845
353.46153
274.43535
196.26641
117.6653
39.244528
353.46271
274.40906
196.28929
117.67486
39.2442
353.46668
274.40443
196.31744
117.67935
39.239398
353.46595
274.40315
196.30358
117.66272
39.228101
353.46898
274.42435
196.29924
117.67868
39.235704
353.472
274.4618
196.26567
117.66863
39.225505
353.47326
274.48975
196.24823
117.63464
39.229613
353.4779
274.4692
196.23445
117.64634
39.247685
353.46922
274.4282
196.25392
117.61437
39.254045
353.47228
274.41207
196.28392
117.67746
39.256666
)
;
    }
    bottomWater_to_rightSolid
    {
        type            calculated;
        value           nonuniform List<scalar> 
130
(
-0.0087807496
-0.004320396
-0.0099624703
0.016744438
0.014424299
0.014680568
0.007059264
-0.0024166233
-0.016020445
-0.00084933497
0.026133678
0.018930221
0.037507465
0.015457126
0.0010578766
0.028872946
0.026099457
0.026490503
0.021075401
0.010805005
0.0083022026
-0.0096776898
-0.01268355
0.0066629652
0.023655581
0.027248663
0.0057801103
0.011529157
0.021459663
0.024271568
0.038034756
0.028803766
0.011025691
0.019368286
0.0020017949
-0.012802526
-0.011542134
0.007180652
0.010651147
-0.0076953392
-0.013289999
-0.012579423
0.0047391149
0.0028915605
0.0013251485
-0.0013325837
-0.008223731
-0.027285167
-0.017349872
-0.016933003
-0.023033977
0.0092762252
-0.024278953
-0.027904154
-0.026603315
-0.0094894956
-0.0047875597
-0.011035174
-0.021634175
-0.003223879
-0.016796555
-0.0050968201
-0.012527021
-0.01311117
0.022324508
-0.011563885
-0.024629857
-0.0016107267
0.0098613638
0.0091023622
0.0053324113
0.0088787381
0.014548141
-0.0015005142
-0.0084611643
-0.0013730871
0.0088684417
0.0016490584
0.0099460134
0.011664284
0.010890845
0.012321692
0.024654105
0.024282922
0.020083804
0.040017367
0.0089895615
0.0037441394
-0.0023898825
0.019473044
0.041440201
-0.012483339
0.022639931
0.018801176
0.012718675
0.031152416
0.021253386
0.038075397
0.027588667
-0.0090216074
-0.0083333693
-0.0017905738
-0.010178779
0.020993889
0.013956012
-0.0086095209
-0.0016865565
0.013715911
0.0081317727
0.016454136
-0.0054352549
-0.019643514
-0.014159066
-0.017384658
-0.016591257
-0.0091378438
0.012984616
0.027492347
0.0056053434
-0.0021546984
0.0045279847
0.0042002651
-0.00060175845
-0.011899083
-0.0042959524
-0.014494995
-0.010387197
0.0076851725
0.014045137
0.016666168
)
;
    }
    bottomWater_to_leftSolid
    {
        type            calculated;
        value           nonuniform List<scalar> 
130
(
-0.0010537742
-0.0083929733
-0.009045954
-0.0073349434
0.0079387191
0.0206938
0.022130132
0.015568743
0.01253853
0.0082939249
-0.0091453352
-0.013289702
0.00060723685
0.011719758
0.01754292
0.0092074227
0.003683863
0.017252388
0.017213697
0.0067068924
0.0039044908
0.0088954965
-0.0052265992
-0.0090545374
-0.007559312
0.023200511
0.0039701449
0.0064827039
0.021561486
0.02080437
0.013651404
0.029748882
0.015058624
0.012517732
-0.0058126948
-0.016454203
-0.012219484
-0.018303084
0.0010985343
-0.00733951
-0.020483956
-0.0093450496
0.0066542454
0.0071826393
0.013228108
0.0100607
0.0074648352
-0.0041316486
-0.016164932
-0.012832577
-0.020203905
-0.022880594
-0.00067329185
-0.0097746107
-0.018628814
-0.030368053
0.0018033919
0.0043988101
0.017994435
-0.0023788069
0.0045066954
0.0036220882
-0.014825163
-0.012529992
-0.010222882
-0.00050213447
0.0016565245
-0.0015132033
-0.020157728
-0.0016541
0.0042108475
0.004105223
0.012472217
0.015092586
0.035069366
0.025232235
-0.00093311787
0.0086652519
0.015611413
0.014341895
0.0099803905
0.0054682584
-0.018954361
-0.0083388355
0.0094687638
0.023974954
0.03026572
0.032665861
0.019278813
0.0029791086
0.017334034
0.026022787
0.021053983
0.016158723
0.01118048
0.0020287652
-0.011154277
0.0010578444
0.039954473
0.014750901
0.025186709
0.01189815
0.0037670275
-0.0051832176
0.01340939
0.010806633
0.005547432
-0.0011324915
-0.0020780479
-0.0098454526
-0.01173749
0.022665631
0.022360664
-0.0022113077
-0.010264082
-0.014938278
-0.0089665145
0.0074813546
0.010822059
-0.014218754
-0.0065898783
-0.010411458
-0.021475775
-0.023551618
-0.012786192
-0.01995675
-0.01242709
0.004681319
0.0081123817
0.010698961
)
;
    }
    bottomWater_to_heater
    {
        type            calculated;
        value           nonuniform List<scalar> 
92
(
0.021549279
0.0097983672
0.015492678
0.0024281681
0.049853761
0.026527764
0.034268981
0.012853279
0.022926311
0.017193215
0.023280731
0.020790498
353.4735
353.46004
353.46801
353.46362
274.46586
274.42589
274.40999
274.42912
196.24231
196.28618
196.2721
196.27174
117.64295
117.62549
117.68089
117.61477
0.0074595197
39.24746
0.013172284
39.253172
0.01336558
39.253366
0.015805229
39.255805
353.44981
353.47415
274.4476
274.47357
196.27198
196.27672
117.65476
117.68821
39.229777
39.215721
353.44464
353.46222
353.46537
353.47008
353.45831
353.45607
274.42304
274.46369
274.47869
274.45118
274.42944
274.42878
196.29099
196.25859
196.2747
196.26033
196.28441
196.30542
117.66589
117.66672
117.66481
117.65896
117.65278
117.65367
39.248665
39.234062
39.225414
39.228527
39.228436
39.231615
-0.0059379624
-0.014586161
-0.011472663
-0.0083845212
-0.013698462
-0.0056312388
0.0012900775
-0.0017747806
0.0057867034
0.022032466
0.020044606
0.011088385
0.039364586
0.025997076
0.044559784
0.026674722
)
;
    }
}


// ************************************************************************* //
