/*--------------------------------*- C++ -*----------------------------------*\
| =========                 |                                                 |
| \\      /  F ield         | OpenFOAM: The Open Source CFD Toolbox           |
|  \\    /   O peration     | Version:  v2012                                 |
|   \\  /    A nd           | Website:  www.openfoam.com                      |
|    \\/     M anipulation  |                                                 |
\*---------------------------------------------------------------------------*/
FoamFile
{
    version     2.0;
    format      ascii;
    class       volScalarField;
    location    "390/bottomWater";
    object      p_rgh;
}
// * * * * * * * * * * * * * * * * * * * * * * * * * * * * * * * * * * * * * //

dimensions      [1 -1 -2 0 0 0 0];


internalField   nonuniform List<scalar> 
1460
(
0.28703339
0.28939881
0.2922616
0.29007341
0.28873932
0.28466342
0.29040535
0.2844956
0.28572559
0.29093534
0.29803564
0.30304445
0.30977518
0.30720867
0.30210756
0.29642175
0.30391012
0.31532513
0.3154986
0.31565345
0.31594807
0.31374173
0.31572933
0.31935534
0.32296506
0.32537586
0.31477573
0.31654514
0.31380459
0.31739594
-0.23475648
-0.20106639
-0.18414288
-0.19396518
-0.22646891
-0.25493945
-0.26324408
-0.26468535
-0.25329543
-0.22981527
-0.21532322
-0.20214381
-0.21678579
-0.26076215
-0.26864606
-0.2720756
-0.23027804
-0.19891129
-0.20495863
-0.20919144
-0.23861465
-0.27106068
-0.29322313
-0.25762551
-0.22154659
-0.21781284
-0.25491953
-0.26329526
-0.30362678
-0.2844086
0.081915413
0.046022844
0.063668348
0.054072002
0.035401079
0.070142679
0.1010103
0.096609687
0.078737552
0.077616824
0.084546502
0.073210237
0.03718427
0.086082603
0.085040693
0.086839299
0.033044175
0.069472019
0.053572834
0.05873067
0.033445901
0.081480162
0.069643844
0.044067348
0.059408206
0.064607072
0.087208234
0.07875098
0.10362093
0.15429049
-0.055703365
-0.06887845
-0.033143912
-0.035935768
-0.059660218
-0.056123721
-0.029026473
-0.059338273
-0.073236204
-0.075206237
-0.053448864
-0.046489056
-0.086712378
-0.086344702
-0.05015467
-0.056740501
-0.074463945
-0.035821875
-0.026842135
-0.063469922
-0.066928928
-0.068886253
-0.036007002
-0.096136269
-0.038907133
-0.064945122
-0.092160783
-0.093807855
-0.06683756
-0.035989995
-0.0010537742
-0.0083929733
-0.009045954
-0.0073349434
0.0079387191
0.0206938
0.022130132
0.015568743
0.01253853
0.0082939249
-0.0091453352
-0.013289702
0.00060723685
0.021549279
0.0097983672
0.015492678
0.0024281681
-0.0087807496
-0.004320396
-0.0099624703
0.016744438
0.014424299
0.014680568
0.007059264
-0.0024166233
-0.016020445
-0.00084933497
0.026133678
0.018930221
0.037507465
0.28119709
0.27823426
0.28135746
0.27914648
0.28366476
0.28513725
0.28421144
0.28097594
0.29387215
0.29573382
0.29713928
0.29970181
0.29610121
0.3034407
0.30093328
0.30205134
0.29642165
0.30521403
0.29778249
0.30472369
0.30491684
0.30816115
0.3080129
0.31119252
0.3218221
0.32206606
0.31872429
0.32937642
0.3127035
0.31873293
-0.25771167
-0.23766297
-0.23229129
-0.24673847
-0.24767209
-0.26652147
-0.26392644
-0.25672212
-0.21970831
-0.22346564
-0.26349049
-0.27195338
-0.24417579
-0.26734279
-0.28483491
-0.28643946
-0.28807279
-0.26238033
-0.2768002
-0.26020762
-0.28498502
-0.29092133
-0.29681097
-0.27657287
-0.22470605
-0.21052888
-0.215278
-0.2215465
-0.28136457
-0.28463384
0.092979335
0.069555922
0.075848286
0.079232135
0.07370457
0.095956095
0.089930382
0.064843119
0.047194798
0.055173168
0.094555647
0.078680598
0.10642345
0.095528556
0.11475555
0.12621791
0.087892933
0.0847635
0.10632386
0.088848068
0.10722416
0.11624657
0.094925908
0.06271938
0.035723841
0.066892042
0.076842163
0.039639835
0.056840732
0.097358039
-0.04961198
-0.099248056
-0.067165099
-0.067534105
-0.08218498
-0.044364308
-0.032645703
-0.065131544
-0.065715292
-0.053401713
-0.048451575
-0.044554976
-0.095045987
-0.09848296
-0.046509005
-0.043005426
-0.081340254
-0.072727034
-0.057718062
-0.11066089
-0.079067132
-0.052107412
-0.052896712
-0.09089246
-0.080061393
-0.051600891
-0.076167842
-0.098267648
-0.10843305
-0.047732299
0.011719758
0.01754292
0.0092074227
0.003683863
0.017252388
0.017213697
0.0067068924
0.0039044908
0.0088954965
-0.0052265992
-0.0090545374
-0.007559312
0.023200511
0.049853761
0.026527764
0.034268981
0.012853279
0.015457126
0.0010578766
0.028872946
0.026099457
0.026490503
0.021075401
0.010805005
0.0083022026
-0.0096776898
-0.01268355
0.0066629652
0.023655581
0.027248663
0.27688309
0.26856833
0.28972793
0.27671278
0.28231067
0.28390697
0.28167747
0.28490572
0.29539179
0.29219856
0.30329985
0.29834645
0.29827194
0.29990605
0.30265133
0.30531893
0.29993741
0.31370796
0.30437127
0.31116206
0.30988381
0.31558938
0.31377656
0.31570486
0.33174336
0.32366496
0.31449081
0.3215315
0.31844356
0.31737526
-0.24703892
-0.24454485
-0.20749373
-0.23422153
-0.26233536
-0.26392493
-0.25851018
-0.22870852
-0.18464758
-0.19201218
-0.20803802
-0.25308504
-0.25012581
-0.26582495
-0.2758212
-0.2745117
-0.25899588
-0.22618993
-0.24368934
-0.26085927
-0.29466987
-0.29355948
-0.29074655
-0.30144365
-0.24648651
-0.22242575
-0.23040723
-0.21552993
-0.25636977
-0.27885872
0.089843438
0.062215186
0.033733562
0.071892324
0.047201847
0.0992896
0.06372834
0.042231319
0.040227127
0.066605031
0.066221781
0.10247884
0.086709139
0.088696289
0.11811586
0.10234949
0.071727492
0.0636969
0.089021411
0.082105348
0.091887515
0.1352628
0.12673757
0.066961677
0.057551289
0.045065216
0.073847378
0.072161955
0.065262334
0.10440941
-0.034186079
-0.078049296
-0.056666298
-0.091927134
-0.04947001
-0.04315049
-0.051301824
-0.064503973
-0.054540188
-0.045036286
-0.033461345
-0.066868826
-0.088431879
-0.091549152
-0.060909965
-0.041835532
-0.10645996
-0.063147699
-0.073409813
-0.10527764
-0.060277899
-0.040725431
-0.04810123
-0.070010349
-0.084185337
-0.091509973
-0.065417341
-0.06862611
-0.10802788
-0.062609867
0.0039701449
0.0064827039
0.021561486
0.02080437
0.013651404
0.029748882
0.015058624
0.012517732
-0.0058126948
-0.016454203
-0.012219484
-0.018303084
0.0010985343
0.022926311
0.017193215
0.023280731
0.020790498
0.0057801103
0.011529157
0.021459663
0.024271568
0.038034756
0.028803766
0.011025691
0.019368286
0.0020017949
-0.012802526
-0.011542134
0.007180652
0.010651147
0.27409892
0.26794421
0.27205392
0.2910672
0.29396263
0.29744375
0.29165694
0.28664509
0.29571235
0.29002713
0.30250409
0.3016353
0.30320367
0.31349803
0.30003744
0.30801322
0.30362453
0.31518071
0.3074157
0.31268485
0.31072161
0.31192753
0.31146175
0.31325328
0.32147555
0.30376503
0.30549913
0.31080336
0.31332216
0.3081169
-0.23820947
-0.24313063
-0.22477391
-0.18142582
-0.22718085
-0.26920266
-0.25060515
-0.22760455
-0.19409409
-0.18713241
-0.18125758
-0.20299875
-0.21183264
-0.21414329
-0.25410678
-0.27000732
-0.25088149
-0.21698241
-0.20667327
-0.21671317
-0.24633742
-0.28102003
-0.2755545
-0.22990902
-0.21844296
-0.26198022
-0.26080682
-0.23351524
-0.23284452
-0.25060455
0.10207496
0.075095404
0.036002714
0.030870772
0.020930854
0.057476272
0.082259127
0.04035126
0.042762034
0.061181794
0.065381501
0.061799627
0.061998451
0.042310517
0.086178147
0.072104829
0.071735526
0.056588821
0.060704598
0.054193048
0.034328837
0.075389888
0.078484184
0.037823294
0.0369376
0.072222127
0.10195233
0.059703262
0.075036164
0.093165756
-0.03806711
-0.060351345
-0.077295772
-0.068752044
-0.086293624
-0.049000312
-0.03017641
-0.067516842
-0.048328233
-0.045746725
-0.02802243
-0.037201123
-0.062816571
-0.077049945
-0.094505893
-0.039114544
-0.10523089
-0.039806395
-0.05590636
-0.074500655
-0.097412676
-0.061727897
-0.06215876
-0.071314112
-0.067035443
-0.057922093
-0.033698134
-0.045830752
-0.085993062
-0.093423104
-0.00733951
-0.020483956
-0.0093450496
0.0066542454
0.0071826393
0.013228108
0.0100607
0.0074648352
-0.0041316486
-0.016164932
-0.012832577
-0.020203905
-0.022880594
0.0074595197
0.013172284
0.01336558
0.015805229
-0.0076953392
-0.013289999
-0.012579423
0.0047391149
0.0028915605
0.0013251485
-0.0013325837
-0.008223731
-0.027285167
-0.017349872
-0.016933003
-0.023033977
0.0092762252
0.2724448
0.27258481
0.26297376
0.27341715
0.29444049
0.29407353
0.29339349
0.28941368
0.27657004
0.28769714
0.2908954
0.28592649
0.28981311
0.31415136
0.31672193
0.31474799
0.30859972
0.31062615
0.30980121
0.31357839
0.32676229
0.29754842
0.30777249
0.2935216
0.31405935
0.30164723
-0.23523868
-0.23322801
-0.23684735
-0.20614452
-0.17614091
-0.23034531
-0.27008829
-0.24279446
-0.24238661
-0.21487264
-0.20121491
-0.22179302
-0.23239616
-0.20642722
-0.20090655
-0.20582824
-0.23549285
-0.28035242
-0.25881673
-0.22672977
-0.19988237
-0.26679831
-0.27429314
-0.26616133
-0.23487336
-0.23812128
0.12219144
0.10442445
0.07818882
0.035973207
0.025208755
0.026036934
0.054631152
0.072528544
0.042132859
0.029081771
0.042411141
0.042022503
0.0719771
0.076717052
0.065490467
0.056238807
0.050932601
0.064298376
0.086536682
0.059419159
0.042497687
0.085090465
0.093376437
0.10808115
0.071546281
0.10797115
-0.0207799
-0.030311476
-0.046702359
-0.072252169
-0.06749287
-0.093045598
-0.040003191
-0.036206615
-0.067794909
-0.073184411
-0.065237725
-0.0604545
-0.065244686
-0.031792968
-0.030540935
-0.051846351
-0.076597723
-0.039837761
-0.067008473
-0.049032605
-0.060407119
-0.057251011
-0.0071780584
-0.055846238
-0.08497737
-0.091071504
-0.00067329185
-0.0097746107
-0.018628814
-0.030368053
0.0018033919
0.0043988101
0.017994435
-0.0023788069
0.0045066954
0.0036220882
-0.014825163
-0.012529992
-0.010222882
-0.024278953
-0.027904154
-0.026603315
-0.0094894956
-0.0047875597
-0.011035174
-0.021634175
-0.003223879
-0.016796555
-0.0050968201
-0.012527021
-0.01311117
0.022324508
0.27433281
0.27337899
0.26871957
0.28619333
0.29452011
0.29711699
0.29123798
0.28809693
0.28644412
0.2796839
0.28235554
0.28119737
0.28463558
0.29830954
0.29648936
0.30826287
0.30448162
0.30336182
0.30298739
0.28937471
0.31778678
0.28131806
0.30626672
0.29087422
0.30926112
0.30012945
-0.24464483
-0.23623771
-0.23276293
-0.19688802
-0.17618396
-0.22890658
-0.27120945
-0.26393564
-0.26510165
-0.26225844
-0.25111802
-0.25367699
-0.25695798
-0.25055646
-0.25931876
-0.23536484
-0.2579301
-0.28838339
-0.27633039
-0.25650981
-0.23096398
-0.26679241
-0.27666864
-0.26818703
-0.24238586
-0.26122389
0.10816381
0.081123337
0.081746988
0.04851581
0.017039233
0.035640071
0.062198021
0.10287965
0.089903342
0.087546194
0.073212688
0.086795157
0.090986053
0.084408068
0.082956887
0.037401378
0.052050494
0.079703415
0.078769372
0.057112485
0.027320897
0.069649469
0.087290996
0.08432567
0.029385983
0.094311627
-0.031205579
-0.056545205
-0.035704133
-0.049707249
-0.069736987
-0.070459545
-0.05808339
-0.040758626
-0.047059535
-0.073109278
-0.084095428
-0.068711563
-0.054105144
-0.06721744
-0.081648679
-0.082757613
-0.10490995
-0.057585266
-0.060299186
-0.080093726
-0.072350094
-0.084125848
-0.025428679
-0.053584741
-0.063365096
-0.048790235
-0.00050213447
0.0016565245
-0.0015132033
-0.020157728
-0.0016541
0.0042108475
0.004105223
0.012472217
0.015092586
0.035069366
0.025232235
-0.00093311787
0.0086652519
-0.011563885
-0.024629857
-0.0016107267
0.0098613638
0.0091023622
0.0053324113
0.0088787381
0.014548141
-0.0015005142
-0.0084611643
-0.0013730871
0.0088684417
0.0016490584
0.27554241
0.27413251
0.26970738
0.27462485
0.28794223
0.29076459
0.29059854
0.28639888
0.29060263
0.28764188
0.28617787
0.2841191
0.2875714
0.30221704
0.30536703
0.31007723
0.29606623
0.30360317
0.30219282
0.30217812
0.30267096
0.30344591
0.30154516
0.29576328
0.29388184
0.29251757
0.29902618
0.29373064
0.29636221
0.29338154
-0.25003125
-0.25599493
-0.23958468
-0.22650888
-0.18923577
-0.19198763
-0.23421352
-0.26079727
-0.27455575
-0.26502911
-0.26930761
-0.2634593
-0.24153718
-0.21631232
-0.20130756
-0.22881793
-0.25121692
-0.26025949
-0.274149
-0.2790547
-0.28836569
-0.28825731
-0.28246229
-0.28422248
-0.26628509
-0.27921048
-0.28267143
-0.2778211
-0.26541433
-0.26056816
0.12429461
0.095711732
0.073226377
0.058908648
0.050565801
0.040303899
0.033384905
0.076797272
0.10529468
0.11657393
0.10335059
0.08310222
0.070396318
0.058590347
0.074697976
0.060325033
0.10541706
0.096241261
0.1094695
0.097853077
0.1135411
0.13400667
0.12890954
0.1009228
0.094939791
0.10153157
0.12363486
0.11541633
0.094162375
0.11177381
-0.043698652
-0.054364486
-0.087881598
-0.06607326
-0.059226512
-0.067439741
-0.086554717
-0.10152108
-0.044094155
-0.036496456
-0.045468186
-0.045312949
-0.075753115
-0.053277966
-0.055193952
-0.06103667
-0.06633286
-0.069608681
-0.069996737
-0.062727156
-0.065321855
-0.046247776
-0.049604424
-0.05611924
-0.084317973
-0.054551888
-0.041189132
-0.05475438
-0.10030017
-0.079287169
0.015611413
0.014341895
0.0099803905
0.0054682584
-0.018954361
-0.0083388355
0.0094687638
0.023974954
0.03026572
0.032665861
0.019278813
0.0029791086
0.017334034
-0.0059379624
-0.014586161
-0.011472663
-0.0083845212
0.0099460134
0.011664284
0.010890845
0.012321692
0.024654105
0.024282922
0.020083804
0.040017367
0.0089895615
0.0037441394
-0.0023898825
0.019473044
0.041440201
0.27589214
0.27334322
0.26877893
0.26878492
0.28618418
0.28613651
0.2841125
0.28602641
0.28763723
0.28693911
0.28437293
0.2810344
0.30257928
0.3098421
0.3180503
0.31951808
0.31124559
0.3149179
0.30441048
0.30000971
0.29894585
0.30064851
0.29704911
0.28711235
0.29498261
0.28155646
0.2971134
0.29673022
0.29860429
0.30191957
-0.24545403
-0.2551667
-0.24008876
-0.22735667
-0.19202907
-0.20854584
-0.2508425
-0.25153656
-0.27218782
-0.26089198
-0.25761374
-0.25030233
-0.21691281
-0.20073167
-0.22000752
-0.27825922
-0.22269435
-0.22306826
-0.23982633
-0.25695845
-0.28635718
-0.28186696
-0.28300627
-0.26449523
-0.25657358
-0.27157707
-0.27492697
-0.27123183
-0.27906898
-0.23974198
0.12299527
0.094159047
0.063513975
0.059152296
0.035287318
0.064788893
0.082640304
0.097119972
0.099601627
0.1159442
0.087877091
0.070518941
0.061650586
0.076071579
0.055050312
0.082504629
0.077321928
0.071325764
0.076001499
0.084692081
0.0972317
0.13644582
0.11449295
0.10655505
0.10257203
0.099507448
0.11412427
0.1159695
0.076417082
0.059478985
-0.03558916
-0.046066258
-0.069495213
-0.07512627
-0.062218928
-0.063190873
-0.077362549
-0.093177142
-0.042415338
-0.051829627
-0.050933766
-0.069456977
-0.042557285
-0.067184743
-0.096008167
-0.066738887
-0.087237799
-0.067342301
-0.10752787
-0.09491383
-0.068941166
-0.048989193
-0.05173357
-0.098223365
-0.095881104
-0.092100651
-0.051818619
-0.029785818
-0.066749886
-0.065597592
0.026022787
0.021053983
0.016158723
0.01118048
0.0020287652
-0.011154277
0.0010578444
0.039954473
0.014750901
0.025186709
0.01189815
0.0037670275
-0.0051832176
-0.013698462
-0.0056312388
0.0012900775
-0.0017747806
-0.012483339
0.022639931
0.018801176
0.012718675
0.031152416
0.021253386
0.038075397
0.027588667
-0.0090216074
-0.0083333693
-0.0017905738
-0.010178779
0.020993889
0.27647075
0.26632637
0.27587418
0.29233039
0.29782313
0.29247983
0.28968676
0.2887939
0.28962098
0.28270642
0.28916071
0.28241705
0.30272347
0.31203029
0.3120878
0.31050497
0.30869585
0.30964657
0.30825717
0.31632026
0.31737394
0.31037907
0.30945079
0.31811163
0.31404931
0.31453066
0.30272524
0.30476708
0.3096653
0.31182257
-0.24450812
-0.24691436
-0.21855473
-0.18876899
-0.20235079
-0.25687081
-0.25161103
-0.24934518
-0.24545293
-0.25829459
-0.25356454
-0.2597502
-0.22756753
-0.21472822
-0.27202493
-0.2964313
-0.28320237
-0.28955231
-0.27415578
-0.23298508
-0.22750035
-0.28393446
-0.25101425
-0.22658642
-0.211309
-0.23163634
-0.26880643
-0.2731682
-0.27541925
-0.22823192
0.087415223
0.055596312
0.037587962
0.028428799
0.034076047
0.087040906
0.089212699
0.11515663
0.097553996
0.10481205
0.11221365
0.088957716
0.055967018
0.048202874
0.059333035
0.091113364
0.12847279
0.09041814
0.10726142
0.048111226
0.061128838
0.064169327
0.057744419
0.044021935
0.064227278
0.057738235
0.080704743
0.071951205
0.078264501
0.049158874
-0.046669129
-0.067109582
-0.075523082
-0.05702579
-0.069168094
-0.044993323
-0.072534475
-0.094338847
-0.093050816
-0.080180125
-0.046386676
-0.073480397
-0.084379351
-0.093186973
-0.094629508
-0.051526742
-0.062275306
-0.044796342
-0.067263316
-0.066043524
-0.10856816
-0.051161097
-0.1052165
-0.083931647
-0.086130217
-0.042604755
-0.064078332
-0.044637439
-0.064239723
-0.075502492
0.01340939
0.010806633
0.005547432
-0.0011324915
-0.0020780479
-0.0098454526
-0.01173749
0.022665631
0.022360664
-0.0022113077
-0.010264082
-0.014938278
-0.0089665145
0.0057867034
0.022032466
0.020044606
0.011088385
0.013956012
-0.0086095209
-0.0016865565
0.013715911
0.0081317727
0.016454136
-0.0054352549
-0.019643514
-0.014159066
-0.017384658
-0.016591257
-0.0091378438
0.012984616
0.2714169
0.26352838
0.2875401
0.28341143
0.28870239
0.29022739
0.29467561
0.28300906
0.29505183
0.28986106
0.30399282
0.29617053
0.30192515
0.30140541
0.30579354
0.3083136
0.30560583
0.3070154
0.30842153
0.30548397
0.30153095
0.30270645
0.30667924
0.3059525
0.30897813
0.31200462
0.31325519
0.31789665
0.30921661
0.31228295
-0.23887141
-0.23358694
-0.19613991
-0.26113473
-0.23090645
-0.20388913
-0.19626387
-0.24195511
-0.20714735
-0.19967686
-0.20727623
-0.24586874
-0.27888445
-0.25324686
-0.28906175
-0.28347368
-0.27907358
-0.25470214
-0.2171752
-0.21070449
-0.24465342
-0.2709365
-0.27556557
-0.27685341
-0.2556479
-0.21819584
-0.1902522
-0.21079945
-0.25180235
-0.26793372
0.078034701
0.05958446
0.058003693
0.097518388
0.063613377
0.059920164
0.066123275
0.11571974
0.082401262
0.058410625
0.05864985
0.067329583
0.088905738
0.091735576
0.10825884
0.144473
0.109058
0.071517635
0.071061949
0.067872474
0.06640672
0.089285574
0.11744263
0.10357799
0.099238313
0.065672159
0.048233695
0.034451565
0.053915291
0.083919526
-0.046548519
-0.061653499
-0.045486364
-0.014590184
-0.059034237
-0.030603562
-0.033204797
-0.054036298
-0.044981058
-0.073408405
-0.073496404
-0.11102117
-0.052528916
-0.10486151
-0.052628585
-0.04155429
-0.053144233
-0.086404525
-0.062290908
-0.049892014
-0.05469606
-0.045138823
-0.040653063
-0.057279541
-0.041318138
-0.051365505
-0.085360864
-0.073661676
-0.10563218
-0.042542269
0.0074813546
0.010822059
-0.014218754
-0.0065898783
-0.010411458
-0.021475775
-0.023551618
-0.012786192
-0.01995675
-0.01242709
0.004681319
0.0081123817
0.010698961
0.039364586
0.025997076
0.044559784
0.026674722
0.027492347
0.0056053434
-0.0021546984
0.0045279847
0.0042002651
-0.00060175845
-0.011899083
-0.0042959524
-0.014494995
-0.010387197
0.0076851725
0.014045137
0.016666168
)
;

boundaryField
{
    minX
    {
        type            fixedFluxPressure;
        gradient        uniform 0;
        value           nonuniform List<scalar> 
50
(
0.28703339
-0.23475648
0.081915413
-0.055703365
-0.0010537742
0.28119709
-0.25771167
0.092979335
-0.04961198
0.011719758
0.27688309
-0.24703892
0.089843438
-0.034186079
0.0039701449
0.27409892
-0.23820947
0.10207496
-0.03806711
-0.00733951
0.2724448
-0.23523868
0.12219144
-0.0207799
-0.00067329185
0.27433281
-0.24464483
0.10816381
-0.031205579
-0.00050213447
0.27554241
-0.25003125
0.12429461
-0.043698652
0.015611413
0.27589214
-0.24545403
0.12299527
-0.03558916
0.026022787
0.27647075
-0.24450812
0.087415223
-0.046669129
0.01340939
0.2714169
-0.23887141
0.078034701
-0.046548519
0.0074813546
)
;
    }
    maxX
    {
        type            fixedFluxPressure;
        gradient        uniform 0;
        value           nonuniform List<scalar> 
50
(
0.31739594
-0.2844086
0.15429049
-0.035989995
0.037507465
0.31873293
-0.28463384
0.097358039
-0.047732299
0.027248663
0.31737526
-0.27885872
0.10440941
-0.062609867
0.010651147
0.3081169
-0.25060455
0.093165756
-0.093423104
0.0092762252
0.30164723
-0.23812128
0.10797115
-0.091071504
0.022324508
0.30012945
-0.26122389
0.094311627
-0.048790235
0.0016490584
0.29338154
-0.26056816
0.11177381
-0.079287169
0.041440201
0.30191957
-0.23974198
0.059478985
-0.065597592
0.020993889
0.31182257
-0.22823192
0.049158874
-0.075502492
0.012984616
0.31228295
-0.26793372
0.083919526
-0.042542269
0.016666168
)
;
    }
    minY
    {
        type            fixedValue;
        value           uniform 0;
    }
    minZ
    {
        type            fixedFluxPressure;
        gradient        uniform 0;
        value           nonuniform List<scalar> 
150
(
0.28703339
-0.23475648
0.081915413
-0.055703365
-0.0010537742
0.28939881
-0.20106639
0.046022844
-0.06887845
-0.0083929733
0.2922616
-0.18414288
0.063668348
-0.033143912
-0.009045954
0.29007341
-0.19396518
0.054072002
-0.035935768
-0.0073349434
0.28873932
-0.22646891
0.035401079
-0.059660218
0.0079387191
0.28466342
-0.25493945
0.070142679
-0.056123721
0.0206938
0.29040535
-0.26324408
0.1010103
-0.029026473
0.022130132
0.2844956
-0.26468535
0.096609687
-0.059338273
0.015568743
0.28572559
-0.25329543
0.078737552
-0.073236204
0.01253853
0.29093534
-0.22981527
0.077616824
-0.075206237
0.0082939249
0.29803564
-0.21532322
0.084546502
-0.053448864
-0.0091453352
0.30304445
-0.20214381
0.073210237
-0.046489056
-0.013289702
0.30977518
-0.21678579
0.03718427
-0.086712378
0.00060723685
0.30720867
-0.26076215
0.086082603
-0.086344702
0.021549279
0.30210756
-0.26864606
0.085040693
-0.05015467
0.0097983672
0.29642175
-0.2720756
0.086839299
-0.056740501
0.015492678
0.30391012
-0.23027804
0.033044175
-0.074463945
0.0024281681
0.31532513
-0.19891129
0.069472019
-0.035821875
-0.0087807496
0.3154986
-0.20495863
0.053572834
-0.026842135
-0.004320396
0.31565345
-0.20919144
0.05873067
-0.063469922
-0.0099624703
0.31594807
-0.23861465
0.033445901
-0.066928928
0.016744438
0.31374173
-0.27106068
0.081480162
-0.068886253
0.014424299
0.31572933
-0.29322313
0.069643844
-0.036007002
0.014680568
0.31935534
-0.25762551
0.044067348
-0.096136269
0.007059264
0.32296506
-0.22154659
0.059408206
-0.038907133
-0.0024166233
0.32537586
-0.21781284
0.064607072
-0.064945122
-0.016020445
0.31477573
-0.25491953
0.087208234
-0.092160783
-0.00084933497
0.31654514
-0.26329526
0.07875098
-0.093807855
0.026133678
0.31380459
-0.30362678
0.10362093
-0.06683756
0.018930221
0.31739594
-0.2844086
0.15429049
-0.035989995
0.037507465
)
;
    }
    maxZ
    {
        type            fixedFluxPressure;
        gradient        uniform 0;
        value           nonuniform List<scalar> 
150
(
0.2714169
-0.23887141
0.078034701
-0.046548519
0.0074813546
0.26352838
-0.23358694
0.05958446
-0.061653499
0.010822059
0.2875401
-0.19613991
0.058003693
-0.045486364
-0.014218754
0.28341143
-0.26113473
0.097518388
-0.014590184
-0.0065898783
0.28870239
-0.23090645
0.063613377
-0.059034237
-0.010411458
0.29022739
-0.20388913
0.059920164
-0.030603562
-0.021475775
0.29467561
-0.19626387
0.066123275
-0.033204797
-0.023551618
0.28300906
-0.24195511
0.11571974
-0.054036298
-0.012786192
0.29505183
-0.20714735
0.082401262
-0.044981058
-0.01995675
0.28986106
-0.19967686
0.058410625
-0.073408405
-0.01242709
0.30399282
-0.20727623
0.05864985
-0.073496404
0.004681319
0.29617053
-0.24586874
0.067329583
-0.11102117
0.0081123817
0.30192515
-0.27888445
0.088905738
-0.052528916
0.010698961
0.30140541
-0.25324686
0.091735576
-0.10486151
0.039364586
0.30579354
-0.28906175
0.10825884
-0.052628585
0.025997076
0.3083136
-0.28347368
0.144473
-0.04155429
0.044559784
0.30560583
-0.27907358
0.109058
-0.053144233
0.026674722
0.3070154
-0.25470214
0.071517635
-0.086404525
0.027492347
0.30842153
-0.2171752
0.071061949
-0.062290908
0.0056053434
0.30548397
-0.21070449
0.067872474
-0.049892014
-0.0021546984
0.30153095
-0.24465342
0.06640672
-0.05469606
0.0045279847
0.30270645
-0.2709365
0.089285574
-0.045138823
0.0042002651
0.30667924
-0.27556557
0.11744263
-0.040653063
-0.00060175845
0.3059525
-0.27685341
0.10357799
-0.057279541
-0.011899083
0.30897813
-0.2556479
0.099238313
-0.041318138
-0.0042959524
0.31200462
-0.21819584
0.065672159
-0.051365505
-0.014494995
0.31325519
-0.1902522
0.048233695
-0.085360864
-0.010387197
0.31789665
-0.21079945
0.034451565
-0.073661676
0.0076851725
0.30921661
-0.25180235
0.053915291
-0.10563218
0.014045137
0.31228295
-0.26793372
0.083919526
-0.042542269
0.016666168
)
;
    }
    bottomWater_to_rightSolid
    {
        type            fixedFluxPressure;
        gradient        uniform 0;
        value           nonuniform List<scalar> 
130
(
-0.0087807496
-0.004320396
-0.0099624703
0.016744438
0.014424299
0.014680568
0.007059264
-0.0024166233
-0.016020445
-0.00084933497
0.026133678
0.018930221
0.037507465
0.015457126
0.0010578766
0.028872946
0.026099457
0.026490503
0.021075401
0.010805005
0.0083022026
-0.0096776898
-0.01268355
0.0066629652
0.023655581
0.027248663
0.0057801103
0.011529157
0.021459663
0.024271568
0.038034756
0.028803766
0.011025691
0.019368286
0.0020017949
-0.012802526
-0.011542134
0.007180652
0.010651147
-0.0076953392
-0.013289999
-0.012579423
0.0047391149
0.0028915605
0.0013251485
-0.0013325837
-0.008223731
-0.027285167
-0.017349872
-0.016933003
-0.023033977
0.0092762252
-0.024278953
-0.027904154
-0.026603315
-0.0094894956
-0.0047875597
-0.011035174
-0.021634175
-0.003223879
-0.016796555
-0.0050968201
-0.012527021
-0.01311117
0.022324508
-0.011563885
-0.024629857
-0.0016107267
0.0098613638
0.0091023622
0.0053324113
0.0088787381
0.014548141
-0.0015005142
-0.0084611643
-0.0013730871
0.0088684417
0.0016490584
0.0099460134
0.011664284
0.010890845
0.012321692
0.024654105
0.024282922
0.020083804
0.040017367
0.0089895615
0.0037441394
-0.0023898825
0.019473044
0.041440201
-0.012483339
0.022639931
0.018801176
0.012718675
0.031152416
0.021253386
0.038075397
0.027588667
-0.0090216074
-0.0083333693
-0.0017905738
-0.010178779
0.020993889
0.013956012
-0.0086095209
-0.0016865565
0.013715911
0.0081317727
0.016454136
-0.0054352549
-0.019643514
-0.014159066
-0.017384658
-0.016591257
-0.0091378438
0.012984616
0.027492347
0.0056053434
-0.0021546984
0.0045279847
0.0042002651
-0.00060175845
-0.011899083
-0.0042959524
-0.014494995
-0.010387197
0.0076851725
0.014045137
0.016666168
)
;
    }
    bottomWater_to_leftSolid
    {
        type            fixedFluxPressure;
        gradient        uniform 0;
        value           nonuniform List<scalar> 
130
(
-0.0010537742
-0.0083929733
-0.009045954
-0.0073349434
0.0079387191
0.0206938
0.022130132
0.015568743
0.01253853
0.0082939249
-0.0091453352
-0.013289702
0.00060723685
0.011719758
0.01754292
0.0092074227
0.003683863
0.017252388
0.017213697
0.0067068924
0.0039044908
0.0088954965
-0.0052265992
-0.0090545374
-0.007559312
0.023200511
0.0039701449
0.0064827039
0.021561486
0.02080437
0.013651404
0.029748882
0.015058624
0.012517732
-0.0058126948
-0.016454203
-0.012219484
-0.018303084
0.0010985343
-0.00733951
-0.020483956
-0.0093450496
0.0066542454
0.0071826393
0.013228108
0.0100607
0.0074648352
-0.0041316486
-0.016164932
-0.012832577
-0.020203905
-0.022880594
-0.00067329185
-0.0097746107
-0.018628814
-0.030368053
0.0018033919
0.0043988101
0.017994435
-0.0023788069
0.0045066954
0.0036220882
-0.014825163
-0.012529992
-0.010222882
-0.00050213447
0.0016565245
-0.0015132033
-0.020157728
-0.0016541
0.0042108475
0.004105223
0.012472217
0.015092586
0.035069366
0.025232235
-0.00093311787
0.0086652519
0.015611413
0.014341895
0.0099803905
0.0054682584
-0.018954361
-0.0083388355
0.0094687638
0.023974954
0.03026572
0.032665861
0.019278813
0.0029791086
0.017334034
0.026022787
0.021053983
0.016158723
0.01118048
0.0020287652
-0.011154277
0.0010578444
0.039954473
0.014750901
0.025186709
0.01189815
0.0037670275
-0.0051832176
0.01340939
0.010806633
0.005547432
-0.0011324915
-0.0020780479
-0.0098454526
-0.01173749
0.022665631
0.022360664
-0.0022113077
-0.010264082
-0.014938278
-0.0089665145
0.0074813546
0.010822059
-0.014218754
-0.0065898783
-0.010411458
-0.021475775
-0.023551618
-0.012786192
-0.01995675
-0.01242709
0.004681319
0.0081123817
0.010698961
)
;
    }
    bottomWater_to_heater
    {
        type            fixedFluxPressure;
        gradient        uniform 0;
        value           nonuniform List<scalar> 
92
(
0.021549279
0.0097983672
0.015492678
0.0024281681
0.049853761
0.026527764
0.034268981
0.012853279
0.022926311
0.017193215
0.023280731
0.020790498
0.31349803
0.30003744
0.30801322
0.30362453
-0.21414329
-0.25410678
-0.27000732
-0.25088149
0.042310517
0.086178147
0.072104829
0.071735526
-0.077049945
-0.094505893
-0.039114544
-0.10523089
0.0074595197
0.0074595197
0.013172284
0.013172284
0.01336558
0.01336558
0.015805229
0.015805229
0.28981311
0.31415136
-0.23239616
-0.20642722
0.0719771
0.076717052
-0.065244686
-0.031792968
-0.010222882
-0.024278953
0.28463558
0.30221704
0.30536703
0.31007723
0.29830954
0.29606623
-0.25695798
-0.21631232
-0.20130756
-0.22881793
-0.25055646
-0.25121692
0.090986053
0.058590347
0.074697976
0.060325033
0.084408068
0.10541706
-0.054105144
-0.053277966
-0.055193952
-0.06103667
-0.06721744
-0.06633286
0.0086652519
-0.0059379624
-0.014586161
-0.011472663
-0.011563885
-0.0083845212
-0.0059379624
-0.014586161
-0.011472663
-0.0083845212
-0.013698462
-0.0056312388
0.0012900775
-0.0017747806
0.0057867034
0.022032466
0.020044606
0.011088385
0.039364586
0.025997076
0.044559784
0.026674722
)
;
    }
}


// ************************************************************************* //
