/*--------------------------------*- C++ -*----------------------------------*\
| =========                 |                                                 |
| \\      /  F ield         | OpenFOAM: The Open Source CFD Toolbox           |
|  \\    /   O peration     | Version:  v2012                                 |
|   \\  /    A nd           | Website:  www.openfoam.com                      |
|    \\/     M anipulation  |                                                 |
\*---------------------------------------------------------------------------*/
FoamFile
{
    version     2.0;
    format      ascii;
    class       surfaceScalarField;
    location    "390/bottomWater";
    object      phi;
}
// * * * * * * * * * * * * * * * * * * * * * * * * * * * * * * * * * * * * * //

dimensions      [1 0 -1 0 0 0 0];
oriented        oriented;


internalField   nonuniform List<scalar> 
3858
(
-0.00023290928
5.6517328e-05
0.00017889414
-0.00022119917
-0.00017755641
0.00016806952
-8.2139762e-05
-0.00027697456
0.00013943532
6.6740092e-05
-0.00027563878
0.00012863162
0.0001313696
-0.00012353039
6.0933576e-05
-9.269335e-06
0.00014808748
-4.5752386e-06
-0.00016833528
0.00013820742
2.2480437e-05
-0.00028836534
0.00014783723
-2.4627747e-05
-0.00033601986
0.00010679843
-5.611254e-05
-0.00029858971
-1.1701173e-05
-2.3953967e-05
-0.00018506462
-0.00010352587
-9.8704066e-06
-5.5738864e-05
-0.00021372928
8.3362917e-05
3.7237471e-05
-0.00020475999
0.00010912392
-0.0001018833
6.8153865e-05
6.8768585e-05
-0.00032126013
0.00016254786
5.6085825e-05
-0.00043326224
8.5180922e-05
2.7534811e-05
-0.00037805256
-0.00013752094
8.1494986e-05
-0.00019060888
-0.00028560975
9.4741976e-05
-4.1833958e-05
-0.00027849298
0.00012598081
6.7272828e-05
-0.00020456202
9.1477432e-05
0.0001656316
-0.0001462101
4.3823861e-05
3.5378012e-05
9.9410147e-05
2.7225509e-05
-0.00018938389
0.0001549205
6.5882138e-05
-0.00023025195
-2.2110321e-05
5.8255022e-05
-4.9499714e-05
-0.00022474665
3.8503366e-05
0.00016860608
-0.00024494822
2.0758609e-05
0.00016695435
4.088482e-05
-4.3001525e-05
0.00016679414
8.8038366e-05
-9.1959432e-05
7.7169617e-05
0.00016249635
-7.6367298e-05
0.00013830601
-6.5595245e-05
-0.00038335941
0.00029156792
0.00014830881
-0.00024362106
-0.0004381901
0.00012089534
-8.5460352e-05
-0.00057549425
0.00014035898
6.1298934e-05
-0.00059648756
0.0001740895
0.00022614499
-0.000402318
0.00011394156
0.00017448796
0.00016149643
3.824807e-05
-0.00022510011
0.00060364728
-6.5851797e-05
-0.00050475505
0.00054827799
-0.00012078581
-0.00052533955
0.00022125714
-9.3874214e-05
-0.00036098526
-0.00012402601
-5.2029458e-05
-0.00016488493
-0.00028556644
-1.4059762e-05
2.9088824e-06
-0.00048659463
0.00010507154
0.0002627727
-0.00054247059
7.7846781e-05
0.00015260992
0.00014103625
3.7280395e-05
-0.00033316421
0.00059226161
5.6060373e-05
-0.00053592937
0.00024566231
4.228377e-05
-0.00036828239
-0.00039529625
9.0128339e-05
-0.00016701865
-0.00060496831
0.00011809481
3.1689303e-05
-0.00061490914
0.00013770821
0.00015017848
-0.00047857689
0.00015552571
0.00032577393
-0.0004346992
0.00011289367
0.00015491837
0.00020327038
6.6995347e-05
-0.00039349262
0.00061502304
8.8308458e-05
-0.00037593791
-0.00015806095
0.0001183959
-9.4356556e-05
-0.00055500719
4.8679164e-05
0.00020722815
-0.00056089238
1.435945e-05
0.00038280832
-3.7725337e-05
-9.6970019e-05
0.00051942201
7.8391862e-05
-0.00012696719
0.00034886922
0.00050654775
-0.0001734986
0.00061231718
-0.00012514194
1.5411495e-05
0.00021786422
5.8292197e-05
-6.6633971e-05
-0.00025614968
-9.9994951e-05
-0.00016478565
-0.00049579204
1.8449474e-05
-0.00024072626
-0.00045220891
-6.8338034e-05
-0.00042112687
-0.00014306972
-7.884768e-05
-0.00029740987
9.90628e-05
-6.1283369e-05
-0.00020333126
0.0005146145
-5.045819e-06
-0.00023159365
0.00046559289
0.00011094748
-0.0002005396
6.8414571e-05
0.00012178851
-0.00016395387
-0.00016165528
1.0435383e-06
-7.2291203e-05
-0.00033507728
-4.2151838e-05
-0.0001208711
-0.00041310723
-2.4907514e-05
-0.00035898672
-0.00012986
-0.00017449497
-0.00019855398
5.405346e-05
-7.3449951e-05
-9.6622344e-05
0.00052026659
-2.9936622e-05
3.2635986e-05
0.00018514261
-6.8738628e-05
-5.2156837e-05
-0.00015883667
-0.00015166677
-0.00012835325
-0.00051220492
-1.6566971e-05
-5.9273597e-05
-0.00056828756
-0.00011570123
-0.00011884759
-0.00030183493
-0.00011716795
-0.00027307202
-8.6502007e-05
-0.00019397273
-0.00010345085
0.00012317095
-8.9521706e-05
4.9219597e-05
0.00049381838
-3.1465786e-05
4.6576944e-05
-0.00013364072
-2.1777596e-05
-6.8329557e-05
-0.00046833762
2.8236914e-05
-0.00011339082
-0.00053144014
1.5609014e-05
-5.2942334e-05
-0.00016826947
7.0095644e-05
-6.9541334e-05
-6.5168106e-05
0.00016015897
6.7018208e-07
0.00038297302
5.3363231e-05
0.00062553477
-1.25474e-05
2.1844736e-05
0.0001792002
1.6819282e-05
-0.00014968275
-0.00015091516
6.6292965e-05
-0.00018218211
-0.00049292693
2.9634252e-05
-0.00019924663
-0.00045006322
1.4918825e-05
-0.00030548905
-3.0314703e-05
-6.5125874e-06
-0.00031847302
0.00016958806
-5.7541291e-05
-7.2609742e-05
0.0002419685
2.6782712e-05
6.1864013e-05
0.00025065087
8.0468259e-05
-3.4132569e-05
0.00013719756
2.721359e-05
-0.00020454341
0.00014360787
-0.00013485232
-0.00019980506
-0.00030718025
-3.2635389e-05
-0.00016095486
-0.00046087406
8.9166141e-06
-0.00031619452
-3.073941e-05
5.6119063e-05
-0.00041033115
0.00016197122
-1.3781129e-05
-4.3253516e-05
0.0001689703
-1.5781336e-05
5.6461328e-05
0.00015240335
-6.6975592e-05
-8.8467412e-05
3.0858919e-06
-1.6993828e-05
-0.0001342842
-0.00049586389
2.9475753e-05
-0.00013820884
-0.00055141198
-1.2950939e-05
-0.00021486518
-0.00026221861
3.7040038e-05
-0.00028746928
4.7989248e-05
-6.1887125e-05
-0.00015200833
9.4845357e-05
-0.00010713533
0.00018861232
0.00015492677
-1.7290222e-06
0.00013951216
1.9092991e-05
-0.00010363355
8.9500182e-05
-0.00047005559
5.1729934e-05
0.00013432996
-0.00054572654
-3.0543391e-05
-6.9898468e-05
6.719368e-05
-3.1234725e-05
-0.00040660911
0.00028707354
-1.5530992e-05
-0.00025778063
0.00012644689
0.00010769767
0.00034534649
2.2407662e-05
0.00020422539
-2.5025185e-05
0.00014674637
-9.3436148e-05
-0.00018256881
-0.00016361176
-0.00048648472
-0.0001461473
-0.00042939656
-8.7402866e-05
-0.0002217999
-3.80086e-05
-3.409447e-05
5.4263079e-05
0.0001074479
0.0001091085
0.00015283479
9.181066e-05
0.00020599013
9.0452526e-05
-0.00012465401
2.346389e-05
-0.00052289498
-6.2633093e-05
-0.0004775706
-7.6063797e-05
-0.00023414999
-8.144939e-05
-9.7762607e-07
-6.4202073e-05
0.00024346104
-9.2035329e-05
0.0003321797
-8.5632772e-05
-2.9679111e-05
-0.00013400508
-0.00040925736
-0.00017183372
-0.00047973434
-0.00019174161
-0.00027444964
-0.00015729544
-2.3518953e-05
-0.00015608531
0.00022612267
-9.4714851e-05
0.00034994215
-0.0001047265
2.4692518e-05
-0.00014480596
-0.00047451526
-4.6518768e-05
-0.00051462105
0.00010729946
-0.00033819392
0.00011064642
-0.00027365655
6.1909536e-05
7.1689947e-05
-0.0001576072
0.00015186355
0.00018860217
-0.00020483446
2.2527699e-05
0.00019743416
-0.00014944379
-5.1184477e-05
0.00013914508
-0.00011945236
9.5625702e-05
7.2804806e-06
-0.00013582523
0.00013581914
-5.5252449e-05
-0.00020997771
0.00017104502
-9.8446944e-05
-0.00026922345
0.00016491055
-7.9856025e-05
-0.0003096082
0.0001216692
-0.00010179892
-0.00017026114
-0.00010648845
-8.7810867e-05
1.3329505e-06
-0.00011036913
-8.4715462e-05
4.0694975e-05
6.9493791e-05
-0.00011870435
5.8729523e-06
0.00013026713
-1.2607886e-05
-7.9717438e-06
0.00010841058
1.4817907e-05
-4.6090836e-05
0.00014371761
-3.8167542e-05
-0.00011879185
0.00017632239
-4.8191101e-05
-0.00018169684
0.00015729958
-6.767432e-05
-0.00023132392
0.00014761379
-1.596002e-05
-0.00013962881
-1.0156674e-05
1.1625402e-05
-0.00014618292
0.0001083392
2.4328881e-05
-0.00014200143
9.3383704e-05
-7.5618734e-06
-0.00020399422
0.00013548881
-3.1124683e-05
-0.00028184641
0.00016417972
-6.1122699e-05
-0.00034904053
0.00016636163
-3.5135647e-05
-0.00036167354
7.9412868e-05
-1.1116276e-05
-0.00020790395
-0.00014538066
2.5083216e-05
-6.5813166e-05
-0.00021405847
8.7475824e-05
6.3845777e-05
-0.00020773823
3.0407836e-05
0.00025321082
-0.00026961069
-1.8504959e-05
0.00018069538
5.8090973e-05
-6.5068361e-05
0.00014253692
-3.2079002e-05
-0.00031671879
0.00049390004
0.00012299112
-0.00020974917
-0.0001365425
0.00017299593
-5.401027e-05
-0.0002327355
0.00016617109
9.5431559e-05
1.1383771e-05
0.0001088896
9.4693442e-05
0.00015512997
9.5368854e-05
-0.00022171664
0.0005730964
-4.7393223e-05
-0.00041524806
0.00042560447
-0.0001330143
-0.0003544521
7.1274413e-05
-0.00013118699
-0.00010828746
-0.00037937268
-6.7154621e-05
0.00021783933
-0.00034704609
-0.0001414793
0.0002354148
0.00017661689
-0.00013875833
-5.5202572e-06
0.00055003591
-7.3762194e-05
0.00016768212
2.2617585e-05
-9.5625996e-06
0.00035265772
8.7688965e-05
-9.1666569e-05
3.0003963e-05
0.0006665311
-0.00011149458
-0.00030347273
0.00060550212
-7.2442086e-05
-0.00034405377
0.00027713155
1.1916131e-06
-0.0001449051
-0.00015873334
6.7522795e-05
-2.6910996e-05
7.4666464e-05
5.338685e-05
0.00016248875
-1.0129341e-05
6.9639027e-05
2.1199016e-05
0.00029908711
9.0585131e-05
-0.00036248864
0.00063119066
-1.6327927e-05
-0.00061030626
0.00055559209
-5.3104388e-05
-0.00055314829
0.00014663011
-5.9793503e-06
-0.000265288
-0.00040362911
1.9067296e-05
-5.1251472e-05
-0.00047687916
6.3143612e-05
0.00010906606
-0.00047673067
1.1704892e-05
0.00039484963
-0.00063002629
-5.2335133e-05
0.00045186372
1.3064188e-05
-0.00018548589
0.00064518357
-0.00017592485
3.1083831e-05
0.0004430185
7.8089897e-05
-4.8634885e-05
-0.00011805241
-3.8766334e-05
-0.00021530156
-0.00020963028
0.00016201093
-0.00013295417
-0.00025864373
0.00011934207
-0.00014584367
4.644088e-05
4.2730913e-05
-0.00011197107
0.0005095859
-3.1645469e-05
2.0643359e-05
0.00033074349
-4.2799271e-05
0.00011911761
-6.069743e-05
0.00014444507
-0.00015991009
-0.00010484881
0.00012629234
-0.00028560005
-0.00019955849
-2.0754096e-05
-7.2301888e-05
-0.0001479406
6.9107481e-05
-1.6210881e-05
0.00037280073
9.6236667e-05
-7.2430004e-05
-0.00011606433
2.0406071e-05
-2.5764294e-05
-5.8176528e-05
2.5749833e-05
4.0157638e-05
0.00063992743
-6.925489e-05
8.3428219e-06
0.00059843661
-2.9858302e-05
-3.8973011e-05
0.0001607714
1.2009203e-05
-0.00012013202
-0.00019192212
9.7780811e-05
1.0602101e-05
-0.00025466995
8.2901067e-05
-3.1086069e-05
-0.00012607038
4.0461282e-05
-0.00012703672
0.00020336319
-2.2981215e-06
-0.00015731394
0.00061973715
-4.7790961e-05
-2.0975967e-05
0.00049452936
-0.00010674103
0.00011661463
1.9804281e-05
-3.2542394e-05
-7.0104653e-05
-0.00014615648
-4.251645e-05
-7.1540962e-05
-0.00044636678
-1.3467066e-05
-4.4742829e-05
-0.0004041263
-2.9306845e-05
-0.00033715843
-0.00013847941
-3.8972293e-05
-0.00016655007
-4.5842246e-05
-5.8338672e-05
0.00059353145
-0.00012744533
0.0001834856
0.00025527203
2.1080156e-05
-0.00013936393
0.00031613426
-4.5044176e-05
-0.00030654483
-6.0342273e-05
4.7527141e-05
-0.00033912039
-0.00026665597
5.5506636e-05
-0.00043297174
0.00013251743
1.2622057e-06
-0.00017450794
0.00022833886
-3.4758048e-05
0.00015400215
3.6469176e-05
-7.4530596e-06
0.00021093682
-7.9760966e-05
4.2597123e-05
1.4983093e-06
0.00012602052
5.7827714e-06
-0.00014799305
-0.00012999857
-5.4920889e-05
-1.4024512e-05
-0.00032498758
1.0443054e-05
0.00031737218
-5.2324091e-05
0.00010264474
-1.3819303e-05
0.00023606161
3.5184602e-05
-0.00034568809
0.00031323997
-5.332884e-05
-1.2164263e-05
0.00028712628
3.4959886e-06
0.000241374
0.00031731784
-3.9395094e-05
0.00018241985
0.00014625376
5.6477936e-05
6.313101e-05
-0.00010267187
5.9514335e-05
4.2733686e-06
-0.00025680177
4.8038528e-05
-0.00031827514
0.00022984465
3.6735402e-06
-0.00037749341
0.00023007944
-2.9385078e-05
-0.00011990986
0.00032204828
-6.7030002e-05
0.00017638002
0.00026746639
-7.0955941e-05
9.4273171e-05
0.00012366743
-0.00012538988
2.0598744e-06
2.8234165e-05
-3.044743e-05
8.1003726e-06
-0.00045157665
-3.137402e-05
-1.8473223e-05
-0.00038502918
-2.3758243e-05
-0.00019204062
0.0001143099
-9.4752875e-05
-0.00034476108
0.00025819589
-4.3619988e-05
0.00029019445
-1.9016395e-05
0.00010550391
0.00012474293
0.00024164168
8.6560343e-05
3.332558e-05
-1.5637934e-05
-0.00030840629
-7.1071404e-05
-0.00023668155
-2.6610169e-05
2.2227369e-05
-6.8578662e-05
0.00012866068
-1.5701059e-05
0.00013104323
2.6964981e-05
0.00026569412
8.318029e-05
0.00011175664
0.00011439143
-0.0002698535
8.0086438e-05
-0.00045711673
7.2306054e-05
-0.00037592636
7.8807443e-05
-0.00018654234
4.2406563e-05
3.1270896e-05
5.1109623e-06
0.00024655142
1.000198e-05
0.0003100523
-2.8798994e-06
4.2262413e-05
3.1112933e-05
-0.00037311919
-1.3253884e-05
-0.0003299736
-5.0425348e-06
-0.00023980064
-1.7388935e-05
-1.2033883e-05
-6.1803778e-05
0.00021381634
-5.3098692e-05
0.00029150745
-5.8750192e-05
0.0002760212
-0.00010108555
-0.00017162412
-5.0450111e-05
-0.00054068575
9.1331927e-05
-0.00047032804
0.00015459864
-0.00026929757
0.00011907497
9.258684e-05
-0.00013222929
0.00015817813
0.00016755664
-0.00020236987
0.00011659902
0.00015783793
7.301022e-06
-0.00023347571
0.00016504821
4.6059046e-05
4.7260369e-05
-7.417658e-05
-5.8009359e-05
0.00018529883
-0.00013294362
-0.0001862742
0.00016275291
-0.00012962707
-0.00030423791
0.00013715645
-9.5110653e-05
-0.00027370258
-7.5687353e-05
-5.3423284e-05
-9.628068e-05
-0.00025739731
-7.0199755e-06
5.7967792e-05
-0.00019856861
-3.9069149e-05
0.00021123668
-0.00022626834
-4.6706219e-05
0.00022425433
-5.0510403e-06
-2.0626851e-05
0.00019142802
6.7752132e-05
-2.0105898e-05
0.00010198845
0.0001182499
-6.7342471e-05
-3.9866765e-05
0.00013779624
-4.5233912e-05
-0.00017813842
0.00014775474
-7.8737142e-05
-0.00022679476
0.00010185639
-6.9468288e-05
4.395439e-07
-0.00018957138
-2.9541882e-05
0.00011379821
-3.8948974e-05
-5.1691736e-05
9.5725916e-05
7.4971439e-05
-6.7482021e-05
-3.797703e-05
0.00016354769
-6.3675855e-05
-0.00018945149
0.00013663781
-5.0196912e-05
-0.00027654455
0.00013563051
-8.6959454e-05
-0.00029827188
0.00010412702
-9.7176885e-05
-0.00015340224
-7.0208524e-05
-5.6986155e-05
-4.9326302e-05
-0.00016860493
0.00014640701
2.4276346e-05
-0.00015696107
0.00011000923
0.00017530485
-0.00024666617
7.1948143e-05
0.00017901359
-4.4828697e-05
-2.8482057e-05
0.00010851454
3.402151e-05
-0.00028851286
0.00049133984
7.8342271e-05
-0.0002010276
7.5564625e-05
0.00012654506
0.00023481018
-0.00061804402
0.00011490162
0.00042430995
-1.0963292e-05
-2.2386504e-05
0.00020438977
0.00058457894
-8.3991082e-05
-0.00021574705
0.00065003488
-0.00011453836
-0.00042394761
0.00031415161
-0.0001018089
-0.00027507614
-0.00029414201
-6.1603809e-05
-2.595988e-05
-0.00056195507
-1.1713131e-05
0.00017589533
-0.00044588978
-9.6013336e-05
0.00042139764
-0.00053465808
-7.587091e-05
0.00045485469
-7.7227537e-06
-0.00010454753
0.00050630632
0.00010683046
-0.00010009254
0.00047089474
0.0001733804
-0.00011138549
4.5232219e-05
0.00057031724
-0.00011835304
-0.00040794683
0.00061567773
-8.7186035e-05
-0.00029545181
7.0467537e-05
-7.9914571e-05
9.7266137e-05
-0.00050812419
-6.6423476e-06
0.00033868051
-0.00018294615
-4.4030349e-05
0.00050581218
6.6043132e-05
-8.8564309e-05
0.00030105065
0.00057208464
-0.00011319028
-0.00015284496
0.00069547975
-0.00012127425
-0.00047496504
0.00060275878
-0.0001981126
-0.00057862147
0.00040854939
-0.00020674534
-0.00033475053
-0.00018473225
-0.00011027994
-0.00014164843
-0.00043001181
0.0001314484
1.2705997e-05
-0.00042563591
0.00012602533
0.00028824502
-0.0005449879
-2.9552395e-05
0.00038119646
-0.00015149987
-0.00017176612
0.00052625577
-0.0002124696
0.00021125506
0.00036466073
-6.4860525e-06
0.00031050143
-1.5714512e-05
-4.6733575e-05
-3.5732913e-05
-0.00012486581
1.5067067e-05
1.7925238e-05
-0.0001279472
0.00018266782
6.0973524e-05
0.00042465679
0.00015960478
2.6997863e-05
0.00065153177
8.3330878e-07
0.00017399001
0.00019674457
-7.2384377e-05
0.00017100803
-0.00010534084
-4.1374114e-05
3.4882558e-06
-0.00021889335
-4.9249612e-05
-8.1448779e-06
-0.00036947845
-8.5532297e-05
-3.0633557e-06
-0.00050282298
3.2190867e-05
0.00017411115
-0.00026964285
0.00018098227
0.00022879764
-7.0311128e-05
0.00014286117
0.00018742179
4.6175076e-05
0.00019433101
0.00015032705
0.00048733029
5.082679e-05
0.00017839715
0.00055651442
1.2349113e-06
0.00021303803
1.278955e-05
3.504629e-05
2.6830528e-05
-0.00029084156
6.6705672e-05
-6.5219217e-06
-0.00023401045
0.00016731783
7.1387445e-05
-9.8393575e-05
0.00012698864
5.9149969e-05
0.0004714977
0.00011052631
-4.1730879e-05
0.00071623403
3.2335594e-05
-5.3411484e-05
0.00058010249
-7.2404171e-05
8.0916132e-05
0.00028211785
-4.0438507e-05
3.636601e-05
-0.00011942416
-6.3274435e-05
-0.00015323855
-0.00015266066
-0.00010121365
-3.359421e-05
-0.00046753652
-0.00010705055
-0.00013617465
-0.00037805438
-0.00010332533
-0.00011511275
-9.1596351e-05
-0.00013930405
0.00043237623
-0.00014867851
0.00035101824
-1.8352686e-05
5.3075328e-05
0.0002530715
8.5024318e-05
-4.7836274e-05
-1.3224121e-05
0.00019059071
-1.6337618e-06
-0.00024626615
0.00015986445
7.3701849e-07
-9.6597405e-05
0.00016675763
0.00010949263
8.5690368e-05
0.00039738055
3.7105405e-05
0.00021641908
0.00014373583
-8.5173026e-05
0.00016032961
7.759655e-05
-8.4250804e-05
0.00016016898
-0.00013679062
-7.6159335e-05
0.00020987454
-0.00038533351
-8.8771401e-05
0.0002800868
-0.00052033403
-4.225815e-05
0.00033317545
-0.0002570338
3.6947046e-05
0.00016839227
0.00014309984
-1.3443181e-05
-5.6339172e-05
0.00023694163
-1.9363941e-05
9.0739098e-05
0.00024723147
9.651654e-05
0.00035492836
0.00025914925
-6.2191914e-06
0.0002225064
0.00018021646
2.1472959e-05
0.00023482835
-0.00027860431
3.4955119e-05
7.5403223e-05
-9.2317577e-05
6.5770781e-05
-0.00024509208
0.00028538491
-5.9609618e-05
-0.00015442557
0.0002670711
8.4375005e-05
3.7910545e-06
0.00047297623
1.8011179e-05
0.00015815562
0.00037374073
-1.8958778e-05
0.00023321636
0.00017337273
-9.1705526e-05
2.0173075e-06
0.00028269696
-0.00020136952
-9.6285579e-05
3.7008108e-05
-0.0001227399
2.6116304e-05
-0.0004984589
-0.00011523772
-5.2414497e-05
-0.00033696162
-5.7314787e-05
-0.00019324947
0.00013616043
-0.00013054175
0.00020012361
1.9986787e-05
-0.00011087567
0.00021726592
-0.00015983043
0.00022053942
-0.00016411871
0.00017924105
-0.00018420992
0.00010888426
-0.00014395709
9.989463e-05
0.00011872471
6.6120094e-05
0.00028670341
-3.9943928e-05
0.00042908705
-3.7822116e-05
0.00044986926
-7.4392547e-05
0.00030042803
-0.00012150085
-6.4417003e-05
-7.5402554e-05
-0.00032867612
7.9531378e-05
-0.00025419163
0.0001474228
-0.00010259273
0.00012774929
5.980641e-05
8.9943296e-05
0.00024568358
8.3274051e-05
0.00034930929
7.3710836e-05
-5.0137483e-05
0.00015195539
-0.00036559986
0.00020989092
-0.00028930191
0.00020404442
-0.0002115336
0.00017191386
5.7789567e-05
0.00014184928
0.0002511805
0.00012725107
0.00025795165
0.00010785137
0.00037870873
6.0854313e-05
0.00030249487
6.277187e-05
-0.00014703112
4.2399044e-05
-0.00042329131
9.3897249e-05
-0.00025925933
9.1203467e-05
3.3451142e-05
-0.00011032133
0.00014530326
0.00013803413
-0.00021747041
0.0001656959
0.00010625603
-9.223742e-05
-8.2614071e-05
0.00012842342
0.00011588307
-0.00028926724
8.6343099e-06
0.00014315861
-8.2969561e-05
-7.6257017e-05
3.8615794e-06
6.402024e-05
-5.4267299e-05
-0.00018914598
0.00010809136
-8.8065741e-06
-0.0002393782
-4.450091e-05
4.3955803e-05
-0.00011536547
-0.00021041965
8.0072405e-05
2.624857e-06
-0.00018520042
2.9867819e-05
0.00013825964
-0.00026314087
7.9865991e-05
0.00018873063
-0.00020674955
0.00013504603
0.000199761
-0.00017636606
0.00014430826
0.00029697196
-0.00016776086
0.00019075626
6.0660863e-05
-4.2043334e-05
0.00015184642
-0.0001751359
6.2292965e-05
-8.7683172e-06
-0.0002738459
7.4194161e-05
0.00012782672
-0.00024546212
5.5106053e-05
0.00022624194
-0.00020356115
3.4565588e-05
0.00018762939
-7.5446752e-05
4.7671957e-05
-2.8511264e-05
0.00010111251
6.1699643e-05
-0.0002025944
0.00010464215
-2.0532979e-05
-0.00010337392
-0.00012713764
-7.2534223e-05
0.00010436198
-0.00016560394
-0.00010429124
1.9545268e-05
0.0001255684
0.00010441261
-6.0447332e-05
8.2632508e-05
0.00010563358
6.5164961e-05
-0.0002345712
0.00017818602
0.00014572354
-0.00013243977
1.9922587e-05
9.6768309e-05
8.0656072e-05
-0.00018957457
0.00031811895
9.5101145e-05
-0.00014036335
0.00016058312
8.2446618e-05
0.00012433904
-0.00031937553
8.6960678e-05
0.00045118504
-0.00063651281
-1.9869332e-06
0.00059435248
-0.00020821128
-0.0001019168
0.0001112359
0.00058634013
-0.00015374166
-0.00035189081
0.00053135715
-6.1947975e-05
-0.00034067287
-0.00016418496
4.6862296e-05
-0.00014317574
-0.00048775345
6.8123523e-05
4.8784166e-05
-0.00041278549
-6.0388165e-05
0.00022277334
-0.00052476336
1.1762412e-05
0.00026609352
-0.00047720151
0.00012258426
0.00025716864
-0.00043985055
0.00017231684
0.00044627084
-0.00046824854
0.00031888456
6.9694098e-05
-0.00022459607
0.00060814102
-0.00028468026
4.2462576e-05
1.6686089e-05
-0.0006198342
3.7979587e-05
0.00021149923
-0.0005554977
7.1192097e-05
0.00038837489
-0.00049079318
2.1792062e-05
0.00048684893
-0.00026951661
-1.7594457e-05
1.7653751e-05
0.00046065942
-1.1626002e-05
-0.00034881573
0.00039756314
-0.00012456414
-0.00018272929
-0.00037496052
-0.00012500894
8.4618281e-05
-0.00041331823
-0.00012991323
2.0776719e-05
0.00023318613
8.7672239e-05
-9.7795464e-05
0.00016827908
0.00015895096
0.00010493012
-0.00058698061
0.00012013149
0.00020503076
-0.00036979477
-3.4511735e-05
0.00014595052
-5.6621013e-05
0.00028572315
1.3328193e-05
1.2581554e-05
0.00051842511
-0.00010454293
-1.4309496e-05
0.00042365871
-0.00010533028
-0.00010421179
8.633767e-05
-0.00011186475
-4.6591866e-06
2.1953139e-05
-8.0085066e-05
9.5863114e-05
4.3943113e-05
0.00051145926
5.3724215e-05
0.0001044261
0.00042774749
-2.9257697e-05
0.00011656141
-6.4189542e-05
-0.00015350485
-2.6318821e-05
-0.00018898759
-0.00020513525
3.0812679e-05
-0.00035223434
-0.00020321496
7.3408612e-05
-0.00046904912
-6.6119299e-05
0.00013765696
-0.00044772512
8.725754e-05
9.0864692e-05
-0.00033398281
8.3785732e-05
-6.6611959e-05
-0.00011644087
3.6373806e-05
1.7535127e-05
0.00016238168
0.00048336805
0.00025215013
-1.22596e-05
0.00013197191
-0.00042116079
-1.1789543e-05
0.00015248055
-0.00047669735
6.8008831e-05
2.3601918e-05
-0.00028324063
4.8314733e-05
-3.0760373e-05
-9.8389376e-05
-6.2386395e-06
2.9085742e-05
0.00035937676
7.3772114e-05
0.00011571788
0.00027683207
-3.8305281e-05
-8.321165e-05
-0.00013731416
-7.9155378e-05
-0.00039683918
-8.7465819e-05
-7.5499326e-05
-0.00014268698
-7.7138053e-05
-4.5041658e-05
0.00017990507
-0.00028917792
2.7814442e-05
8.081516e-05
-0.00049818277
-9.3033225e-05
-7.5291431e-05
-0.00031037229
-4.2619884e-05
2.809781e-05
-0.00010611719
0.0002135884
-0.00022458021
7.7395317e-05
0.00024075867
-0.0002193837
3.9834218e-05
0.00012222775
2.8499419e-05
-1.6932548e-05
-0.00012020789
0.0001649332
-3.3625289e-05
-0.00022868211
8.7143664e-05
5.0738126e-05
-5.1300052e-05
0.0002266432
0.00014453943
0.00014040692
0.00017021524
-1.9347755e-05
0.00010334007
6.9727797e-05
-0.0001811013
7.0305378e-05
-0.00010882295
-0.00012328929
8.2528441e-05
-0.00032715927
-0.00012606953
8.1067219e-05
-0.00044712715
-6.2718898e-05
6.8024905e-05
-0.00043406454
3.6328797e-05
7.669334e-05
-0.00030616837
-4.9926037e-05
-8.5528952e-05
2.6417485e-05
-0.00010211358
0.0001306363
0.00023183709
0.00014319817
0.00011506596
0.00012598448
9.7562488e-05
-0.00040249998
3.3797752e-05
9.2151852e-05
-0.00048070257
7.5186639e-05
-5.9660984e-05
-0.00017051231
-2.0525101e-05
-0.00023566938
0.00010651736
5.5476647e-05
-4.835493e-05
0.00014736423
4.2709235e-05
0.00010826722
0.00010661593
-5.3648449e-06
-3.1534989e-06
1.3851087e-05
-0.00013145007
-0.00015265013
7.8103872e-06
-0.00014714912
-7.4721706e-07
-0.00024419453
-0.0001075863
0.00015775352
-0.00044297698
-0.00011993937
0.00017943572
-0.00050455549
-7.2624212e-05
0.00011037612
-0.00026148409
-0.00011037024
0.00022307883
-6.4618067e-05
-0.00016631028
0.00015899599
-0.00032516945
0.00016001488
-0.00031279063
0.00019536165
-0.00022623598
0.00018726281
-0.00016659405
0.00012739637
6.3909815e-06
0.00011977827
0.00015421321
-1.7550917e-05
0.0002811935
-9.507461e-05
0.00031639611
-0.00021841812
0.00020616321
-0.00033842721
-4.0396217e-05
-0.00027597027
-0.00029456221
-0.00010036715
-0.00039679465
-5.6513124e-05
-0.00024262787
-2.2048278e-05
0.00020442394
0.00040411924
0.0001113478
4.2226846e-05
-0.00028800017
0.00012853632
-0.0003703095
0.00011584143
-0.00019716369
0.0001052854
-3.583363e-06
9.5633144e-05
0.00015877439
7.1509232e-05
0.0002900895
-9.6126941e-06
0.00040832185
-4.9567637e-05
0.00031391714
-8.701795e-05
2.5249912e-05
-0.00011191067
-0.0002789617
-0.00010644657
-0.00034404445
-0.00010519781
-8.7514472e-05
-5.7880385e-05
0.00012036816
8.1250039e-05
-0.0001450658
0.00013948998
5.9691188e-05
-0.0002118046
0.00015131211
5.1872418e-05
-5.3866152e-05
-0.00016568436
2.1897931e-05
0.00017405443
-0.00027606361
-2.7182369e-05
0.00021431915
-6.1982882e-05
-3.1594057e-05
6.6028167e-05
0.00011954514
2.0958663e-05
-0.0001076439
0.00015811385
6.1431338e-05
-0.00019153157
0.00013060426
3.8234835e-05
-5.992675e-05
-0.00014683128
4.7426745e-05
0.0001201087
-0.00024489552
0.00014648596
0.00012685719
-5.4686933e-05
0.00018583229
9.116455e-05
0.00018193508
2.2101788e-05
-0.00014075484
0.00018923596
0.00014546196
-0.00026781848
0.00019558824
0.00027100657
-0.00024879024
0.0001544237
0.0002460536
-8.2491243e-05
0.00015305169
1.6235378e-05
0.00013054837
0.00015829035
-0.00015921076
7.4964331e-05
7.7224465e-05
-2.2848622e-05
-0.00026444603
5.2174288e-05
0.00021786776
-0.00031704782
-3.4168349e-05
0.00020741047
5.9348142e-05
5.5790737e-05
8.4404423e-05
0.00013221717
9.4390055e-05
-1.0351202e-05
9.0414949e-05
0.00018361467
0.00010895193
-0.00019710811
9.4120072e-05
6.363556e-05
0.0001251195
-0.00016433137
0.00023771009
0.00014209058
-0.00022173116
0.00016627261
0.00011306377
-5.8608468e-05
-1.7755161e-05
9.2905256e-05
0.00022532138
-0.00046456771
1.2966579e-05
0.00051236992
-0.00061335207
-5.1676876e-05
0.00059481864
-0.0001659138
-0.00013225946
0.00010575264
0.00066266702
-0.00011600386
-0.00023675064
0.00045506071
9.2418706e-05
-0.00021604474
1.9594924e-05
0.00015842695
-6.9952856e-05
-0.00045655292
0.00010324158
0.00011436878
-0.00057883519
0.00016138046
0.00020339764
-0.00025302185
0.00023189035
0.00021131386
0.00025556518
1.8056166e-05
-0.00034479491
0.00022396349
0.00011875724
-0.00056585504
0.00026852758
0.00032030753
-0.00055065456
0.00012210609
0.00038949166
-0.00028967623
0.00012040638
-0.0001176835
0.00049995949
0.00012613802
-0.00024182167
4.6522258e-05
2.801607e-05
-3.2489838e-06
-0.00061955584
-8.4718327e-06
0.00029405482
-0.00064560183
-9.8663031e-05
0.00036569579
8.8836301e-05
-1.345688e-05
-2.7713704e-05
0.00060646508
7.8112578e-05
-9.069531e-05
8.4315214e-05
0.00018921286
0.00016318222
-0.0005160207
3.0523373e-05
5.2472966e-05
0.00011772383
0.0002065473
-7.0097356e-05
0.0001138417
0.00039956373
-0.00015850081
0.00011744748
0.00056109666
-0.00031206353
2.8563648e-05
0.00038455541
-0.00025675886
-3.5926785e-05
-1.6131522e-05
-8.5555696e-05
-3.1246317e-05
-3.0729329e-05
-0.00011267898
1.5087216e-05
9.4961279e-05
0.00057177281
-6.4054105e-05
0.00015286967
0.00030652173
-6.2874276e-05
0.00021438037
-5.9950148e-05
-0.00018710089
7.8234063e-06
-0.00011223749
-0.00034097342
-0.00014581599
-0.00028122707
-0.00021008801
-0.00015745884
-0.00016052514
6.4037096e-06
2.103205e-05
0.00011660871
3.9750137e-05
-0.00042098034
2.4645731e-05
1.9803172e-05
-0.00046608523
-1.1814014e-05
-0.00010810298
-0.00033632058
-3.8113109e-05
-0.00010022019
-0.00013997868
-0.00016381898
6.9038995e-05
0.00037651667
2.7955716e-05
0.00029206801
-0.00019288995
-2.1922131e-05
8.2962899e-05
-0.00036008598
-0.00012952015
-0.00034565316
-0.00013994468
-0.00015254042
-0.00014341121
-9.6806706e-05
-6.1640589e-05
0.0001705302
0.00026932074
5.1017395e-05
0.00035471586
-0.00019136039
-1.5432287e-06
1.0689108e-05
-0.0002004349
-1.4178854e-05
-7.2814725e-05
2.9859634e-05
0.00011988141
-0.00024536504
0.00013278158
0.00013631777
-0.00029070709
0.00015560414
7.7776375e-05
-0.00031075848
4.0303797e-05
-2.425568e-06
-0.00020828223
-1.8999756e-06
-0.00013115641
0.00010656944
-1.2656163e-05
-0.00022788627
6.9719374e-05
5.8870936e-05
5.7259133e-05
0.0001997794
6.7500254e-05
0.00027656984
-5.7395072e-05
-3.6495206e-05
0.00022976992
2.8408791e-05
-0.00016484832
7.185005e-05
9.6821052e-05
-0.00017720821
-4.9271128e-06
-0.00019307268
-7.4096114e-05
-3.7871973e-05
-0.00010947456
1.822309e-05
-9.4941536e-05
2.8175586e-05
-7.7753414e-05
-0.00039643247
8.7003281e-05
-8.7424718e-05
-0.00044513469
6.3907386e-05
-0.00017858019
-0.00032389657
5.820635e-05
-0.00023073096
-4.1873132e-05
9.5218424e-06
8.1507462e-05
6.6779844e-05
4.0207598e-05
0.00014069381
-0.00020172667
-5.5714507e-05
7.8540536e-05
-0.00036408102
-6.530179e-05
-0.00015127256
-3.8575175e-05
-1.8705535e-05
-0.0001583346
-0.00015173885
-4.5592107e-05
0.0002741677
-0.00025487285
-2.8248056e-05
0.0003719736
-0.00029628066
-6.5509765e-05
0.00025781188
-0.00012520491
-7.1438466e-05
0.00022662165
-0.00010624254
-8.4932425e-05
-1.4366315e-06
-0.00020961002
-6.0146167e-06
-0.00033082211
5.815262e-06
-0.00044192164
9.0080109e-05
-0.00030092222
9.2966396e-05
-0.00016890711
5.7482525e-05
1.9766587e-05
-6.4452112e-06
3.7730829e-05
-0.00017043393
9.5908494e-05
-0.000248187
0.00019691071
-0.00034260838
4.716955e-05
-0.00031930179
1.1780226e-05
-0.00017445238
-0.00013967443
-0.00015882633
-0.0001953793
-0.00032505948
-0.00015036523
-0.00037154629
-0.00016156834
-0.00019468231
-0.00011345174
6.8061419e-05
-0.00010033076
0.00012306567
-0.00018522172
4.2452732e-05
-0.00029308079
0.0001846081
-0.00023029818
0.00018455886
-0.00023870755
-3.1186823e-06
-0.00017910593
-0.00022795544
-0.00017789044
-0.00026924697
-0.00018911117
-0.00013013979
-9.4893332e-05
0.00014168875
3.9704531e-05
-0.00021474723
0.00014126976
4.3872711e-05
-0.00025316465
4.779562e-05
4.9180266e-05
-5.0185819e-05
-0.00025723546
7.8972905e-05
0.0001446381
-0.00024881375
2.7631797e-05
0.00025428662
-7.7728191e-05
-6.321084e-05
0.00022347851
9.0231146e-05
-3.6801509e-05
0.00014863788
0.00014558701
-6.9829254e-06
8.040811e-05