/*--------------------------------*- C++ -*----------------------------------*\
| =========                 |                                                 |
| \\      /  F ield         | OpenFOAM: The Open Source CFD Toolbox           |
|  \\    /   O peration     | Version:  v2012                                 |
|   \\  /    A nd           | Website:  www.openfoam.com                      |
|    \\/     M anipulation  |                                                 |
\*---------------------------------------------------------------------------*/
FoamFile
{
    version     2.0;
    format      ascii;
    class       volScalarField;
    location    "390/bottomWater";
    object      T;
}
// * * * * * * * * * * * * * * * * * * * * * * * * * * * * * * * * * * * * * //

dimensions      [0 0 0 1 0 0 0];


internalField   nonuniform List<scalar> 
1460
(
971.10063
968.9489
966.80087
964.53299
964.68547
967.24882
964.35045
960.02225
957.88226
955.98291
954.31651
953.0331
952.68386
954.90282
955.43588
954.25209
952.71783
951.52445
951.1409
951.78342
952.37814
952.75081
952.22882
951.39684
951.07988
950.96505
952.75042
953.3621
954.11768
954.4153
969.0699
968.35438
965.55624
962.35572
962.16166
963.89481
961.70501
956.6511
954.93377
953.67495
952.90011
951.65927
952.40214
952.97241
953.76223
953.00233
952.30645
951.05272
950.7316
952.21441
953.48923
953.5255
952.71102
952.21065
951.69736
952.30165
953.04178
953.64204
953.99952
954.34372
969.43918
969.39934
965.68142
962.04213
962.0211
962.0384
960.8516
956.40011
954.95126
954.10076
953.0468
951.28504
952.43496
952.93725
953.67057
953.0443
952.74684
950.52135
950.45746
952.25261
953.69191
953.50503
952.93818
953.17814
951.4243
952.30341
953.56157
954.95509
954.53346
954.63071
969.7597
968.78177
966.283
961.44034
961.10268
961.12296
960.59735
956.90187
955.94047
954.07336
952.9576
950.44873
952.61182
953.56599
953.66804
953.12963
952.64742
949.7276
949.96633
951.74539
953.58763
953.52171
953.23268
953.30302
950.99196
952.02308
952.86207
955.03029
955.00127
954.88057
969.16977
968.99918
967.0964
961.16881
960.28879
960.11135
959.59021
957.37251
956.30642
954.90937
953.99648
949.44443
949.73588
950.17869
950.40315
950.47129
949.81716
948.79239
949.44932
950.48107
950.98192
951.31254
951.39912
950.67101
950.15264
952.28591
953.40788
953.98693
953.88597
954.17894
973.03822
971.29523
969.57629
968.33693
967.55215
965.0306
962.77012
961.13812
959.19991
957.72826
955.87084
955.40256
955.64182
954.07172
951.77843
949.2777
953.11626
954.07762
954.84926
954.38786
953.84112
952.81629
952.26832
951.74566
951.40598
951.4843
952.83957
952.62446
952.80619
952.68477
970.05419
968.61589
966.10631
964.68668
964.52477
962.92996
959.68375
958.46878
957.13123
955.27587
955.13232
954.05254
953.68555
952.56649
951.60466
950.00156
952.39454
952.60368
953.44447
953.31606
953.84463
953.01088
952.50028
952.44961
952.46351
952.02101
953.1936
954.05027
953.65136
953.41401
970.19548
970.33541
965.41889
963.86603
963.42842
962.59111
959.68611
958.25978
956.97737
954.64141
954.24493
953.83087
951.27924
950.96838
951.20174
949.48291
951.63295
951.26049
951.13832
952.37838
953.68417
953.01222
952.52508
952.69402
952.5969
951.59246
952.97162
954.18078
954.05447
953.48231
970.35874
969.265
965.07207
963.23617
962.17837
962.04399
959.81991
959.0826
958.72609
954.85162
952.87092
952.11698
951.62562
950.65395
950.95018
948.96183
949.90409
949.86911
949.66575
952.4606
953.23729
952.98665
952.60688
952.65341
952.49127
950.97934
952.65563
953.41529
953.97354
953.67731
969.93983
969.47539
969.35607
963.86787
962.14644
962.12548
959.76921
958.65738
957.76192
956.5468
951.96532
948.26748
948.99467
948.43721
948.25147
947.15642
946.98779
946.04863
949.46042
951.27052
951.83084
951.82649
951.55507
951.10155
950.58659
950.68828
952.61841
952.95799
953.15902
953.12427
975.54313
973.60842
970.86441
975.3563
971.48171
965.758
961.86532
960.54559
959.34452
957.90683
954.71948
954.67978
954.60717
952.3228
947.24619
942.08785
944.9931
946.44377
951.52937
951.03716
951.45311
951.02164
951.03461
950.70301
950.43525
950.77317
951.60878
951.48743
951.63862
952.20127
972.30879
970.54339
969.13479
968.74125
968.69329
965.03196
959.6779
958.98952
958.76248
956.42622
954.82704
952.91032
951.41
950.04161
947.9071
943.57236
945.12647
947.23266
949.39167
950.22516
950.7948
950.7338
951.56736
951.7974
952.10599
951.6415
951.01501
952.23207
952.42176
952.5908
972.59118
972.49629
969.83501
966.3845
968.11723
965.20795
960.1057
959.53652
958.86198
957.05888
955.30345
952.43338
951.5463
950.57097
948.44326
944.46216
945.72023
946.53754
948.58739
951.37215
951.24156
951.05023
951.65577
951.95274
952.01657
951.38359
950.55546
952.13653
952.82919
952.82872
972.22143
971.50056
969.20324
966.73497
967.369
965.09822
960.94042
960.22171
959.35014
957.72935
955.28976
951.83372
951.32893
949.98579
948.29121
944.839
945.45276
945.1518
946.82553
950.32247
951.55031
951.28971
951.78438
951.75654
950.96546
950.36194
950.2025
951.95407
952.77828
953.04683
968.44198
967.84361
966.61396
965.58952
965.36812
964.39854
961.32342
960.20774
959.18383
957.69141
954.41037
947.81138
948.28042
946.99407
946.19955
943.69844
943.42007
943.54694
948.71718
949.86629
950.5767
950.75181
950.96726
950.69761
950.43535
949.98492
950.41438
951.99336
952.21321
952.34532
978.07414
975.48671
972.80455
970.59689
970.69744
969.16285
959.87238
958.44044
956.7584
954.54921
949.05719
948.20126
946.75964
942.52006
940.53517
935.63445
935.98759
939.27519
946.06788
946.95056
947.65244
948.51619
950.79463
950.59668
951.83971
952.4073
952.84761
951.13384
951.50607
952.64892
974.6226
972.52261
970.3106
969.31269
968.80684
968.51073
960.32019
957.77266
956.46357
952.64332
947.6502
946.13419
944.07206
942.41018
940.7738
937.00241
936.32815
938.07744
944.37236
946.50593
947.20364
947.54855
950.68092
950.77706
952.36474
952.52067
951.97447
950.94198
951.91701
952.54994
974.05916
972.03731
970.81044
969.10596
968.24139
968.48334
960.90125
959.87325
957.99513
953.3704
946.96912
945.13346
942.6622
942.98233
939.52723
936.03806
935.88942
937.47131
944.10798
947.10025
948.16884
947.96961
950.52517
950.39115
951.77566
951.83033
950.29842
950.87857
951.95828
953.02051
968.43206
967.58712
967.89485
967.28557
967.68954
967.6974
960.58868
959.92491
957.96329
954.0164
946.68059
941.37923
937.40982
937.40579
938.78528
934.71213
933.43194
936.43993
944.1344
946.63896
948.80791
948.58647
950.73993
949.03585
949.08352
949.00699
948.66607
950.62329
951.68224
952.97215
967.29058
966.51722
966.12479
966.14746
966.19889
966.55835
959.92268
958.64037
957.32687
954.12418
946.47639
938.99594
937.92552
936.86916
936.43658
933.73239
933.43568
935.84972
945.29945
948.13039
948.44946
948.59798
949.55317
948.88732
948.27
947.85228
947.7063
951.04596
951.84122
952.15067
981.13652
977.62115
974.49985
971.10882
968.77799
970.2517
968.42429
960.0828
956.88416
953.06627
946.45848
948.88058
942.49815
922.25369
939.68432
941.94126
943.84668
946.24451
950.27284
948.45558
952.7131
954.20541
954.42892
953.91812
952.71327
954.2338
976.06013
973.48603
971.48464
967.73181
967.34584
967.13845
966.89372
957.85299
954.78045
951.48128
942.76748
942.01573
939.50162
924.24487
940.15665
942.37212
943.17189
945.53407
949.16951
947.34376
952.90407
953.70674
953.65577
952.56074
953.07214
953.44189
973.63134
971.28101
968.73631
967.52534
967.2507
966.94088
966.11949
959.77227
959.60982
954.30195
942.63478
938.44193
936.05569
925.82607
939.71532
942.40735
943.35851
946.39542
946.91819
946.49526
952.2307
953.85545
953.77951
952.92249
952.99547
953.39596
966.90344
966.02423
965.19717
964.53853
965.09905
965.01573
964.86465
960.40732
959.63294
954.13799
944.34466
935.51244
923.67381
928.62436
939.99816
942.48957
946.13713
947.12765
945.07053
944.1385
947.92921
949.8373
950.97772
952.0726
952.68231
953.41074
966.05069
965.07261
964.39889
963.70279
963.0587
962.05835
960.82461
957.41481
956.70977
951.91231
945.1275
938.04749
921.94215
928.62528
938.82887
940.57198
941.92407
943.355
942.82927
942.2236
945.72225
946.48167
947.60011
952.53097
953.07289
953.02093
982.62138
977.12464
972.97727
968.63793
968.12974
969.20613
969.7314
967.12143
963.73849
959.06046
952.59136
952.73465
936.52894
916.88864
937.32489
939.19289
942.28942
945.32391
952.32634
954.06705
955.13803
959.40484
958.35539
956.74731
955.33287
956.04999
976.51253
973.10581
970.26053
966.29444
965.89456
965.93276
966.46596
964.35731
958.5937
954.26894
946.08148
946.76045
937.69363
918.68144
936.64243
935.00768
938.03259
941.50186
951.01429
950.83283
954.53105
957.51849
957.4839
954.9782
956.7203
955.69931
975.79986
973.48058
970.88193
966.22114
965.70343
965.82517
966.14252
963.47929
960.29848
954.11283
943.57207
947.31722
935.19358
917.35019
928.02482
931.58059
936.85452
942.12654
948.03143
948.84069
954.01522
958.10102
957.63476
956.71226
956.86222
955.48296
972.40652
970.01411
968.69778
962.74539
964.10856
964.43857
964.6771
962.18978
961.24107
954.29757
942.2146
940.62533
931.8664
923.02295
933.42254
940.73942
942.01392
943.54267
946.38962
946.56452
949.66514
954.43413
954.58153
955.08977
955.31433
955.50721
971.0753
970.38714
968.06976
962.02203
961.48282
961.34585
959.92419
958.58099
958.37838
951.98212
944.88421
940.30358
927.05912
927.01926
933.48606
935.54622
938.0912
940.57907
940.59382
942.074
945.97961
947.61745
949.17919
953.62731
954.66372
954.77986
983.94921
978.28901
974.63547
971.43906
968.66068
967.12325
968.53583
969.53783
962.457
948.26347
944.18057
939.52395
933.88616
929.25463
925.57145
924.13272
923.9465
926.41291
932.55659
936.65755
939.97273
942.99883
947.26356
951.83214
956.59684
960.09503
961.06742
960.7558
958.09077
959.46638
977.15564
973.18514
970.68107
968.44872
966.56981
965.59311
965.98648
967.09597
965.24386
951.39572
941.55553
937.71983
934.0523
932.13387
929.49203
928.46504
925.59571
925.2903
930.05183
932.71653
935.88677
939.23702
946.41066
953.57926
958.33429
958.41867
958.33776
957.71703
957.88203
960.16045
976.94655
973.79934
972.23798
970.99037
966.51477
965.06008
965.51647
965.65686
965.08702
952.60949
941.53823
938.92963
936.0348
933.6367
931.03512
929.74552
928.84947
925.18611
928.3454
930.64804
934.32401
938.04225
944.07492
949.90389
953.30997
958.96007
958.46443
958.04575
958.25644
958.59965
975.7584
973.61345
972.25136
970.09304
964.75434
962.35604
963.87359
963.70285
963.67565
953.24832
942.412
939.89526
937.20647
933.97538
932.7594
932.28221
932.04676
930.75686
932.43271
933.39296
935.08453
938.10654
942.61678
945.77465
949.405
957.4747
956.18002
956.82736
957.11037
957.6781
974.77956
973.55003
972.59991
972.04057
964.92903
960.02043
960.78026
960.92039
960.62169
952.46036
945.40588
941.98482
937.07068
934.49703
933.9329
932.82981
932.25304
930.81512
932.4611
933.49605
935.03428
937.67399
940.51461
942.5598
946.72891
950.00581
950.60923
955.21532
956.35358
956.8262
982.46653
978.97227
976.56095
974.82209
972.26636
971.12448
972.89439
973.60448
966.56571
955.59686
951.60771
948.26542
945.012
942.89456
936.9009
930.48757
934.87541
936.71331
939.61299
942.02012
944.2336
947.65608
950.89783
953.72816
954.85928
956.84643
957.16506
959.11928
960.71638
960.43044
976.94519
974.34572
972.79232
971.44825
970.97456
968.4193
968.44362
968.7027
966.38028
956.97147
948.88994
946.16559
944.77651
943.23278
939.74984
935.58708
936.57379
937.80977
938.2861
939.94709
941.88637
945.24231
952.12536
952.71849
953.05083
954.64589
954.73953
957.98571
959.37989
959.15171
976.97258
974.4893
973.05686
972.51614
971.59578
967.65503
966.37887
964.56108
965.8968
958.31951
949.84532
947.46971
944.45471
942.91593
940.26069
936.04924
936.48956
937.87527
936.65994
937.14983
941.42956
945.02025
951.80099
951.58848
953.09467
953.74441
954.63694
958.05799
958.96743
958.85163
976.7446
974.96918
974.12303
973.10018
972.10379
967.57991
966.4912
964.98065
964.91961
958.4572
951.64546
948.17038
945.54582
941.92768
940.77141
938.0425
938.38796
938.20384
939.36596
941.53358
942.4292
945.35676
950.20237
950.09395
951.64742
952.37616
952.9509
956.85262
957.78274
958.0108
975.68375
974.59816
973.77828
973.13652
972.34867
965.98011
961.81498
963.41925
962.3722
957.8879
952.99307
949.5307
945.3819
940.21438
939.51264
937.89901
937.42757
937.91119
939.25419
940.84049
942.42026
944.61329
948.3202
949.17128
949.6897
949.25944
951.14273
954.40167
955.50785
956.73566
977.57203
975.06758
972.94342
971.5673
973.49013
974.15907
971.65739
970.80697
966.12988
963.54635
958.86499
956.31304
951.83648
946.43784
942.51877
937.38428
936.65694
938.86861
943.92414
943.83303
944.99044
950.49135
951.26654
950.80156
951.12312
952.39625
953.0009
954.90833
957.61422
958.35659
973.98809
972.55434
972.01886
971.04825
970.28438
970.50601
968.99383
967.45749
963.05996
961.14976
955.40788
953.41327
951.74472
947.71653
944.48295
940.62427
938.4819
941.45563
942.88084
942.75553
944.47791
949.07581
951.2658
951.07101
951.45607
952.70561
952.72995
955.16964
958.80446
958.8836
974.14499
973.28066
973.14428
971.29528
969.70897
969.71239
967.60893
963.6005
957.28349
960.24245
955.68079
952.78969
952.14769
947.32858
940.5377
939.65821
938.47597
941.20346
941.18867
941.80163
944.31233
949.26786
950.86285
950.82325
951.32409
952.64023
954.39619
955.64558
958.80669
958.65198
974.35079
974.07198
973.76068
971.80735
971.05868
969.85551
967.66823
964.93086
956.40965
955.31504
951.70655
949.65785
949.37219
948.96077
943.11749
939.7537
939.26429
939.38409
941.18471
943.91064
949.04287
949.61954
950.97147
949.08798
949.83441
951.10385
953.80822
955.83739
957.72829
957.53313
973.59774
973.13924
972.70897
972.01307
971.11299
969.29129
961.42358
962.93774
959.27032
957.41268
951.03311
947.90349
945.42588
943.25621
942.11338
939.64893
938.99869
938.24865
941.07548
944.06614
946.61704
946.89236
948.75846
948.49015
948.60645
949.64212
953.13653
953.97836
954.61681
955.45331
978.32482
975.34514
972.2473
973.92416
971.21289
969.14189
964.6074
967.23685
961.01989
959.67172
959.0578
960.85684
959.82888
950.09883
944.44229
940.97253
941.48442
942.51392
943.38598
947.72469
949.70816
951.29614
955.03473
954.02075
952.7305
951.15558
951.56221
953.45273
954.01056
954.26384
973.711
971.32929
970.60853
969.85491
968.41119
967.74703
963.6369
963.89676
958.39344
957.7086
956.8244
957.33654
956.75464
953.60799
949.45242
943.53851
941.10352
942.06501
942.77407
947.03485
950.03168
950.55906
952.17691
951.3755
950.51896
950.11051
951.75869
955.05338
955.12723
955.8287
973.10311
972.01553
970.80754
969.72632
968.36066
967.99669
963.91126
959.24497
956.79073
957.29378
956.0836
956.9863
956.61967
951.76217
949.55155
943.78533
940.855
940.87438
941.77457
946.81542
950.27521
951.5896
952.16121
951.75968
948.3088
950.09531
951.92337
956.33231
957.22319
956.00049
972.44203
971.86731
970.31032
969.49241
968.83691
968.13993
964.75883
959.27781
955.15555
954.7335
953.74899
955.49057
955.12658
948.59676
948.66765
943.79542
941.60682
941.0059
941.09457
944.14574
949.68788
951.6527
951.91095
947.73259
947.81675
951.40357
952.80211
956.37195
956.86316
956.11502
970.78941
970.42745
970.32938
969.65185
968.85564
968.19442
963.95953
957.03593
954.98639
953.27914
952.28503
951.50702
949.19314
945.78449
945.17671
942.70037
940.92342
940.10364
939.17948
940.61995
944.17505
945.76234
945.99707
946.24293
947.46378
952.55402
953.92706
955.00974
955.16344
954.91108
)
;

boundaryField
{
    minX
    {
        type            zeroGradient;
    }
    maxX
    {
        type            zeroGradient;
    }
    minY
    {
        type            fixedValue;
        value           uniform 1073;
    }
    minZ
    {
        type            zeroGradient;
    }
    maxZ
    {
        type            zeroGradient;
    }
    bottomWater_to_rightSolid
    {
        type            compressible::turbulentTemperatureCoupledBaffleMixed;
        refValue        nonuniform List<scalar> 
130
(
749.41668
757.38314
765.67474
773.8709
781.65666
788.81363
795.20315
800.75113
805.42145
809.17864
812.00363
813.88886
814.83377
743.58129
752.88541
762.34525
771.47468
779.9629
787.62887
794.37768
800.17044
804.99889
808.865
811.76044
813.68904
814.65351
731.86358
744.2157
756.16369
767.16518
776.99666
785.59958
792.98847
799.21123
804.32118
808.36878
811.38803
813.39027
814.38973
714.32468
732.42432
748.38777
762.05186
773.62326
783.36112
791.48861
798.19462
803.62005
807.87244
811.02926
813.11328
814.14992
693.58753
721.12498
741.83679
758.05836
771.0903
781.69855
790.37406
797.44576
803.10753
807.51514
810.77203
812.91026
813.97002
693.22796
720.7304
741.44152
757.68622
770.75446
781.40236
790.12322
797.23493
802.93145
807.36539
810.63823
812.78809
813.85377
713.2345
731.29438
747.26934
760.99573
772.66278
782.51005
790.75229
797.57177
803.09189
807.41361
810.62112
812.73631
813.78832
730.18958
742.55155
754.55762
765.66004
775.62442
784.37659
791.90399
798.24997
803.46401
807.60043
810.68791
812.73595
813.76061
741.49271
750.84863
760.40289
769.66223
778.29753
786.12187
793.02003
798.9504
803.89994
807.86481
810.83213
812.80867
813.79915
747.10347
755.13437
763.53527
771.87728
779.82049
787.13787
793.68843
799.39128
804.19941
808.05844
810.95701
812.88875
813.85443
)
;
        refGradient     uniform 0;
        valueFraction   uniform 0.99248593;
        value           nonuniform List<scalar> 
130
(
750.9149
758.82635
767.0634
775.20174
782.93149
790.03533
796.37137
801.87377
806.52499
810.2624
813.07051
814.94083
815.88083
745.10268
754.36248
763.76485
772.82992
781.25431
788.86065
795.55534
801.30071
806.09362
809.94518
812.82143
814.73704
815.694
733.45423
745.75236
757.61921
768.54337
778.3023
786.84218
794.17353
800.34757
805.41574
809.43612
812.44456
814.43342
815.42636
715.9893
734.02389
749.88865
763.45246
774.93805
784.60992
792.67134
799.32233
804.70385
808.9232
812.08134
814.1557
815.18688
695.35363
722.76081
743.33008
759.43992
772.3847
782.90935
791.51513
798.56001
804.18489
808.56779
811.83722
813.96346
815.01486
694.98471
722.32908
742.90005
759.04179
772.0306
782.59857
791.26502
798.35264
804.01863
808.43105
811.71267
813.85417
814.91272
714.86947
732.80604
748.66868
762.3035
773.90271
783.69734
791.89302
798.69261
804.19582
808.48963
811.70763
813.81548
814.86313
731.75042
744.0296
755.95736
766.98824
776.89425
785.60853
793.08576
799.38793
804.55955
808.67906
811.76778
813.80874
814.83494
742.97116
752.27803
761.78294
770.99189
779.56439
787.34394
794.18827
800.07495
804.9951
808.9564
811.90774
813.87423
814.86356
748.55368
756.51729
764.86596
773.17193
781.06737
788.33153
794.83474
800.50394
805.31417
809.1545
812.03944
813.95781
814.91435
)
;
        Tnbr            T;
        thicknessLayers List<scalar> 0();
        kappaLayers     List<scalar> 0();
        kappaMethod     fluidThermo;
        kappa           none;
        alphaAni        none;
        alpha           none;
        field           T;
    }
    bottomWater_to_leftSolid
    {
        type            compressible::turbulentTemperatureCoupledBaffleMixed;
        refValue        nonuniform List<scalar> 
130
(
879.91027
879.8535
879.72744
879.53106
879.31732
879.09181
878.85291
878.60301
878.35599
878.12101
877.91034
877.73248
877.64035
879.83239
879.77716
879.66008
879.4731
879.25786
879.02386
878.76648
878.50271
878.2384
877.97973
877.73408
877.53518
877.43307
879.66194
879.60687
879.49495
879.3313
879.12557
878.87938
878.59707
878.30584
878.00993
877.71391
877.43007
877.19268
877.07117
879.45046
879.39549
879.28709
879.1272
878.91766
878.65812
878.34071
878.01342
877.67456
877.32274
876.97553
876.69579
876.5429
879.24126
879.18098
879.06074
878.88155
878.6507
878.37171
878.05077
877.6995
877.3328
876.94432
876.56784
876.25639
876.03894
879.0999
879.03324
878.89207
878.67648
878.42155
878.12908
877.80118
877.44521
877.07197
876.67329
876.29931
875.99945
875.79496
878.96533
878.89939
878.76585
878.56035
878.2748
877.95076
877.61896
877.2736
876.91175
876.52523
876.17269
875.90468
875.74359
878.79684
878.73716
878.61627
878.43022
878.1747
877.85045
877.50353
877.16795
876.8257
876.4822
876.17253
875.93752
875.80045
878.60815
878.55688
878.44941
878.28061
878.04826
877.75239
877.40392
877.06884
876.73556
876.42548
876.14835
875.94527
875.82892
878.47426
878.4274
878.32847
878.17032
877.95263
877.6755
877.34006
876.98496
876.66123
876.37779
876.14589
875.97537
875.875
)
;
        refGradient     uniform 0;
        valueFraction   uniform 0.99248593;
        value           nonuniform List<scalar> 
130
(
880.58099
880.52338
880.38406
880.14453
879.92577
879.70061
879.45958
879.19494
878.94174
878.69802
878.48216
878.27134
878.18208
880.50948
880.4512
880.33411
880.10733
879.88072
879.6483
879.37517
879.10504
878.83596
878.57009
878.29197
878.06663
877.97074
880.32905
880.26988
880.14955
879.97946
879.77361
879.52196
879.21867
878.92125
878.61988
878.31489
878.00859
877.72331
877.60625
880.11051
880.05014
879.9396
879.78109
879.57351
879.31863
878.95372
878.61926
878.27307
877.89981
877.49762
877.16388
877.00412
879.89357
879.82639
879.70199
879.51891
879.28492
879.00047
878.67263
878.29847
877.92918
877.50754
877.08279
876.72058
876.38391
879.791
879.71968
879.56217
879.30273
879.04568
878.75441
878.41833
878.05478
877.68282
877.23903
876.81461
876.48249
876.18021
879.68528
879.6106
879.47093
879.26277
878.92588
878.56739
878.24378
877.90205
877.5407
877.09578
876.69287
876.40113
876.20433
879.52485
879.45746
879.33133
879.14185
878.88232
878.51264
878.13699
877.81599
877.46845
877.09388
876.74975
876.49045
876.32328
879.32188
879.26755
879.15765
878.98488
878.74752
878.4402
878.03523
877.71395
877.35573
877.03398
876.711
876.48603
876.35189
879.16787
879.11864
879.01972
878.85765
878.63562
878.35563
877.99088
877.5864
877.24972
876.95561
876.71804
876.54295
876.42594
)
;
        Tnbr            T;
        thicknessLayers List<scalar> 0();
        kappaLayers     List<scalar> 0();
        kappaMethod     fluidThermo;
        kappa           none;
        alphaAni        none;
        alpha           none;
        field           T;
    }
    bottomWater_to_heater
    {
        type            compressible::turbulentTemperatureCoupledBaffleMixed;
        refValue        nonuniform List<scalar> 
92
(
730.17028
732.29955
736.42572
742.26764
720.85484
723.33641
728.18438
735.10864
701.27461
704.45572
710.82619
720.20597
345.57419
342.81659
342.8471
345.59262
422.08571
418.72735
418.96451
422.60245
487.29546
484.50419
485.26069
489.104
542.49856
540.87729
542.85973
547.47808
669.36555
588.03975
673.34476
588.34234
681.86908
593.01585
695.60874
600.67128
345.57419
345.59262
422.08571
422.60245
487.29546
489.104
542.49856
547.47808
588.03975
600.67128
345.49978
345.49978
342.76015
342.79468
345.51924
345.51924
422.00304
422.00304
418.65098
418.88552
422.4897
422.4897
487.227
487.227
484.43294
485.18057
488.98165
488.98165
542.47402
542.47402
540.81495
542.78496
547.37373
547.37373
587.96701
587.96701
588.24107
592.90262
600.54104
600.54104
668.35925
672.33261
680.84843
694.56295
699.62462
702.80056
709.16444
718.53443
718.78011
721.24977
726.08025
732.99951
727.87844
729.99063
734.09063
739.9254
)
;
        refGradient     uniform 0;
        valueFraction   nonuniform List<scalar> 
92
(
0.99248593
0.99248593
0.99248593
0.99248593
0.99248593
0.99248593
0.99248593
0.99248593
0.99248593
0.99248593
0.99248593
0.99248593
0.99248593
0.99248593
0.99248593
0.99248593
0.99248593
0.99248593
0.99248593
0.99248593
0.99248593
0.99248593
0.99248593
0.99248593
0.99248593
0.99248593
0.99248593
0.99248593
0.99248593
0.99248593
0.99248593
0.99248593
0.99248593
0.99248593
0.99248593
0.99248593
0.99248593
0.99248593
0.99248593
0.99248593
0.99248593
0.99248593
0.99248593
0.99248593
0.99248593
0.99248593
0.99248593
0.99248593
0.99248593
0.99248593
0.99248593
0.99248593
0.99248593
0.99248593
0.99248593
0.99248593
0.99248593
0.99248593
0.99248593
0.99248593
0.99248593
0.99248593
0.99248593
0.99248593
0.99248593
0.99248593
0.99248593
0.99248593
0.99248593
0.99248593
0.99248593
0.99248593
0.99248593
0.99248593
0.99248593
0.99248593
0.99248593
0.99248593
0.99248593
0.99248593
0.99248593
0.99248593
0.99248593
0.99248593
0.99248593
0.99248593
0.99248593
0.99248593
0.99248593
0.99248593
0.99248593
0.99248593
)
;
        value           nonuniform List<scalar> 
92
(
731.82345
733.93842
738.03416
743.82729
722.56489
725.02639
729.82974
736.70072
703.12094
706.27221
712.57602
721.88324
350.05971
347.3079
347.30133
350.02891
425.99548
422.65006
422.85707
426.46268
490.71955
487.92329
488.64785
492.46123
545.46601
543.86721
545.80412
550.37816
671.37558
590.66087
675.32165
590.95795
683.76162
595.57605
697.39584
603.17175
350.05953
349.9258
425.97364
426.37194
490.66753
492.38561
545.36296
550.34206
590.54878
603.13556
349.94077
349.88616
347.13942
347.1629
349.81265
349.86558
425.878
425.83625
422.48948
422.71454
426.21824
426.27011
490.59309
490.58139
487.78874
488.52107
492.20057
492.28684
545.39999
545.4158
543.76005
545.71169
550.19645
550.26419
590.51501
590.57081
590.83861
595.45688
602.99426
603.03357
670.35899
674.29828
682.74186
696.34899
701.43241
704.57924
710.8832
720.17923
720.46681
722.90938
727.68503
734.54742
729.51577
731.60753
735.65815
741.43572
)
;
        Tnbr            T;
        thicknessLayers List<scalar> 0();
        kappaLayers     List<scalar> 0();
        kappaMethod     fluidThermo;
        kappa           none;
        alphaAni        none;
        alpha           none;
        field           T;
    }
}


// ************************************************************************* //
