/*--------------------------------*- C++ -*----------------------------------*\
| =========                 |                                                 |
| \\      /  F ield         | OpenFOAM: The Open Source CFD Toolbox           |
|  \\    /   O peration     | Version:  v2012                                 |
|   \\  /    A nd           | Website:  www.openfoam.com                      |
|    \\/     M anipulation  |                                                 |
\*---------------------------------------------------------------------------*/
FoamFile
{
    version     2.0;
    format      ascii;
    class       volScalarField;
    location    "7";
    object      p;
}
// * * * * * * * * * * * * * * * * * * * * * * * * * * * * * * * * * * * * * //

dimensions      [0 2 -2 0 0 0 0];


internalField   nonuniform List<scalar> 
64000
(
3.86512e-21
2.33644e-21
-2.40889e-21
-2.64616e-21
-4.26871e-21
-1.74161e-21
-8.69873e-22
-1.85359e-21
-6.22764e-22
6.27556e-22
-1.14122e-21
-1.00315e-21
-1.26247e-21
-2.96206e-21
-1.54498e-21
-2.41862e-21
-1.48355e-21
4.38785e-22
2.2886e-21
2.68351e-21
-8.26352e-22
-5.20656e-21
-1.49817e-21
1.00945e-22
-4.30606e-21
-2.16807e-21
-4.37937e-22
-4.83343e-22
2.47699e-23
-2.02753e-21
-1.86822e-21
-4.25979e-22
-6.3761e-22
-4.95417e-22
-2.81206e-22
-7.68575e-22
-3.19603e-22
1.66347e-21
1.64149e-21
1.22039e-21
8.66302e-22
7.18345e-23
-3.28237e-21
-2.79491e-21
-7.07858e-21
-5.70733e-21
-2.49518e-21
-1.35777e-21
-1.21236e-21
-2.79757e-21
-1.38431e-21
-3.8042e-21
-9.99675e-22
-4.74561e-22
-2.35353e-21
-3.73787e-21
-1.99027e-21
1.83144e-21
1.62459e-21
8.31436e-22
1.69611e-21
-1.49473e-21
-3.3207e-21
-7.62254e-21
-6.33091e-21
-3.24932e-22
5.40588e-22
-1.41894e-21
-7.52102e-22
5.07847e-22
1.72844e-21
2.00072e-22
-2.38082e-22
-4.02e-23
-1.44595e-21
-8.02858e-22
4.78618e-22
9.56335e-22
1.70555e-21
1.51934e-21
1.20839e-22
-4.3173e-22
-5.71322e-21
-4.39784e-21
-4.76672e-21
-6.16239e-21
-3.26036e-21
-3.47238e-21
-1.58395e-21
-9.43335e-22
-2.05079e-21
-3.27959e-21
-1.74242e-21
-1.41876e-21
-1.32255e-21
-3.04275e-22
-4.23843e-21
-1.35297e-21
-1.10322e-21
1.38939e-22
1.49954e-21
1.58359e-21
-2.55748e-21
-7.53532e-21
-2.20647e-21
-8.22492e-22
-1.50284e-21
-2.09253e-21
-2.7241e-22
1.23145e-21
9.97732e-22
-3.08002e-22
9.31937e-22
5.89118e-24
2.97281e-22
1.54252e-21
-9.08077e-22
-9.50893e-22
1.47921e-22
1.04716e-21
-3.78567e-21
-5.62278e-21
-4.58806e-21
-6.59206e-21
-4.09903e-21
-5.37809e-21
-3.96783e-21
-3.53922e-21
-3.51092e-21
-2.6478e-21
-1.41098e-21
-3.5275e-21
-4.01321e-21
-1.44157e-21
-1.6577e-21
-3.32406e-21
-3.03884e-21
-2.29069e-21
-2.96068e-22
2.31172e-21
1.97369e-21
2.57793e-21
-2.75961e-21
-8.70774e-21
-2.85962e-21
-8.05481e-22
-7.78377e-22
-3.01373e-22
3.22236e-22
6.0703e-22
-1.02914e-22
-1.64401e-22
-4.68826e-22
1.37834e-21
2.01374e-21
2.85602e-22
2.2996e-23
-7.83509e-22
-1.7613e-21
1.0943e-22
-8.57913e-21
-6.65372e-21
-5.25994e-21
-4.64073e-21
-4.13055e-21
-4.09938e-21
-3.63655e-21
-3.23171e-21
-3.99947e-21
-5.06812e-21
-3.3827e-21
-3.60435e-21
-1.41654e-21
-2.0612e-22
-4.3722e-21
-7.71166e-21
-5.30881e-21
1.77461e-22
2.82899e-21
2.49073e-21
2.65642e-21
-8.2601e-22
-5.20591e-21
-5.47444e-21
-2.04096e-21
-5.55446e-22
-3.07262e-23
-2.36063e-21
-5.32676e-22
1.70836e-21
1.42933e-21
4.45262e-22
-9.23647e-23
6.4418e-22
-4.11503e-22
-4.73076e-23
3.90517e-22
8.30764e-22
-1.34171e-21
7.83343e-22
-3.43669e-21
-4.59013e-21
-4.64355e-21
-4.18726e-21
-4.66248e-21
-4.22021e-21
-3.77013e-21
-4.09256e-21
-4.36573e-21
-3.62474e-21
-2.15136e-21
-3.6043e-21
-2.64093e-21
-6.26272e-22
-2.9619e-21
-8.23708e-21
-5.17381e-21
8.22846e-24
3.53235e-21
4.25606e-21
2.95311e-21
-1.53536e-21
-9.59684e-21
-5.19235e-21
-1.96988e-21
-3.68861e-23
-1.83678e-21
-1.80096e-21
3.69624e-22
1.33951e-21
1.40301e-21
-9.31219e-23
3.93524e-22
7.74511e-22
-6.6335e-22
4.46439e-22
9.51194e-23
-1.92923e-21
-9.95871e-22
7.91111e-22
-5.0248e-21
-6.40626e-21
-4.74225e-21
-6.39207e-21
-4.86539e-21
-3.87038e-21
-3.50499e-21
-3.86952e-21
-5.5881e-21
-3.2385e-21
-2.02063e-21
-3.03062e-21
-2.80868e-21
-2.95416e-21
-3.68926e-21
-4.2143e-21
-2.30768e-21
8.59053e-22
5.26509e-21
2.73482e-21
1.26562e-21
-2.67335e-21
-8.73445e-21
-5.05897e-21
-3.046e-21
-1.38804e-21
-8.46404e-22
3.13054e-22
6.9784e-22
4.12232e-22
-1.24448e-21
3.48171e-23
1.32088e-21
9.38682e-22
9.37218e-22
6.34942e-22
3.21689e-22
-2.85338e-21
-3.78852e-21
-4.81604e-22
-5.02109e-21
-6.54351e-21
-7.48635e-21
-6.37294e-21
-5.22093e-21
-2.39842e-21
-2.55339e-21
-7.11173e-21
-4.29811e-21
-2.57471e-21
-3.49076e-21
-3.90524e-21
-4.3122e-21
-3.92467e-21
-3.44235e-21
-4.00362e-21
-1.44978e-21
2.01893e-21
3.5318e-21
4.61114e-21
-1.55167e-22
-4.22162e-21
-6.7118e-21
-3.58324e-21
-2.49228e-21
-7.06121e-22
4.49929e-22
8.56582e-22
1.57315e-21
-6.05159e-22
-3.14918e-21
-8.45057e-22
1.14695e-21
-6.06894e-22
9.33423e-22
7.38793e-22
-1.28502e-21
-3.95383e-21
-2.34023e-21
-3.1846e-22
-1.38269e-20
-1.02614e-20
-5.12667e-21
-8.15306e-21
-5.21766e-21
-2.42276e-21
-2.91956e-21
-4.26694e-21
-4.00477e-21
-5.85608e-21
-4.74306e-21
-5.74954e-21
-1.25776e-21
-1.77375e-21
-3.97691e-21
-6.21599e-21
-2.4996e-21
3.64555e-21
2.60378e-21
3.04004e-21
9.75191e-22
-5.68059e-21
-5.4956e-21
-4.04781e-21
-1.07442e-21
-4.41889e-22
1.67761e-21
1.45078e-21
7.86499e-22
-1.51523e-21
-1.80494e-22
-9.58306e-22
-1.40728e-21
1.59529e-22
9.28157e-23
-2.48708e-22
-1.93089e-22
-3.71571e-21
-5.30895e-22
9.03363e-22
-6.73516e-21
-8.09432e-21
-8.33742e-21
-7.84392e-21
-6.33288e-21
-5.02499e-21
-3.23142e-21
-4.81331e-21
-3.46441e-21
-1.92484e-21
-3.36527e-21
-4.74277e-21
-2.52523e-21
-9.01723e-22
-4.74362e-21
-4.91036e-21
-3.0071e-21
2.91044e-22
2.98413e-21
4.54729e-21
2.82509e-21
-4.40546e-21
-6.87402e-21
-1.66762e-21
-2.38564e-21
-4.75042e-22
7.48343e-22
2.75584e-21
-2.21941e-21
-8.26721e-22
-2.49467e-22
-6.97303e-22
-8.58765e-22
-1.34966e-21
-4.74295e-22
-4.20549e-22
-2.59612e-21
-1.75517e-21
-4.06389e-22
3.57144e-22
-6.80996e-21
-9.19935e-21
-8.98679e-21
-9.54541e-21
-6.50185e-21
-5.44305e-21
-6.74472e-21
-3.00678e-21
-3.89292e-21
-4.0751e-21
-3.29174e-21
-2.65202e-21
-2.58261e-21
-1.28802e-21
-3.79715e-21
-4.26201e-21
-9.21493e-22
7.73589e-22
4.53889e-21
3.31519e-21
-1.48826e-21
-7.49661e-21
-4.03148e-21
-2.79221e-21
-2.9187e-21
-1.91206e-21
3.54061e-22
2.87934e-21
3.80608e-23
-3.0454e-22
1.28628e-21
-1.94035e-21
-8.56083e-22
-3.45957e-23
-1.93235e-21
-2.07942e-21
-7.47021e-22
4.99428e-22
6.28699e-22
1.62991e-21
-8.10463e-21
-1.18046e-20
-1.07451e-20
-8.29085e-21
-4.42343e-21
-6.28749e-21
-8.02289e-21
-5.05993e-21
-2.44537e-21
-2.73681e-21
-3.67912e-21
-3.59359e-21
-4.64284e-21
-3.02477e-21
-2.62619e-21
-2.46211e-21
-2.04556e-21
2.04959e-23
1.88763e-21
5.54051e-21
-1.40841e-21
-6.26255e-21
-4.63429e-21
-4.80236e-21
-7.61241e-22
-1.9195e-21
1.64355e-22
2.44019e-21
1.60374e-21
1.01421e-21
7.74662e-22
-1.56418e-21
-8.90664e-22
8.55333e-22
-2.36434e-21
-2.09636e-21
1.33428e-21
1.67073e-21
4.23465e-22
-2.30155e-21
-1.1931e-20
-1.24708e-20
-1.08596e-20
-7.41633e-21
-6.69092e-21
-6.43097e-21
-7.38733e-21
-4.4251e-21
-2.61175e-21
-3.44647e-21
-3.62738e-21
-2.89537e-21
-3.74582e-21
-3.98865e-21
-3.76751e-21
-1.70896e-21
-4.82997e-22
1.14859e-22
6.64628e-22
1.84872e-21
-3.86913e-22
-2.90671e-21
-2.66106e-21
-2.94786e-21
-2.46042e-21
7.97104e-22
1.34995e-21
1.15776e-21
4.70605e-23
3.60248e-22
-2.2557e-22
-1.654e-22
1.12555e-21
7.96145e-22
-9.26239e-22
-7.49091e-22
-6.15961e-23
-1.72773e-21
-1.89604e-21
-1.23465e-21
-1.20476e-20
-1.27547e-20
-1.15198e-20
-8.36444e-21
-6.68376e-21
-5.60988e-21
-5.72251e-21
-2.75461e-21
-5.91942e-21
-8.2834e-21
-3.86389e-21
-1.1335e-21
-3.94844e-21
-7.14055e-21
-2.43446e-21
-1.4057e-21
-1.33364e-22
1.17739e-21
2.76303e-21
3.39991e-21
-2.20765e-21
-5.04288e-21
-4.05272e-21
-4.55649e-21
2.41655e-22
9.95876e-22
9.87427e-22
4.6807e-22
-1.26958e-21
-9.4275e-23
1.03887e-21
2.49976e-21
8.36698e-22
-1.24313e-22
-2.47576e-21
-2.63661e-25
5.85191e-23
-3.9853e-22
-1.47933e-21
7.35674e-22
-8.2016e-21
-1.34954e-20
-1.26289e-20
-7.9755e-21
-4.43158e-21
-6.11483e-21
-6.53594e-21
-6.08915e-21
-5.21499e-21
-5.01774e-21
-4.2284e-21
-3.04398e-21
-2.99344e-21
-3.2868e-21
-2.57639e-21
-2.16329e-21
4.97663e-22
1.50351e-22
-1.19676e-21
2.88038e-21
-3.05314e-21
-3.06447e-21
-2.97447e-21
-4.16314e-21
7.37943e-22
4.64062e-22
-2.61233e-22
-5.86818e-22
-1.73948e-21
-2.31991e-22
3.07827e-22
1.7205e-21
1.68293e-21
4.58408e-22
-5.01423e-22
-2.47248e-21
6.10044e-22
6.00516e-22
-5.31084e-22
1.98179e-21
-9.52149e-21
-1.25481e-20
-1.04933e-20
-7.81376e-21
-7.87245e-21
-5.12383e-21
-5.34562e-21
-6.57795e-21
-4.60246e-21
-2.82206e-21
-5.63802e-21
-3.73666e-21
-2.48391e-21
-1.30489e-21
-1.524e-21
-2.16363e-21
-3.34258e-22
1.01535e-21
3.49561e-21
1.49862e-21
-4.7326e-21
-6.08519e-21
-3.98964e-21
-3.37283e-22
-8.84411e-22
-1.02901e-21
-6.39637e-22
-6.318e-22
-9.44546e-22
5.58264e-23
-4.74208e-22
1.03089e-21
1.56501e-21
6.9696e-22
3.05404e-22
-5.9648e-22
-8.4266e-22
-2.48821e-21
-1.39731e-21
1.31339e-21
-8.63555e-21
-1.05236e-20
-1.24422e-20
-6.6161e-21
-4.06463e-21
-5.43356e-21
-7.83607e-21
-7.93888e-21
-3.23075e-21
-3.34772e-21
-5.5044e-21
-7.05043e-22
-9.87296e-22
-1.33185e-21
-1.13686e-21
-3.86298e-22
-5.94997e-22
9.76568e-22
-2.48161e-22
-9.16396e-22
-5.3523e-21
-3.89653e-21
-2.37249e-21
-8.15817e-22
-1.36772e-21
7.81407e-22
-3.70315e-22
8.90504e-23
5.97319e-22
-2.52522e-21
-2.88272e-21
3.9252e-22
2.83292e-21
2.14461e-21
-5.12767e-23
1.81811e-22
-1.36293e-21
-1.31153e-21
-4.11414e-22
-1.30943e-21
-6.1286e-21
-9.66321e-21
-1.43583e-20
-7.41184e-21
-4.55456e-21
-3.83198e-21
-7.54306e-21
-7.53231e-21
-3.80557e-21
-2.87997e-21
-4.09956e-21
-1.63675e-21
1.06365e-21
-1.18357e-21
-2.55585e-21
-1.19253e-22
1.25594e-22
5.39422e-22
1.48027e-21
-1.34132e-21
-6.56042e-21
-7.64809e-21
-1.30575e-21
-3.89846e-22
6.04827e-22
-2.70355e-22
7.25298e-22
-6.4415e-23
-2.68508e-21
-8.2916e-22
1.83622e-23
-6.33854e-23
8.3765e-22
4.25764e-22
-8.62568e-22
-1.23765e-21
-2.57145e-22
-3.99545e-22
-3.7485e-22
-6.54926e-22
-4.77082e-21
-7.99995e-21
-9.75273e-21
-7.63061e-21
-7.96245e-21
-5.84647e-21
-5.30858e-21
-4.10404e-21
-2.70235e-21
-3.76644e-21
-3.67997e-21
-2.66223e-21
1.55336e-21
2.94262e-22
-2.39067e-21
-7.58714e-22
-7.53379e-22
-3.27612e-21
-3.07518e-21
-3.20957e-21
-3.10545e-21
-2.72056e-21
-2.34199e-21
-1.22529e-21
5.16872e-22
-4.44762e-22
6.79471e-22
2.17985e-21
2.79098e-22
-1.51073e-21
-2.62373e-21
-5.84807e-22
1.42458e-21
2.64478e-22
-2.74622e-21
-5.33885e-22
5.60299e-22
-3.2704e-22
-1.20396e-21
-1.25863e-21
-3.55785e-21
-8.19892e-21
-1.02601e-20
-7.49304e-21
-6.51243e-21
-4.80269e-21
-4.79841e-21
-5.65459e-21
-2.6016e-21
-2.46704e-21
-3.23759e-21
-1.75863e-21
-2.12649e-21
-2.08664e-21
-5.54482e-22
-8.196e-23
2.20316e-24
-1.62034e-21
-5.58762e-21
-2.35888e-21
-2.96613e-21
-4.38908e-21
-2.89789e-21
-7.87677e-22
1.00649e-21
7.29731e-22
-3.42592e-21
9.37492e-22
1.60275e-21
-7.03958e-22
-1.02074e-21
5.64226e-22
1.42494e-21
-1.24177e-21
-5.06421e-21
-6.02551e-22
-1.51056e-21
-2.18226e-24
-8.50154e-22
-1.70239e-21
-6.10131e-21
-8.90148e-21
-1.01234e-20
-6.10265e-21
-6.66218e-21
-5.47763e-21
-4.18096e-21
-1.71064e-21
-4.53056e-22
-5.09332e-21
-7.03252e-21
-4.64508e-21
-1.26884e-21
-2.57166e-21
-1.41724e-21
1.62395e-22
-8.20291e-22
4.59385e-22
-4.13696e-21
-1.35373e-21
-2.05849e-21
-4.08618e-21
-2.09477e-21
-2.20408e-21
-2.50905e-21
7.99129e-22
-8.46027e-22
2.03697e-22
8.00819e-22
-2.0961e-21
-8.05359e-22
1.03863e-21
-9.74264e-23
7.43689e-22
-1.9199e-21
-3.96783e-21
-2.81966e-21
-8.8184e-22
-6.95618e-22
-1.85189e-21
-1.01449e-20
-1.03374e-20
-8.58025e-21
-5.71054e-21
-6.63167e-21
-4.7781e-21
-3.76546e-21
-2.98767e-21
-4.66508e-22
-5.73975e-21
-6.44861e-21
-6.71906e-21
-1.34038e-21
-5.48106e-21
-9.81768e-22
1.98408e-21
-8.68036e-23
-7.84684e-23
-9.44011e-22
-2.67937e-23
-3.75231e-21
-3.77671e-21
-1.33022e-21
-2.46502e-21
-1.42027e-21
4.93426e-22
9.54929e-22
-3.28778e-21
-1.6691e-21
-1.57272e-21
-1.75188e-21
2.68217e-21
-1.57792e-22
-1.32615e-21
-2.432e-21
-5.56416e-21
-1.45156e-21
7.14108e-22
1.14068e-21
-2.28987e-22
-1.1498e-20
-9.04398e-21
-8.49175e-21
-5.73627e-21
-4.54931e-21
-6.88401e-21
-3.65327e-21
-2.38135e-21
-5.175e-21
-7.73592e-21
-6.69477e-21
-4.6012e-21
-2.59982e-21
-1.32325e-21
7.05017e-22
3.13574e-22
9.58397e-22
1.10001e-21
2.12399e-21
-1.14447e-21
-2.9605e-21
-3.06932e-21
-3.75393e-21
-7.22261e-21
-3.4227e-21
-6.91217e-22
7.41544e-22
-9.61555e-22
-1.75291e-21
-1.36788e-21
-2.80841e-21
-1.16475e-21
-3.72106e-22
-7.51518e-22
1.01087e-21
-3.63395e-21
-1.27168e-21
2.84585e-21
-5.18142e-22
-1.51418e-21
-7.30826e-21
-7.60716e-21
-9.43587e-21
-5.9638e-21
-2.99503e-21
-5.81918e-21
-6.23534e-21
-7.76678e-21
-3.31645e-21
-4.91905e-21
-6.82911e-21
-5.00757e-21
1.50443e-22
-1.97186e-21
-1.6681e-21
2.32166e-22
2.31442e-22
4.77888e-22
1.03811e-21
3.00221e-22
-2.65066e-21
-2.66777e-21
-2.43708e-21
-4.18555e-21
-4.41032e-21
-2.48542e-21
4.79307e-22
6.72952e-22
1.11448e-21
-4.75418e-21
-1.89171e-21
-4.96058e-22
-2.31976e-21
-1.44848e-21
2.60285e-22
-1.53795e-21
-5.15754e-22
1.58853e-21
-1.71775e-22
-1.41529e-21
-5.58993e-22
-5.11813e-21
-7.48461e-21
-7.58992e-21
-5.29089e-21
-4.9741e-21
-5.3898e-21
-6.69225e-21
-2.96491e-21
-4.63988e-21
-8.66041e-21
-5.06706e-21
-1.82323e-21
-2.77327e-21
-3.10799e-21
-5.29311e-23
1.30216e-21
6.33813e-22
2.68988e-21
2.63467e-21
-8.45459e-22
-3.49439e-21
-8.27889e-22
-6.26208e-21
-4.97499e-21
-2.81611e-21
-2.11068e-21
5.23025e-22
-1.35058e-21
-1.56867e-21
2.23435e-22
2.61286e-22
-2.80312e-21
-1.39443e-21
-1.70566e-21
-1.85429e-21
1.2571e-21
3.17673e-22
-5.82927e-22
6.58321e-22
-3.81921e-21
-5.21815e-21
-6.05938e-21
-6.64309e-21
-6.52181e-21
-3.35819e-21
-3.99773e-21
-6.50984e-21
-2.68263e-21
-1.36149e-21
-8.85649e-21
-6.40061e-21
-3.66931e-21
-4.90603e-21
1.60981e-22
5.74176e-22
1.15063e-21
3.68353e-22
2.86373e-21
2.90519e-21
8.75347e-23
-2.05713e-21
-4.42622e-21
-6.46134e-21
-4.1906e-21
-4.21668e-21
-8.47745e-22
-3.78213e-23
-2.76476e-21
3.42584e-22
9.27446e-22
-1.3608e-21
-3.05543e-21
-2.14519e-22
1.16223e-21
-3.75985e-22
-2.19512e-22
-1.92106e-21
-1.59678e-22
1.93764e-21
-1.71127e-22
-2.77971e-21
-6.36413e-21
-8.44735e-21
-4.55102e-21
-5.25366e-21
-3.30981e-21
-5.62608e-21
-2.73808e-21
-3.10402e-21
-4.28802e-21
-4.01628e-21
-4.43564e-21
-4.42439e-21
-4.27114e-21
-6.22062e-22
1.10989e-22
5.62669e-22
5.94904e-21
5.88282e-21
-1.78341e-21
-6.02261e-21
-3.62431e-21
-3.15752e-21
-3.8263e-21
-4.49231e-21
2.17207e-21
4.62303e-22
-3.7899e-21
-2.00618e-21
1.2759e-21
-1.84877e-22
-4.85189e-22
-9.82501e-22
3.11518e-22
-5.45087e-22
-1.49013e-21
-2.87368e-21
-4.47499e-22
1.85908e-21
-2.28456e-21
-5.98353e-21
-6.60682e-21
-7.22692e-21
-2.80998e-21
-3.47193e-21
-3.14143e-21
-6.29872e-21
-4.13749e-21
-3.01368e-21
-3.58552e-21
-3.15401e-21
-1.03441e-21
-3.38244e-21
-4.90589e-21
-1.37693e-21
-9.56294e-22
1.28169e-21
5.21703e-21
5.11571e-21
-2.67922e-21
-4.37526e-21
-2.95237e-21
-5.00911e-21
-2.46468e-21
-9.65633e-22
1.25492e-21
-1.53716e-21
-3.29299e-21
-2.12092e-21
7.87052e-22
2.96337e-22
-6.25417e-22
-1.93283e-22
-4.22156e-22
-2.49751e-21
-1.5843e-21
-1.16919e-21
-3.95057e-22
4.65549e-22
-3.45583e-21
-7.5808e-21
-7.38417e-21
-5.31393e-21
-4.27312e-21
-4.84116e-21
-5.03443e-21
-3.72058e-21
-3.58613e-21
-2.51703e-21
-3.42941e-21
-1.98349e-21
-1.79116e-21
-2.61045e-21
-3.22767e-21
-1.7467e-21
1.56874e-21
3.38055e-21
2.47517e-21
2.19911e-21
-2.6618e-21
-6.38145e-21
-3.47358e-21
-2.51385e-21
-1.57387e-21
-1.23535e-21
-6.94264e-22
-3.20709e-21
-1.3622e-21
-1.05165e-21
2.66066e-21
3.53782e-22
4.61818e-22
3.21617e-22
-1.24289e-21
-3.24179e-21
-1.18772e-21
-3.45687e-22
-1.43042e-22
6.47515e-22
-4.4372e-21
-6.49688e-21
-6.18531e-21
-6.91674e-21
-6.35967e-21
-3.49058e-21
-3.83077e-21
-3.19913e-21
-2.17567e-21
-3.12556e-21
-4.87718e-21
-1.56825e-21
1.401e-22
-6.61162e-22
-3.24924e-21
-4.97951e-21
-2.115e-21
1.03487e-21
5.54184e-21
4.59526e-21
-1.70978e-21
-5.75612e-21
-3.43497e-21
-2.94823e-21
-3.75175e-21
-3.56135e-21
-6.54209e-22
2.94269e-21
-1.84903e-22
1.42916e-21
1.05843e-21
-1.019e-21
-7.3072e-22
4.28191e-23
-1.08767e-21
-2.78647e-21
-1.1327e-21
-2.88857e-21
1.04331e-21
6.2689e-22
-7.51094e-21
-6.37286e-21
-4.72083e-21
-6.138e-21
-6.51107e-21
-4.53743e-21
-1.66244e-21
-3.15229e-21
-2.35304e-21
-4.74689e-24
-1.04442e-21
-9.41367e-22
-2.83198e-21
-2.34603e-22
-4.00492e-23
-6.85801e-21
-4.0795e-21
1.12173e-21
3.55128e-21
2.42861e-21
1.32143e-21
-3.07317e-21
-4.36574e-21
-2.44905e-21
-3.13171e-21
-2.20416e-21
-1.69826e-21
7.59812e-22
4.42842e-22
6.38517e-22
-8.40203e-22
-4.92498e-23
1.14955e-21
-2.24786e-22
-1.60618e-21
-2.15826e-21
-1.90912e-21
-2.48874e-21
-3.04616e-22
5.95898e-22
-1.10935e-20
-8.86103e-21
-5.42065e-21
-5.55292e-21
-4.50487e-21
-2.84989e-21
-2.30937e-21
-3.85449e-21
-2.55648e-21
1.04404e-21
1.84264e-21
-4.56239e-21
-8.62985e-22
4.2497e-22
-2.09811e-21
-5.27596e-21
-1.5729e-21
1.73914e-21
2.20005e-21
1.11272e-22
6.5082e-22
-1.44645e-21
-5.02801e-21
-4.69383e-21
-2.35336e-21
-5.13138e-23
-3.38138e-22
1.43446e-22
1.64263e-21
2.13745e-21
-2.95313e-21
-1.40565e-21
1.90416e-21
-3.18755e-22
-3.16654e-21
-3.56169e-21
-2.07113e-21
-4.58191e-22
2.55643e-21
9.41818e-22
-8.95357e-21
-5.85172e-21
-3.96943e-21
-4.8081e-21
-6.01369e-21
-2.50884e-21
-1.90615e-22
-4.56751e-21
-2.32999e-21
1.29982e-22
-1.63e-21
-1.16911e-21
-1.41593e-21
2.14942e-22
-1.36759e-22
-4.53809e-21
-1.29368e-21
-4.16994e-22
3.25967e-21
7.05883e-22
8.29229e-22
-8.14451e-22
-4.03908e-21
-3.45949e-21
-5.79549e-21
-3.4224e-21
1.4839e-21
1.20955e-21
1.35e-21
-1.1727e-21
-3.04395e-22
4.52224e-22
1.84061e-21
-3.60807e-22
-4.3242e-23
-9.05836e-22
-2.40335e-21
-3.41559e-21
-1.43739e-21
-1.27386e-21
-8.25622e-21
-5.02203e-21
-3.42142e-21
-5.70318e-21
-4.18694e-21
-2.15767e-21
-6.79659e-22
-8.1687e-22
-2.39253e-21
-1.40728e-21
-2.36601e-21
-2.40763e-21
-2.73464e-21
1.36818e-22
-3.20117e-22
-1.46767e-21
-1.60064e-21
-5.38282e-22
5.78448e-22
2.3293e-21
2.81984e-21
-2.63427e-21
-1.71378e-21
-5.02575e-21
-4.00922e-21
-1.33843e-21
-6.47659e-22
-4.1789e-22
1.75542e-22
-7.16952e-22
-4.06208e-23
2.00551e-21
2.46223e-21
8.40138e-22
7.60797e-22
-2.51892e-21
-2.74255e-21
7.13131e-22
-1.36397e-21
-2.7182e-21
-7.8191e-21
-4.45437e-21
-2.53548e-21
-3.6131e-21
-2.86594e-21
-4.63027e-21
-2.97044e-21
-1.36078e-21
-3.36377e-21
-1.82227e-21
-1.22707e-21
-2.87419e-21
9.63226e-22
3.24529e-21
-8.09008e-22
-4.70593e-21
-4.59432e-21
-3.64291e-22
2.96888e-21
2.71974e-21
2.28712e-21
-3.05202e-21
-3.98841e-21
-2.5257e-21
-2.14351e-21
-7.57381e-22
-1.68921e-21
-3.69865e-21
-4.7094e-22
-7.92978e-23
2.30786e-21
2.49251e-21
8.27751e-22
-8.18275e-22
-8.44352e-22
-2.41651e-21
-7.14018e-22
3.25599e-21
1.08516e-21
-6.26697e-22
-3.33205e-21
-3.55484e-21
-3.21055e-21
-2.48849e-21
-2.25867e-21
-5.27786e-21
-3.41562e-21
-1.08803e-21
-1.83869e-21
-1.85502e-21
-2.55149e-21
-9.75411e-22
-5.70599e-22
2.2448e-22
3.40402e-22
-2.94232e-21
-2.97072e-21
1.05411e-21
3.38021e-21
2.20541e-21
1.51091e-21
-5.42466e-21
-3.59598e-21
-1.15432e-21
3.69449e-22
-1.36118e-22
-6.15487e-22
-1.04578e-21
-1.53148e-21
-6.57287e-22
1.08857e-21
2.09894e-21
2.37771e-22
-4.16174e-23
2.03113e-21
-1.72395e-21
3.71941e-22
2.56273e-21
-2.08215e-22
-2.1927e-21
-3.07241e-21
-3.3585e-21
-5.08985e-22
-4.63761e-21
-1.35989e-21
-5.32592e-21
-3.15042e-21
-2.63871e-21
-1.47959e-21
-1.08476e-21
-2.1928e-21
-2.08784e-21
-3.22433e-22
-5.98555e-23
-2.34051e-21
-9.67481e-22
-1.58301e-21
1.98343e-21
3.80104e-21
1.68077e-21
1.68629e-21
-4.27574e-21
-1.8965e-21
-1.39189e-21
-1.48196e-21
-1.11912e-21
-1.23686e-21
1.97063e-22
1.10924e-21
-1.10404e-21
-1.1451e-21
5.47679e-22
1.71358e-21
1.20325e-21
1.9397e-22
-8.03573e-22
2.7606e-21
2.83649e-21
-1.88693e-21
-1.88147e-21
-3.52276e-21
-3.38626e-21
-2.67947e-21
-2.81691e-21
-2.77045e-21
-4.69609e-21
-2.93542e-21
-1.96975e-21
-1.29008e-21
-2.06334e-21
-6.34882e-22
-1.37104e-21
3.58583e-22
-3.88112e-22
-1.28979e-21
4.64445e-22
3.25314e-22
5.21886e-22
3.32636e-21
4.44333e-21
4.88738e-22
-2.49196e-21
-3.18525e-21
-3.74919e-21
-2.72254e-22
1.2422e-21
-2.5546e-21
-1.05459e-21
6.44047e-22
-1.41146e-21
-2.14751e-21
-1.85321e-22
6.8007e-22
1.71072e-21
8.66576e-22
8.09583e-22
-5.15277e-24
3.02307e-21
-1.11853e-21
-2.09536e-21
-2.38428e-21
-3.55622e-22
-1.96522e-21
-4.09545e-21
-3.25033e-21
-3.85515e-21
-2.4486e-21
-1.25791e-21
-9.56686e-23
-2.29337e-21
-4.85932e-22
2.26435e-21
9.72882e-22
-9.55542e-22
-2.16924e-21
-7.62585e-22
-8.78053e-22
1.5921e-21
9.64787e-22
1.06597e-21
2.10513e-21
1.2276e-22
-3.74778e-21
-3.07673e-21
-2.75857e-21
8.69266e-22
9.82105e-22
1.55032e-21
-3.28296e-21
-3.95622e-21
-1.13849e-23
-9.08833e-22
-2.08827e-22
1.00341e-21
1.14923e-21
-3.44394e-22
-1.06304e-21
1.18044e-21
2.61638e-22
-6.15961e-22
-5.58295e-21
-1.50069e-21
-1.55546e-21
9.86903e-22
1.33523e-21
-1.37373e-21
-4.30511e-21
-2.51333e-21
-5.79892e-22
-1.89876e-21
-1.70007e-21
1.92296e-21
1.0875e-21
-1.15902e-21
-1.49117e-21
-1.94302e-21
-1.55232e-21
-2.28672e-22
1.74299e-21
1.24507e-21
7.92937e-22
-7.46579e-22
-1.58795e-21
-1.20715e-21
-1.07253e-21
1.75723e-22
1.35275e-22
5.82346e-22
-2.24189e-21
-2.48315e-22
-3.57247e-22
3.81129e-22
-8.38711e-22
-9.24501e-22
6.23576e-22
-1.36143e-21
-2.55333e-21
-7.71248e-22
7.08178e-22
6.29028e-22
2.42642e-21
8.32179e-22
-7.52793e-21
-5.303e-21
-1.34961e-21
-3.86546e-21
-1.96904e-21
-6.25148e-22
-1.8845e-21
-1.29524e-21
-2.15862e-21
-3.24279e-21
-2.30026e-21
-1.21554e-21
-2.01497e-21
-2.9422e-21
-1.17934e-21
-1.21787e-22
2.32826e-21
1.60154e-21
-1.16805e-21
-2.81264e-21
-2.18309e-21
-1.50559e-21
-2.71164e-21
-1.50498e-21
-1.02033e-21
-1.93432e-21
-2.73561e-21
-3.47115e-21
-3.27435e-21
7.35194e-23
-3.25008e-21
2.24694e-21
2.35566e-22
-1.06851e-22
1.97077e-21
5.76696e-22
-4.27332e-22
5.98513e-22
-6.39836e-22
-3.38203e-21
-7.74176e-21
-7.47894e-21
-7.70008e-22
-2.86607e-21
-2.98628e-21
-3.12507e-21
-4.33149e-21
-3.34004e-21
-3.92045e-21
-2.80793e-21
-4.24702e-21
-3.41401e-21
-3.22166e-21
-9.88409e-22
8.20609e-22
-1.48237e-21
1.05435e-22
1.5192e-21
1.39077e-22
-3.32249e-21
-2.98373e-21
-3.75817e-21
-2.67556e-21
-1.36634e-21
1.91026e-21
-7.28323e-22
-3.86112e-21
-2.96378e-21
-8.50309e-22
-9.27372e-24
-3.34546e-21
1.38133e-22
7.45145e-22
-1.27856e-21
1.16557e-21
2.89234e-21
7.80502e-22
-1.05017e-22
-3.23339e-21
-3.8972e-21
-6.08182e-21
-5.62194e-21
-3.81236e-21
-2.99832e-21
-3.03653e-21
-8.29179e-21
-4.40653e-21
-9.91265e-22
-3.19171e-21
-3.868e-21
-2.46887e-21
-2.36859e-21
-2.19873e-21
-2.525e-21
-1.95906e-21
-1.92668e-21
1.2231e-22
1.7058e-21
-1.28998e-21
-1.94199e-21
-1.94647e-21
-2.79824e-21
-3.23134e-21
-1.5417e-22
1.54226e-21
-4.51535e-21
-3.03025e-21
-2.33887e-21
-1.68124e-21
-2.45184e-21
-4.73181e-22
1.69368e-21
-1.60664e-21
-3.54802e-22
1.37872e-21
2.69764e-21
1.07562e-21
2.45924e-22
-6.94956e-21
-7.6903e-21
-5.79387e-21
-5.94344e-21
-5.518e-21
-5.891e-21
-6.32208e-21
-4.08321e-21
-6.51343e-21
-2.18049e-21
-2.40545e-21
-6.00799e-21
-3.29004e-21
-1.50034e-21
-2.69542e-21
-3.85914e-21
-3.28417e-21
-3.73363e-21
8.07055e-22
3.34536e-21
-1.08663e-21
-2.45371e-21
-4.3275e-21
-5.47104e-21
-2.73187e-21
1.1042e-22
1.69763e-22
6.42453e-22
-2.55632e-21
-3.46467e-21
-8.09326e-22
-1.04953e-21
-1.26756e-21
1.13207e-21
1.22151e-21
1.24257e-22
3.49129e-22
1.09028e-21
-5.70365e-22
1.56912e-22
-8.36258e-21
-8.50517e-21
-6.51312e-21
-5.34157e-21
-7.87175e-21
-5.85323e-21
-4.59684e-21
-4.295e-21
-4.67536e-21
-5.95828e-21
-5.32953e-21
-5.86483e-21
-2.03199e-21
-2.61984e-21
-4.85442e-21
-6.5789e-21
-4.75403e-21
-3.11371e-21
2.79943e-21
2.9192e-21
1.19296e-21
-2.8666e-21
-4.47371e-21
-4.17452e-21
-1.82828e-21
2.85225e-22
-1.52575e-21
-2.23001e-21
-1.53925e-21
-7.40645e-23
2.26921e-22
-1.44187e-21
-4.37994e-22
7.22817e-22
9.65025e-22
5.37154e-22
1.44317e-21
-3.53983e-22
-1.22292e-21
-2.49946e-22
-7.83756e-21
-8.90124e-21
-5.69507e-21
-5.24521e-21
-8.14956e-21
-6.44834e-21
-3.73448e-21
-5.78376e-21
-5.8204e-21
-6.77064e-21
-5.30978e-21
-5.94666e-21
-2.06811e-21
-3.03286e-21
-5.74757e-21
-5.59187e-21
-4.21895e-21
-2.8725e-21
2.11764e-21
3.34846e-21
-1.8762e-22
-4.7291e-21
-5.83582e-21
-2.79009e-21
-2.8419e-22
-4.31702e-23
2.66493e-22
-1.49057e-21
-2.28368e-21
-3.13663e-22
-1.84963e-21
-7.79663e-22
6.93712e-22
2.74964e-21
9.17083e-22
5.21509e-22
-1.13941e-22
-1.87867e-21
-1.26221e-21
1.15595e-22
-9.3854e-21
-1.20639e-20
-7.2997e-21
-8.57071e-21
-8.24871e-21
-4.01248e-21
-4.36226e-21
-5.37887e-21
-7.08134e-21
-7.94515e-21
-6.16998e-21
-3.42585e-21
-7.31908e-22
-2.63285e-21
-7.13548e-21
-6.67819e-21
-2.52806e-21
-7.42501e-22
2.1048e-21
1.4458e-21
-1.0132e-21
-2.95158e-21
-4.45529e-21
-3.68544e-21
-1.68357e-21
1.90136e-22
-3.94256e-22
-1.72261e-21
5.98215e-22
1.30074e-21
-2.71598e-22
-3.69792e-22
-5.09907e-23
1.90814e-21
1.43302e-21
8.49545e-22
6.60701e-23
-2.95761e-21
-3.12808e-21
3.09319e-22
-8.38516e-21
-1.14126e-20
-1.00465e-20
-1.03824e-20
-7.73653e-21
-4.44203e-21
-5.46671e-21
-7.01237e-21
-5.90931e-21
-3.65688e-21
-6.76225e-21
-5.94905e-21
-3.3291e-21
-1.82083e-21
-4.9887e-21
-5.22342e-21
-1.56537e-21
-2.01107e-22
1.85139e-21
1.53206e-21
-1.08367e-21
-4.92947e-21
-4.80097e-21
-1.52566e-21
-1.79422e-21
1.35416e-21
1.48151e-21
-5.09322e-22
6.96854e-23
-6.24846e-22
-2.56006e-21
-1.62512e-22
3.60681e-22
1.56003e-21
-4.48219e-23
-3.16743e-22
4.28971e-22
-1.50135e-21
-2.79063e-21
-1.401e-21
-1.10946e-20
-1.36617e-20
-1.13315e-20
-1.09767e-20
-9.88031e-21
-4.51588e-21
-7.30355e-21
-5.21003e-21
-5.01783e-21
-5.06454e-21
-5.64765e-21
-7.83735e-21
-3.76907e-21
-2.5865e-21
-3.44562e-21
-4.53833e-21
-2.9629e-21
-3.12178e-22
1.90649e-21
7.8106e-22
7.5457e-22
-3.18296e-21
-3.29614e-21
-4.76442e-21
-6.96415e-22
3.05438e-21
-7.80573e-22
-1.50693e-21
3.51239e-21
-1.66668e-22
-2.42102e-21
-1.20872e-21
-1.16238e-21
2.02979e-21
-6.92285e-22
-7.05983e-22
-2.97958e-23
-2.57022e-21
-2.89978e-21
-1.99232e-21
-1.39301e-20
-1.23676e-20
-1.22276e-20
-1.27612e-20
-9.60994e-21
-6.15663e-21
-7.94517e-21
-7.26827e-21
-3.6635e-21
-3.6074e-21
-5.80556e-21
-6.49621e-21
-3.91398e-21
-7.18013e-22
-5.6388e-21
-3.92367e-21
-2.66712e-21
-1.07405e-21
1.74001e-21
3.62625e-21
-1.30563e-22
-4.09671e-21
-4.17003e-21
-4.55876e-21
-5.39432e-22
1.14581e-21
9.06377e-22
-3.9328e-22
3.23075e-22
-3.50087e-22
-8.13419e-22
2.90206e-22
-1.08474e-21
4.96835e-23
-4.64075e-22
-2.08145e-21
-1.35411e-21
-2.81483e-21
-1.60475e-21
-1.20625e-21
-1.56372e-20
-1.63337e-20
-1.446e-20
-1.3041e-20
-9.60184e-21
-4.41251e-21
-1.08639e-20
-7.67032e-21
-6.21288e-21
-4.2178e-21
-5.41693e-21
-4.50087e-21
-4.4311e-21
-6.17554e-22
-7.1427e-21
-4.76725e-21
-1.73882e-22
-8.94034e-22
1.24547e-21
3.711e-21
-3.34695e-21
-3.46937e-21
-4.08381e-21
-5.24851e-21
-2.4161e-21
3.70501e-22
6.75915e-22
-6.69736e-22
1.13675e-21
7.29273e-22
4.11413e-22
1.28766e-22
6.08561e-22
-4.26191e-22
1.9122e-22
-1.4009e-21
-2.03393e-21
-2.05487e-21
-3.01618e-21
-1.41105e-21
-1.73924e-20
-1.96341e-20
-1.3558e-20
-1.24525e-20
-9.70371e-21
-6.33527e-21
-1.08031e-20
-6.73103e-21
-5.37675e-21
-5.90897e-21
-5.66718e-21
-4.94637e-21
-5.07443e-21
-3.47667e-21
-6.09664e-21
-3.84192e-21
-1.51824e-21
-1.58834e-21
-1.67585e-22
2.59057e-21
-8.04073e-22
-3.61458e-21
-4.49188e-21
-2.24451e-21
-2.84695e-21
-1.74664e-21
-5.81487e-22
2.57483e-21
3.73055e-21
3.9583e-22
3.32421e-21
-2.20167e-22
-2.30757e-21
-8.56143e-22
-1.53669e-21
-9.80421e-22
1.64026e-21
-1.84195e-22
-3.22058e-21
-2.44229e-21
-1.80409e-20
-1.6923e-20
-1.35397e-20
-1.31053e-20
-1.22197e-20
-9.39133e-21
-5.83574e-21
-5.32335e-21
-6.19931e-21
-6.38385e-21
-5.55578e-21
-5.45997e-21
-5.13883e-21
-4.45477e-21
-5.26483e-21
-2.08439e-21
-6.02735e-22
-1.94564e-21
-3.95365e-21
6.00977e-22
-1.31552e-21
-6.83217e-22
-2.63601e-21
-2.12703e-21
-1.68833e-21
-6.48633e-22
-1.53337e-21
1.07587e-21
2.58878e-21
3.07356e-21
1.15856e-21
9.96426e-22
-9.02619e-22
-1.28381e-21
-4.05047e-21
-1.01684e-21
2.70952e-21
-7.16929e-22
-5.59637e-21
2.25555e-22
-2.08901e-20
-1.93316e-20
-1.54673e-20
-1.28408e-20
-1.11547e-20
-9.03721e-21
-7.08273e-21
-3.83091e-21
-6.819e-21
-8.1442e-21
-7.45069e-21
-4.27047e-21
-6.37847e-21
-6.2381e-21
-3.99978e-21
-3.57849e-21
4.86034e-22
-6.99327e-22
-8.98525e-23
2.11516e-21
-2.91067e-21
-3.18237e-21
-2.18147e-21
-4.74255e-21
-2.90974e-21
-1.21384e-21
-1.72297e-22
1.1469e-21
6.65382e-22
2.02409e-21
2.04702e-21
2.74548e-21
-6.89578e-22
-1.3463e-21
-2.74145e-21
-1.60109e-22
2.45838e-21
-1.38201e-21
-3.58773e-21
8.32079e-22
-2.09256e-20
-1.86947e-20
-1.5065e-20
-1.11032e-20
-1.03621e-20
-9.05138e-21
-8.31678e-21
-5.71105e-21
-6.79094e-21
-6.69317e-21
-6.63607e-21
-5.08069e-21
-6.53247e-21
-5.0097e-21
-4.53957e-21
-1.67196e-21
1.60716e-21
3.64308e-22
-1.53603e-21
-8.62492e-22
-3.94718e-21
-3.7061e-21
-3.35061e-21
-3.22119e-21
-1.74225e-21
-1.64253e-21
-7.74065e-22
4.07993e-22
-2.06892e-22
6.64436e-22
1.59473e-22
2.16103e-21
1.4141e-21
-3.19098e-22
-3.22108e-21
-3.99303e-21
1.67294e-22
2.07833e-21
-3.14104e-22
4.09827e-22
-1.80224e-20
-1.61541e-20
-1.40289e-20
-1.42275e-20
-1.21584e-20
-1.037e-20
-8.60277e-21
-6.70629e-21
-5.28563e-21
-5.81554e-21
-7.20184e-21
-5.90541e-21
-8.16052e-21
-1.86062e-21
-1.33579e-21
-1.04639e-21
9.29644e-22
-1.49338e-23
7.2438e-22
-1.17528e-21
-5.26354e-21
-5.13139e-21
-5.23003e-21
-2.78309e-21
-1.88355e-21
-1.95185e-21
-1.27844e-22
1.74378e-21
-1.22282e-21
3.78335e-22
4.74758e-22
1.35694e-21
2.09363e-21
1.05503e-22
-7.10383e-22
-3.75329e-21
-6.61392e-22
1.52314e-22
-7.39088e-22
-5.38611e-23
-1.64895e-20
-1.62667e-20
-1.29675e-20
-1.1284e-20
-1.21751e-20
-8.82536e-21
-8.8705e-21
-7.60091e-21
-5.82957e-21
-4.82582e-21
-6.44343e-21
-4.75887e-21
-6.58239e-21
-3.84061e-21
-9.98232e-22
1.98308e-21
5.09002e-23
2.17337e-22
-1.98122e-21
-2.40222e-21
-5.85353e-21
-2.90558e-21
-3.63915e-21
-5.02661e-21
-2.64754e-21
-1.64902e-21
8.09037e-22
2.18316e-21
-9.20547e-22
-2.16611e-22
-1.38343e-21
-1.39932e-22
2.40376e-21
1.30355e-21
-6.7897e-22
-2.83524e-21
1.24799e-22
3.34103e-23
8.81008e-22
1.01407e-21
-1.38404e-20
-1.58249e-20
-1.75512e-20
-1.26751e-20
-1.00432e-20
-9.67754e-21
-8.35532e-21
-5.86901e-21
-6.63903e-21
-7.48569e-21
-6.06917e-21
-2.8764e-21
-5.12588e-21
-3.35143e-21
-1.4507e-21
1.31664e-22
-1.06042e-21
9.47425e-22
1.5925e-21
-2.62274e-21
-6.61475e-21
-7.43786e-21
-4.44982e-21