/*--------------------------------*- C++ -*----------------------------------*\
| =========                 |                                                 |
| \\      /  F ield         | OpenFOAM: The Open Source CFD Toolbox           |
|  \\    /   O peration     | Version:  v2012                                 |
|   \\  /    A nd           | Website:  www.openfoam.com                      |
|    \\/     M anipulation  |                                                 |
\*---------------------------------------------------------------------------*/
FoamFile
{
    version     2.0;
    format      ascii;
    class       surfaceScalarField;
    location    "7";
    object      phi;
}
// * * * * * * * * * * * * * * * * * * * * * * * * * * * * * * * * * * * * * //

dimensions      [0 3 -1 0 0 0 0];
oriented        oriented;


internalField   nonuniform List<scalar> 
187200
(
1.875e-06
1.70127e-22
8.42247e-23
1.875e-06
1.26068e-22
1.37446e-22
1.875e-06
1.04043e-22
2.60763e-22
1.875e-06
7.11528e-23
1.69311e-22
1.875e-06
1.47081e-22
-2.48922e-23
1.875e-06
2.5183e-22
8.57978e-23
1.875e-06
1.0177e-22
3.03947e-23
1.875e-06
2.10945e-24
6.62957e-24
1.875e-06
8.89809e-23
1.32413e-22
1.875e-06
1.96993e-22
1.29948e-22
1.875e-06
7.58286e-23
5.5454e-23
1.875e-06
1.15768e-22
9.07013e-23
1.875e-06
3.21668e-23
7.90949e-23
1.875e-06
-4.95922e-23
-4.44567e-23
1.875e-06
2.31149e-23
7.83731e-23
1.875e-06
5.74697e-23
4.78581e-23
1.875e-06
2.18666e-23
7.7537e-24
1.875e-06
-1.69239e-23
1.31449e-23
1.875e-06
2.08654e-23
-9.62698e-23
1.875e-06
9.26981e-23
-1.34252e-22
1.875e-06
-1.98123e-22
-1.49838e-22
1.875e-06
-1.86415e-22
-8.087e-23
1.875e-06
1.81664e-23
3.56191e-23
1.875e-06
2.45772e-22
4.26425e-23
1.875e-06
1.69245e-22
-3.52057e-23
1.875e-06
-5.49765e-23
1.1277e-23
1.875e-06
-5.98362e-23
5.76292e-23
1.875e-06
4.0857e-23
9.25615e-23
1.875e-06
4.26444e-23
1.34238e-22
1.875e-06
-1.07673e-22
1.03774e-22
1.875e-06
-2.2066e-22
1.60447e-22
1.875e-06
-8.00281e-23
-2.01344e-24
1.875e-06
-4.75624e-23
3.88927e-23
1.875e-06
-8.31274e-23
-1.32157e-22
1.875e-06
6.31888e-23
-2.65002e-23
1.875e-06
-4.56722e-23
-1.39974e-22
1.875e-06
-1.55721e-22
-2.80318e-22
1.875e-06
-2.36737e-23
-1.0844e-23
1.875e-06
-2.32768e-24
1.17203e-22
-2.60895e-23
7.62969e-23
1.875e-06
1.45342e-22
1.66622e-22
1.875e-06
1.53591e-22
3.28566e-22
1.875e-06
1.64055e-22
3.31374e-22
1.875e-06
9.96318e-23
2.99644e-22
1.875e-06
-2.40035e-23
-7.63502e-23
1.875e-06
5.79965e-23
-6.99749e-23
1.875e-06
8.79452e-23
1.85184e-23
1.875e-06
1.34195e-22
1.64071e-22
1.875e-06
7.43968e-23
2.82606e-22
1.875e-06
3.18979e-24
1.82837e-22
1.875e-06
5.6693e-23
1.83351e-22
1.875e-06
3.49258e-23
5.30503e-24
1.875e-06
5.9614e-23
1.81904e-22
1.875e-06
5.62053e-23
1.29429e-22
1.875e-06
-7.95841e-24
1.27062e-22
1.875e-06
-8.30703e-23
6.51172e-24
1.875e-06
1.12132e-22
-5.10631e-23
1.875e-06
1.55149e-22
7.16782e-23
1.875e-06
1.79691e-22
6.79543e-23
1.875e-06
2.67769e-24
-1.92042e-22
1.875e-06
-4.49972e-23
-6.52573e-23
1.875e-06
-2.08895e-22
7.69645e-23
1.875e-06
-6.22516e-23
9.72741e-24
1.875e-06
-3.93162e-24
-1.11583e-22
1.875e-06
-1.24545e-22
-1.09244e-22
1.875e-06
3.66223e-23
7.61906e-23
1.875e-06
6.42422e-23
-1.75044e-23
1.875e-06
1.63561e-23
4.82378e-23
1.875e-06
-3.75156e-23
1.30269e-22
1.875e-06
-3.26269e-23
1.70735e-22
1.875e-06
-2.23122e-23
1.99226e-22
1.875e-06
-1.06276e-23
1.34347e-22
1.875e-06
-6.14679e-23
1.29012e-22
1.875e-06
-1.12037e-22
-2.64099e-23
1.875e-06
-1.493e-22
-1.23248e-22
1.875e-06
-1.17057e-22
-1.7305e-22
1.875e-06
-5.09798e-23
-1.4398e-22
1.875e-06
7.80535e-23
-1.39462e-22
1.875e-06
9.55983e-23
8.00496e-24
8.61157e-23
1.04594e-22
1.875e-06
1.30779e-22
2.00789e-22
1.875e-06
2.24133e-22
2.76299e-22
1.875e-06
5.01981e-23
2.12215e-22
1.875e-06
1.2875e-22
2.27832e-22
1.875e-06
3.15644e-23
1.13969e-22
1.875e-06
6.43658e-25
9.92471e-25
1.875e-06
6.72813e-23
6.3637e-23
1.875e-06
6.5239e-23
2.81062e-22
1.875e-06
1.09458e-22
2.51183e-22
1.875e-06
1.12093e-22
1.39885e-22
1.875e-06
3.27599e-23
1.21481e-22
1.875e-06
3.43206e-23
8.84903e-23
1.875e-06
1.46979e-22
1.22085e-22
1.875e-06
2.71175e-23
1.03629e-22
1.875e-06
2.51016e-23
1.21364e-22
1.875e-06
1.22316e-22
1.35186e-22
1.875e-06
2.39466e-23
9.16939e-24
1.875e-06
5.83911e-23
5.00399e-23
1.875e-06
-1.64283e-23
-8.94982e-23
1.875e-06
-1.42875e-22
-1.6812e-22
1.875e-06
-1.40003e-22
-2.32168e-23
1.875e-06
-1.05361e-22
1.29288e-22
1.875e-06
-3.19033e-23
2.99359e-23
1.875e-06
8.48964e-23
-7.87926e-23
1.875e-06
1.4828e-23
6.05734e-23
1.875e-06
-1.81731e-23
4.27771e-23
1.875e-06
-1.86518e-23
-7.44961e-23
1.875e-06
-3.94456e-23
1.05603e-22
1.875e-06
-1.03624e-23
2.03516e-22
1.875e-06
-1.91738e-23
2.18834e-22
1.875e-06
4.80451e-24
2.05381e-22
1.875e-06
4.02501e-24
1.57335e-22
1.875e-06
3.04153e-24
5.69455e-23
1.875e-06
-5.07657e-23
-5.61072e-23
1.875e-06
-1.31571e-22
-2.59532e-23
1.875e-06
-5.99813e-23
-9.51427e-23
1.875e-06
-6.4577e-23
-1.69381e-22
1.875e-06
-4.59892e-24
-2.36806e-22
1.875e-06
9.7454e-23
-8.33639e-23
1.05719e-22
2.07458e-23
1.875e-06
1.94172e-22
2.20613e-22
1.875e-06
1.21495e-22
2.70767e-22
1.875e-06
3.66569e-23
2.01875e-22
1.875e-06
-4.2654e-24
1.69372e-22
1.875e-06
-3.30438e-24
2.11978e-22
1.875e-06
-2.01504e-23
1.49019e-22
1.875e-06
1.36205e-23
2.42344e-22
1.875e-06
3.95572e-23
2.10677e-22
1.875e-06
6.20152e-23
2.75322e-22
1.875e-06
1.42525e-22
1.39745e-22
1.875e-06
1.05743e-22
1.83128e-22
1.875e-06
2.86742e-23
2.28093e-22
1.875e-06
-3.46283e-23
7.49246e-23
1.875e-06
-3.76048e-23
1.01508e-22
1.875e-06
1.22084e-22
1.61434e-22
1.875e-06
2.10868e-22
8.24415e-23
1.875e-06
9.94753e-23
6.4356e-23
1.875e-06
-1.08029e-22
6.90608e-23
1.875e-06
-1.74605e-22
-9.19254e-23
1.875e-06
-9.98087e-23
-1.93188e-22
1.875e-06
-1.19517e-22
2.76419e-23
1.875e-06
7.53695e-23
2.58851e-22
1.875e-06
2.01127e-22
1.3086e-22
1.875e-06
-7.82741e-23
-1.30318e-23
1.875e-06
-7.2483e-25
9.64454e-23
1.875e-06
-2.56114e-24
3.60069e-23
1.875e-06
6.35376e-24
-4.7855e-23
1.875e-06
3.01318e-23
1.81959e-24
1.875e-06
4.80543e-23
1.96984e-22
1.875e-06
-2.69901e-23
2.32764e-22
1.875e-06
-9.67895e-23
8.86252e-23
1.875e-06
-6.46573e-23
1.1507e-22
1.875e-06
-6.03681e-23
1.32464e-22
1.875e-06
-3.89529e-23
-6.60152e-23
1.875e-06
1.64493e-23
-9.87479e-23
1.875e-06
1.09931e-24
-1.9405e-22
1.875e-06
-2.79528e-23
-8.17378e-23
1.875e-06
5.24908e-24
-1.18178e-22
1.875e-06
3.2753e-23
-6.23131e-23
7.18061e-24
-1.54019e-23
1.875e-06
-1.74964e-22
9.52021e-23
1.875e-06
-4.97958e-23
2.58587e-22
1.875e-06
3.04169e-23
2.68487e-22
1.875e-06
-3.39012e-23
1.94818e-22
1.875e-06
6.82126e-23
3.33131e-22
1.875e-06
2.25707e-23
2.37938e-22
1.875e-06
1.19813e-23
2.52397e-22
1.875e-06
4.29699e-23
2.49791e-22
1.875e-06
4.8345e-23
2.40063e-22
1.875e-06
1.70149e-23
2.31159e-22
1.875e-06
4.17152e-24
2.62902e-22
1.875e-06
2.92388e-23
2.14871e-22
1.875e-06
6.12224e-23
9.964e-23
1.875e-06
7.087e-23
2.37818e-22
1.875e-06
-4.66055e-23
1.74384e-22
1.875e-06
-4.93785e-24
3.01674e-23
1.875e-06
7.75905e-24
4.77746e-23
1.875e-06
-5.69341e-23
9.46927e-23
1.875e-06
-1.44998e-22
-6.33348e-23
1.875e-06
-1.4099e-22
-6.90703e-23
1.875e-06
9.19385e-24
-7.47922e-24
1.875e-06
6.15983e-23
1.13446e-22
1.875e-06
1.49454e-22
8.39691e-24
1.875e-06
4.51189e-23
8.54774e-23
1.875e-06
-3.40283e-23
7.44664e-23
1.875e-06
7.14245e-24
6.28028e-23
1.875e-06
7.11327e-23
6.64621e-23
1.875e-06
2.5062e-23
6.59385e-23
1.875e-06
-4.86889e-23
5.90281e-23
1.875e-06
-8.99334e-24
8.60308e-23
1.875e-06
5.4145e-23
1.45281e-22
1.875e-06
4.001e-23
1.11118e-22
1.875e-06
-7.77412e-23
-5.2659e-25
1.875e-06
-7.91969e-23
-1.08844e-22
1.875e-06
-4.10053e-23
-2.07427e-22
1.875e-06
-9.49995e-23
-2.21184e-22
1.875e-06
7.40623e-23
-6.78753e-23
1.875e-06
8.93269e-23
-2.53641e-23
1.875e-06
1.98957e-23
-1.6196e-23
2.72528e-23
1.54792e-24
1.875e-06
1.54248e-22
3.22161e-22
1.875e-06
9.56946e-23
3.98251e-22
1.875e-06
4.00774e-23
2.64895e-22
1.875e-06
1.53242e-22
2.62126e-22
1.875e-06
8.46683e-23
3.27616e-22
1.875e-06
-1.78493e-23
2.78027e-22
1.875e-06
-1.86793e-24
2.35825e-22
1.875e-06
3.64074e-23
3.07062e-22
1.875e-06
6.47459e-23
2.74639e-22
1.875e-06
-1.49578e-23
2.63819e-22
1.875e-06
2.07342e-23
2.70834e-22
1.875e-06
2.68294e-23
2.44733e-22
1.875e-06
3.33977e-23
1.11535e-22
1.875e-06
1.16127e-22
2.17319e-22
1.875e-06
8.92592e-23
2.84209e-22
1.875e-06
-1.28376e-22
5.36291e-23
1.875e-06
-1.25091e-22
-1.02703e-23
1.875e-06
-1.30716e-22
1.15263e-22
1.875e-06
-2.15033e-22
5.08779e-23
1.875e-06
3.06761e-23
-4.38037e-23
1.875e-06
1.15165e-22
6.86861e-23
1.875e-06
9.5887e-23
1.74045e-22
1.875e-06
-2.26896e-24
-4.13801e-23
1.875e-06
8.01446e-25
2.96062e-23
1.875e-06
4.71809e-23
-1.01909e-23
1.875e-06
6.79389e-23
8.22913e-23
1.875e-06
-5.39566e-23
-1.01073e-23
1.875e-06
-1.04928e-22
-3.09879e-23
1.875e-06
-8.42731e-23
8.37187e-23
1.875e-06
2.16187e-23
1.19887e-22
1.875e-06
1.34017e-22
1.77212e-22
1.875e-06
6.10844e-23
7.33386e-23
1.875e-06
-5.26123e-24
-5.62334e-23
1.875e-06
-3.54162e-23
-1.76766e-22
1.875e-06
-3.50574e-23
-2.30388e-22
1.875e-06
-6.28149e-23
-1.94141e-22
1.875e-06
-2.27837e-23
-1.14344e-22
1.875e-06
4.80923e-24
-9.24561e-23
1.875e-06
9.23505e-23
-3.48709e-23
8.44409e-23
-3.24981e-23
1.875e-06
4.52629e-23
2.28333e-22
1.875e-06
8.53932e-23
4.60989e-22
1.875e-06
1.54191e-22
3.79073e-22
1.875e-06
7.35123e-23
3.4133e-22
1.875e-06
6.56089e-23
3.37439e-22
1.875e-06
3.36328e-23
3.01384e-22
1.875e-06
3.41916e-23
2.17238e-22
1.875e-06
4.89421e-23
2.82296e-22
1.875e-06
-2.66858e-23
2.95606e-22
1.875e-06
-9.42385e-25
3.48988e-22
1.875e-06
8.64224e-23
2.97467e-22
1.875e-06
7.32649e-23
2.02044e-22
1.875e-06
8.5016e-23
7.45017e-23
1.875e-06
7.29993e-23
1.71534e-22
1.875e-06
2.28958e-23
3.08853e-22
1.875e-06
-1.60917e-23
2.03246e-22
1.875e-06
-6.78592e-23
-2.54956e-24
1.875e-06
-6.82877e-23
6.01154e-23
1.875e-06
6.09264e-23
1.30383e-22
1.875e-06
-4.92935e-23
9.62543e-24
1.875e-06
7.13972e-23
7.45305e-23
1.875e-06
6.48216e-23
9.78777e-23
1.875e-06
-3.94338e-23
-4.84638e-23
1.875e-06
-7.76833e-23
1.64495e-23
1.875e-06
-2.50003e-23
3.92123e-23
1.875e-06
-5.6941e-23
2.5281e-23
1.875e-06
-9.5262e-23
8.83044e-24
1.875e-06
-1.20049e-22
3.03391e-23
1.875e-06
-8.01068e-23
3.48302e-23
1.875e-06
8.37861e-23
1.82441e-23
1.875e-06
1.4886e-22
-1.60348e-23
1.875e-06
6.35429e-23
1.70368e-23
1.875e-06
8.57975e-23
9.04717e-24
1.875e-06
1.54199e-22
-1.64221e-22
1.875e-06
3.89676e-23
-1.90534e-22
1.875e-06
-2.32979e-23
-2.67177e-22
1.875e-06
-2.33904e-23
-1.76566e-22
1.875e-06
4.49655e-23
-8.55923e-23
1.875e-06
-6.29782e-23
-9.43257e-23
-3.50737e-23
-9.72924e-23
1.875e-06
2.72137e-22
1.96936e-22
1.875e-06
2.17998e-22
3.93894e-22
1.875e-06
3.43471e-23
3.97524e-22
1.875e-06
1.76783e-22
4.45679e-22
1.875e-06
3.11751e-23
3.97605e-22
1.875e-06
6.16285e-23
3.47219e-22
1.875e-06
1.66636e-23
2.96979e-22
1.875e-06
-5.11816e-23
3.23261e-22
1.875e-06
-7.35615e-25
2.79236e-22
1.875e-06
1.16457e-22
2.00267e-22
1.875e-06
8.51174e-23
2.51349e-22
1.875e-06
8.8464e-23
2.30659e-22
1.875e-06
-8.98406e-23
1.33641e-22
1.875e-06
-5.41289e-23
1.27237e-22
1.875e-06
2.37739e-23
2.03105e-22
1.875e-06
1.03488e-22
1.44198e-22
1.875e-06
2.87255e-23
4.3658e-23
1.875e-06
-5.28723e-23
8.86895e-23
1.875e-06
6.12668e-23
9.78105e-23
1.875e-06
2.747e-23
7.48954e-23
1.875e-06
-1.64501e-23
8.35924e-23
1.875e-06
9.34691e-23
9.45754e-23
1.875e-06
-2.65496e-23
2.90415e-24
1.875e-06
-3.44818e-23
2.64818e-24
1.875e-06
-4.25631e-23
6.32763e-23
1.875e-06
1.20164e-23
1.79681e-23
1.875e-06
-1.27924e-22
-5.90544e-24
1.875e-06
-7.46885e-23
6.79044e-24
1.875e-06
-5.12972e-23
7.90204e-23
1.875e-06
4.94698e-23
3.86114e-23
1.875e-06
-6.60083e-23
1.43055e-23
1.875e-06
1.22722e-23
1.55187e-23
1.875e-06
7.95671e-23
-3.56903e-23
1.875e-06
6.66078e-23
-2.00642e-22
1.875e-06
1.41678e-22
-1.59984e-22
1.875e-06
8.64268e-23
-1.66388e-22
1.875e-06
-2.67307e-23
-2.1477e-22
1.875e-06
-1.78032e-23
-1.48451e-22
1.875e-06
-1.12204e-22
-9.39445e-23
-1.61095e-22
-5.59395e-23
1.875e-06
-1.42888e-22
2.59138e-23
1.875e-06
1.29121e-24
3.68464e-22
1.875e-06
1.87153e-22
5.57044e-22
1.875e-06
6.48838e-23
4.08743e-22
1.875e-06
1.76495e-22
4.58698e-22
1.875e-06
1.3613e-22
3.43072e-22
1.875e-06
8.02213e-23
4.18661e-22
1.875e-06
6.84842e-23
3.73827e-22
1.875e-06
-1.19862e-23
2.79711e-22
1.875e-06
-9.39175e-23
1.47084e-22
1.875e-06
-5.00425e-23
1.5882e-22
1.875e-06
-5.39805e-23
2.36349e-22
1.875e-06
1.59215e-23
2.68894e-22
1.875e-06
-4.00223e-23
1.94761e-22
1.875e-06
4.69466e-23
1.66464e-22
1.875e-06
-1.64465e-24
6.21705e-23
1.875e-06
4.8575e-23
7.51943e-23
1.875e-06
1.19066e-22
1.43971e-22
1.875e-06
1.82985e-23
6.457e-23
1.875e-06
-3.94631e-23
9.99195e-23
1.875e-06
-3.51596e-23
9.39968e-23
1.875e-06
2.52462e-23
6.94094e-24
1.875e-06
3.32096e-23
-4.13068e-23
1.875e-06
-3.98673e-23
9.5692e-23
1.875e-06
5.41442e-23
4.92427e-23
1.875e-06
-4.77337e-23
-1.21288e-22
1.875e-06
-4.63954e-24
6.01138e-23
1.875e-06
-1.55191e-22
6.98593e-23
1.875e-06
6.52612e-23
-5.64196e-23
1.875e-06
-3.17323e-23
2.31394e-24
1.875e-06
-3.21196e-23
1.47828e-22
1.875e-06
1.32767e-23
8.26106e-24
1.875e-06
1.09562e-22
-3.39783e-23
1.875e-06
1.32309e-22
-1.83783e-22
1.875e-06
4.55755e-23
-1.59063e-22
1.875e-06
6.02843e-23
-1.83189e-22
1.875e-06
7.22549e-23
-2.21639e-22
1.875e-06
-1.09158e-22
-1.46212e-22
1.875e-06
-1.16715e-22
4.96682e-23
-1.32064e-22
7.58552e-23
1.875e-06
2.10349e-23
3.70314e-22
1.875e-06
9.02646e-23
4.11524e-22
1.875e-06
1.20317e-22
4.9554e-22
1.875e-06
1.58448e-22
5.57686e-22
1.875e-06
4.61809e-23
4.14323e-22
1.875e-06
5.819e-23
3.57462e-22
1.875e-06
2.08093e-22
4.73548e-22
1.875e-06
5.24524e-23
3.9243e-22
1.875e-06
2.47373e-23
2.5428e-22
1.875e-06
3.59724e-23
1.74272e-22
1.875e-06
-2.01834e-23
2.03572e-22
1.875e-06
-8.73364e-23
2.40027e-22
1.875e-06
1.19589e-23
2.50213e-22
1.875e-06
3.776e-23
2.01949e-22
1.875e-06
-1.43042e-23
1.95787e-22
1.875e-06
-2.50974e-23
8.57043e-23
1.875e-06
-5.74147e-23
3.76242e-23
1.875e-06
3.0512e-24
1.03172e-22
1.875e-06
-3.84223e-23
9.8702e-23
1.875e-06
7.29619e-23
8.80235e-23
1.875e-06
1.9499e-22
1.3896e-22
1.875e-06
1.17598e-22
2.0009e-23
1.875e-06
-4.19911e-23
2.63651e-23
1.875e-06
4.11608e-23
2.15259e-22
1.875e-06
-1.13552e-23
-7.337e-24
1.875e-06
1.64854e-23
-2.97378e-23
1.875e-06
9.93471e-24
-4.23869e-23
1.875e-06
-1.60455e-23
-9.47906e-24
1.875e-06
-7.70701e-23
-6.78282e-23
1.875e-06
-7.56391e-23
3.86476e-23
1.875e-06
-7.05047e-23
2.05599e-23
1.875e-06
1.23684e-23
-5.58057e-23
1.875e-06
3.43775e-23
-7.94372e-23
1.875e-06
-5.19997e-24
-1.51846e-22
1.875e-06
9.95434e-23
-1.8715e-22
1.875e-06
1.52483e-22
-1.51945e-22
1.875e-06
-4.17277e-23
-2.37255e-22
1.875e-06
-2.5883e-22
-1.40413e-22
1.875e-06
-1.5131e-22
-1.51628e-23
-3.76669e-23
8.29266e-23
1.875e-06
8.66576e-23
4.84966e-22
1.875e-06
1.6966e-22
5.4431e-22
1.875e-06
1.6386e-22
5.97573e-22
1.875e-06
4.58037e-23
5.08794e-22
1.875e-06
1.23092e-23
4.51997e-22
1.875e-06
1.19886e-22
3.70901e-22
1.875e-06
1.26183e-22
4.15366e-22
1.875e-06
6.29153e-23
3.9285e-22
1.875e-06
-2.43257e-23
3.45371e-22
1.875e-06
-2.00221e-23
1.81704e-22
1.875e-06
3.18983e-23
2.03159e-22
1.875e-06
7.45237e-24
2.76474e-22
1.875e-06
7.52839e-23
2.4668e-22
1.875e-06
1.0241e-22
1.96839e-22
1.875e-06
-3.60345e-23
3.04507e-22
1.875e-06
-6.92559e-23
1.7556e-22
1.875e-06
-1.4021e-24
7.64893e-23
1.875e-06
3.42375e-23
1.28957e-22
1.875e-06
1.27154e-22
1.49633e-22
1.875e-06
-2.6819e-23
2.16915e-23
1.875e-06
3.54491e-23
6.8273e-23
1.875e-06
-1.93685e-23
-4.09236e-23
1.875e-06
1.37798e-23
5.4608e-23
1.875e-06
-9.62299e-24
1.78084e-22
1.875e-06
-5.64135e-23
5.26058e-23
1.875e-06
8.29624e-24
-1.06749e-22
1.875e-06
1.84377e-23
-5.03617e-23
1.875e-06
5.8392e-23
7.81012e-23
1.875e-06
-1.06712e-22
-8.9194e-23
1.875e-06
-8.52205e-23
8.06894e-24
1.875e-06
-1.76353e-23
5.671e-23
1.875e-06
7.38468e-24
-7.25615e-23
1.875e-06
-6.2131e-23
-1.85321e-22
1.875e-06
-1.04393e-23
-1.6712e-22
1.875e-06
5.0909e-23
-2.79826e-22
1.875e-06
-1.86618e-23
-2.66346e-22
1.875e-06
-6.82436e-23
-1.7984e-22
1.875e-06
-4.23713e-23
1.14956e-23
1.875e-06
2.40921e-23
1.068e-22
1.54383e-22
1.33359e-22
1.875e-06
1.72644e-22
5.10547e-22
1.875e-06
1.24473e-22
5.7562e-22
1.875e-06
9.21125e-23
5.2277e-22
1.875e-06
3.01909e-23
5.39829e-22
1.875e-06
1.16189e-22
5.69605e-22
1.875e-06
8.49769e-23
4.16341e-22
1.875e-06
2.0883e-23
4.05016e-22
1.875e-06
-7.89232e-24
3.77806e-22
1.875e-06
6.73575e-24
3.42559e-22
1.875e-06
3.87594e-23
2.19824e-22
1.875e-06
-4.51276e-25
2.21612e-22
1.875e-06
1.95382e-23
2.87079e-22
1.875e-06
-9.40477e-24
2.48795e-22
1.875e-06
5.32468e-23
2.50617e-22
1.875e-06
3.70964e-23
2.92968e-22
1.875e-06
-5.20442e-23
2.05746e-22
1.875e-06
-1.05814e-22
1.27753e-22
1.875e-06
-2.43256e-23
1.43472e-22
1.875e-06
8.84929e-23
1.14072e-22
1.875e-06
1.66921e-22
8.4275e-23
1.875e-06
-1.25024e-24
1.07882e-23
1.875e-06
-1.23156e-22
-7.45112e-24
1.875e-06
-6.02242e-23
8.49899e-23
1.875e-06
-1.75866e-23
6.76279e-23
1.875e-06
-3.30377e-23
1.15954e-22
1.875e-06
-1.52526e-22
-2.16453e-23
1.875e-06
-7.26445e-23
-2.66294e-23
1.875e-06
2.89216e-23
-1.03464e-22
1.875e-06
1.62034e-22
-7.63686e-23
1.875e-06
5.93898e-23
-1.43656e-23
1.875e-06
-1.44235e-23
-5.34933e-23
1.875e-06
-9.33317e-23
-1.96301e-23
1.875e-06
-8.0899e-23
-4.29905e-23
1.875e-06
-5.38189e-23
-1.48354e-22
1.875e-06
-8.06749e-23
-2.07513e-22
1.875e-06
3.85252e-23
-1.83188e-22
1.875e-06
8.18632e-23
-2.44303e-22
1.875e-06
1.18474e-22
-7.10414e-23
1.875e-06
9.15119e-23
7.23523e-23
-4.74073e-23
-7.0181e-23
1.875e-06
2.25441e-23
3.5516e-22
1.875e-06
8.01773e-23
5.04678e-22
1.875e-06
7.98795e-23
4.97012e-22
1.875e-06
6.25642e-23
6.14696e-22
1.875e-06
1.02413e-23
6.10469e-22
1.875e-06
-2.68915e-24
4.71641e-22
1.875e-06
-9.13956e-23
2.86603e-22
1.875e-06
-1.74763e-23
3.31287e-22
1.875e-06
1.67059e-22
3.81009e-22
1.875e-06
1.96376e-22
2.96639e-22
1.875e-06
5.97258e-23
2.44385e-22
1.875e-06
-5.05358e-23
2.69557e-22
1.875e-06
3.19159e-24
2.6771e-22
1.875e-06
9.40409e-23
2.47606e-22
1.875e-06
-2.74961e-23
2.77944e-22
1.875e-06
-3.57241e-23
1.91999e-22
1.875e-06
-3.19803e-23
1.63137e-22
1.875e-06
-6.7154e-23
1.39219e-22
1.875e-06
-1.34725e-22
1.61453e-22
1.875e-06
-2.47275e-23
4.49861e-23
1.875e-06
7.56102e-23
8.55322e-23
1.875e-06
9.31825e-23
4.56177e-23
1.875e-06
4.18422e-23
8.70272e-23
1.875e-06
5.11567e-24
5.52001e-23
1.875e-06
-1.92949e-22
5.77996e-23
1.875e-06
-3.47412e-23
7.21189e-23
1.875e-06
2.78964e-23
1.02504e-22
1.875e-06
6.24658e-23
-2.49073e-23
1.875e-06
1.19558e-22
-1.98308e-22
1.875e-06
9.8978e-23
-1.00639e-22
1.875e-06
-8.86611e-23
-4.06124e-23
1.875e-06
-2.00065e-22
-5.56505e-23
1.875e-06
-7.07844e-23
-3.32029e-23
1.875e-06
-5.82699e-23
-3.04973e-24
1.875e-06
2.52546e-23
1.56065e-23
1.875e-06
4.9586e-23
-1.4924e-22
1.875e-06
3.8115e-23
-2.85642e-22
1.875e-06
1.81982e-23
-1.72504e-22
1.875e-06
-7.68331e-23
5.57176e-24
-1.9392e-22
-2.06056e-22
1.875e-06
-1.28769e-22
4.90538e-22
1.875e-06
4.97774e-23
5.82421e-22
1.875e-06
6.37137e-23
5.54501e-22
1.875e-06
6.44471e-24
6.03274e-22
1.875e-06
-5.45215e-23
5.90149e-22
1.875e-06
-1.96864e-23
5.30324e-22
1.875e-06
4.7993e-23
4.02541e-22
1.875e-06
1.49156e-22
3.40986e-22
1.875e-06
2.70365e-23
2.80036e-22
1.875e-06
-7.19593e-23
2.24527e-22
1.875e-06
2.23016e-23
2.97276e-22
1.875e-06
8.32429e-23
3.0208e-22
1.875e-06
-3.20552e-23
3.05693e-22
1.875e-06
-1.48983e-22
2.26566e-22
1.875e-06
-4.08072e-23
2.50793e-22
1.875e-06
-6.17995e-23
2.04996e-22
1.875e-06
-5.10996e-23
8.03252e-23
1.875e-06
-1.94061e-23
1.0388e-22
1.875e-06
1.24079e-22
1.16555e-22
1.875e-06
7.5568e-23
5.85753e-23
1.875e-06
1.05251e-22
4.08818e-23
1.875e-06
9.10447e-25
4.13843e-23
1.875e-06
-1.79568e-23
4.00313e-23
1.875e-06
-2.959e-23
1.33462e-22
1.875e-06
-7.71702e-23
2.22923e-22
1.875e-06
-2.72391e-23
1.02392e-22
1.875e-06
4.60722e-23
1.97155e-23
1.875e-06
8.9068e-23
1.41494e-23
1.875e-06
7.65754e-23
-1.37129e-22
1.875e-06
-2.76725e-23
-1.73261e-22
1.875e-06
1.67263e-23
-4.07252e-23
1.875e-06
-1.54795e-23
-9.28495e-23
1.875e-06
-1.52462e-22
-8.93092e-23
1.875e-06
-9.55506e-23
1.90802e-23
1.875e-06
-5.0681e-23
-3.95342e-23
1.875e-06
8.55694e-23
-1.50189e-22
1.875e-06
2.36912e-23
-2.41944e-22
1.875e-06
3.55548e-23
-1.58703e-22
1.875e-06
-1.64596e-23
-6.14923e-23
-9.72449e-23
-1.37974e-22
1.875e-06
-2.68223e-23
5.58303e-22
1.875e-06
-1.07208e-22
5.84346e-22
1.875e-06
-7.94348e-23
5.65212e-22
1.875e-06
2.53986e-23
5.64018e-22
1.875e-06
1.17412e-22
6.32765e-22
1.875e-06
-3.31963e-23
5.54596e-22
1.875e-06
-4.09747e-23
4.23413e-22
1.875e-06
5.04983e-23
3.00441e-22
1.875e-06
1.84074e-24
2.97445e-22
1.875e-06
-3.61038e-23
2.93219e-22
1.875e-06
4.14878e-23
3.02361e-22
1.875e-06
2.08495e-23
2.92654e-22
1.875e-06
-7.80864e-23
3.2277e-22
1.875e-06
-1.00761e-22
2.73766e-22
1.875e-06
-8.39991e-23
2.53741e-22
1.875e-06
-4.10036e-23
1.31495e-22
1.875e-06
-4.17992e-23
9.03703e-24
1.875e-06
-3.96372e-24
7.20794e-24
1.875e-06
-7.4487e-23
2.1852e-23
1.875e-06
9.33229e-23
1.59749e-22
1.875e-06
1.29658e-22
6.34063e-23
1.875e-06
1.35771e-22
1.24037e-22
1.875e-06
1.71519e-24
1.45234e-22
1.875e-06
-1.79985e-22
1.18806e-22
1.875e-06
1.55037e-23
2.10734e-22
1.875e-06
-1.25342e-23
1.37919e-22
1.875e-06
2.42684e-23
4.53632e-23
1.875e-06
-5.00554e-24
-6.74949e-23
1.875e-06
-5.46804e-23
-1.66417e-22
1.875e-06
4.02996e-23
-1.39433e-22
1.875e-06
1.36711e-22
-7.15001e-23
1.875e-06
-2.27515e-23
-1.88409e-22
1.875e-06
-1.20349e-22
-1.62587e-22
1.875e-06
-9.99018e-23
-7.55014e-23
1.875e-06
-1.12279e-22
6.75619e-23
1.875e-06
-7.62932e-23
2.61189e-23
1.875e-06
1.31484e-22
-6.58975e-23
1.875e-06
1.70962e-22
-2.49442e-22
1.875e-06
1.34132e-22
-2.19822e-22
4.19574e-23
-1.44595e-22
1.875e-06
-7.52483e-23
4.64171e-22
1.875e-06
-1.19292e-22
5.17595e-22
1.875e-06
3.43284e-23
6.05418e-22
1.875e-06
-3.05716e-23
6.80987e-22
1.875e-06
-1.29146e-22
6.16771e-22
1.875e-06
-1.78256e-25
5.92794e-22
1.875e-06
9.28774e-23
4.81807e-22
1.875e-06
5.51436e-23
3.13679e-22
1.875e-06
-4.35672e-23
2.92681e-22
1.875e-06
9.12405e-24
3.22865e-22
1.875e-06
-8.52668e-24
3.24828e-22
1.875e-06
-1.42321e-22
3.41683e-22
1.875e-06
-9.03923e-23
4.48534e-22
1.875e-06
-5.14834e-23
2.07827e-22
1.875e-06
-5.20537e-23
1.67288e-22
1.875e-06
-8.17512e-23
5.91266e-23
1.875e-06
-2.93309e-23
-5.48559e-23
1.875e-06
-3.42734e-24
1.58238e-23
1.875e-06
1.37304e-22
1.16481e-22
1.875e-06
1.96718e-22
1.81573e-22
1.875e-06
1.27291e-22
3.28336e-23
1.875e-06
-1.03028e-23
8.51803e-23
1.875e-06
-5.16269e-23
1.94077e-22
1.875e-06
-6.63148e-23
2.31238e-22
1.875e-06
-7.61786e-24
1.58736e-22
1.875e-06
-6.5415e-23
1.43486e-22
1.875e-06
-5.41846e-23
-1.02285e-23
1.875e-06
-5.75936e-23
-8.66077e-23
1.875e-06
-7.98967e-23
-2.16895e-23
1.875e-06
2.89777e-23
-1.52226e-22
1.875e-06
1.08468e-22
-2.2966e-22
1.875e-06
4.56485e-23
-2.07941e-22
1.875e-06
-4.426e-23
-1.92733e-22
1.875e-06
-1.03327e-22
-1.01221e-22
1.875e-06
-1.37675e-23
-4.41341e-24
1.875e-06
-2.88287e-23
4.40567e-23
1.875e-06
3.38261e-23
-1.16046e-22
1.875e-06
-4.39917e-23
-1.81287e-22
1.875e-06
-2.12684e-23
-2.47789e-22
1.84062e-22
-1.58632e-22
1.875e-06
-1.07121e-22
4.54515e-22
1.875e-06
-6.92021e-23
5.96078e-22
1.875e-06
4.02823e-23
5.67737e-22
1.875e-06
-2.93831e-23
6.30346e-22
1.875e-06
-2.09011e-23
7.2839e-22
1.875e-06
2.78345e-24
4.94754e-22
1.875e-06
-1.75216e-23
3.94307e-22
1.875e-06
-6.68178e-23
2.99816e-22
1.875e-06
1.3635e-23
4.07687e-22
1.875e-06
-3.85665e-23
3.21834e-22
1.875e-06
-4.45006e-23
3.10362e-22
1.875e-06
2.0918e-23
3.76893e-22
1.875e-06
-1.03732e-22
4.30391e-22
1.875e-06
-5.77283e-23
3.16867e-22
1.875e-06
-3.63632e-23
1.44323e-22
1.875e-06
-2.0902e-23
4.97042e-24
1.875e-06
8.55369e-24
1.11663e-23
1.875e-06
6.06813e-23
4.98298e-23
1.875e-06
8.79446e-23
7.14792e-23
1.875e-06
1.39802e-22
9.11067e-23
1.875e-06
9.03261e-23
1.05087e-22
1.875e-06
8.85454e-23
8.05803e-23
1.875e-06
-8.01138e-23
1.79341e-22
1.875e-06
-3.1822e-23
2.90127e-22
1.875e-06
-8.13872e-23
2.096e-22
1.875e-06
-1.23704e-23
1.63954e-22
1.875e-06
-5.99688e-23
-1.58235e-23
1.875e-06
-4.30769e-23
-1.06034e-22
1.875e-06
3.17816e-23
7.2957e-23
1.875e-06
-8.47062e-23
-1.47038e-22
1.875e-06
-1.1949e-22
-2.22198e-22
1.875e-06
-2.50775e-23
-1.96399e-22
1.875e-06
6.72197e-23
-1.92365e-22
1.875e-06
9.08406e-23
-8.27267e-23
1.875e-06
6.47617e-23
-1.40384e-22
1.875e-06
5.73662e-23
3.87558e-23
1.875e-06
-4.8296e-23
-1.44752e-22
1.875e-06
-5.29998e-23
-1.22486e-22
1.875e-06
-1.98559e-23
-2.05485e-22
-2.51331e-23
-3.20276e-22
1.875e-06
-5.25138e-23
4.59392e-22
1.875e-06
-6.70263e-23
6.65249e-22
1.875e-06
-1.67442e-22
6.66653e-22
1.875e-06
-2.46868e-23
7.01084e-22
1.875e-06
1.007e-22
6.77286e-22
1.875e-06
3.24303e-23
5.01501e-22
1.875e-06
-1.06947e-22
3.89353e-22
1.875e-06
-1.16708e-22
3.3845e-22
1.875e-06
-9.07011e-23
3.98651e-22
1.875e-06
-1.73357e-23
3.82374e-22
1.875e-06
-4.36572e-23
3.12433e-22
1.875e-06
3.62507e-23
3.02122e-22
1.875e-06
9.04177e-24
4.77236e-22
1.875e-06
-3.87041e-23
3.1773e-22
1.875e-06
4.95109e-24
1.47394e-22
1.875e-06
-2.6049e-23
7.32434e-23
1.875e-06
3.78526e-23
5.52022e-23
1.875e-06
1.5137e-22
3.56368e-23
1.875e-06
2.4449e-22
1.25578e-23
1.875e-06
1.49096e-22
3.19967e-23
1.875e-06
-7.74917e-23
6.03893e-23
1.875e-06
-1.35184e-22
1.56804e-22
1.875e-06
1.06339e-23
2.20301e-22
1.875e-06
1.96473e-23
1.58882e-22
1.875e-06
6.73946e-24
2.49077e-22
1.875e-06
-1.37956e-23
1.52885e-22
1.875e-06
-8.40654e-24
4.0678e-23
1.875e-06
-1.58147e-22
-3.73272e-23
1.875e-06
-1.79297e-22
-4.2937e-23
1.875e-06
-3.23589e-23
-5.84252e-23
1.875e-06
3.86227e-24
-1.16165e-22
1.875e-06
-4.19024e-23
-2.35249e-22
1.875e-06
-4.67909e-23
-2.70988e-22
1.875e-06
3.43332e-23
-1.17438e-22
1.875e-06
8.42576e-23
-1.20898e-22
1.875e-06
3.85953e-23
-8.96683e-23
1.875e-06
-2.98873e-23
-1.17636e-22
1.875e-06
-2.2977e-23
-1.99667e-22
1.875e-06
2.15233e-23
-2.96555e-22
6.28007e-23
-2.02382e-22
1.875e-06
-2.35072e-23
4.98513e-22
1.875e-06
-1.52701e-23
7.15533e-22
1.875e-06
-8.62276e-24
7.36764e-22
1.875e-06
-1.89799e-23
7.55677e-22
1.875e-06
-3.63502e-23
6.05976e-22
1.875e-06
-7.43165e-23
4.98794e-22
1.875e-06
-5.56941e-23
4.49849e-22
1.875e-06
-2.96046e-23
4.06376e-22
1.875e-06
-3.93333e-23
4.14429e-22
1.875e-06
-4.45844e-23
4.01346e-22
1.875e-06
1.85673e-24
3.11671e-22
1.875e-06
3.08994e-23
3.7561e-22
1.875e-06
1.65511e-22
4.63022e-22
1.875e-06
8.06492e-23
2.94856e-22
1.875e-06
-4.59709e-23
1.40944e-22
1.875e-06
-8.19694e-24
1.35603e-22
1.875e-06
-9.62336e-23
6.23155e-23
1.875e-06
-6.24071e-23
-1.06019e-22
1.875e-06
1.09669e-22
-1.43732e-22
1.875e-06
2.42708e-23
-4.98264e-23
1.875e-06
-3.49381e-23
7.76619e-23
1.875e-06
2.99675e-23
2.92159e-22
1.875e-06
2.31153e-23
2.35153e-22
1.875e-06
-1.6535e-23
2.0945e-22
1.875e-06
1.39348e-24
1.91003e-22
1.875e-06
-2.69749e-23
1.2967e-22
1.875e-06
1.55525e-22
1.61912e-22
1.875e-06
5.17773e-23
1.01023e-22
1.875e-06
-9.44785e-23
8.00157e-23
1.875e-06
-7.46682e-23
-6.22372e-23
1.875e-06
-7.59711e-23
-1.02773e-22
1.875e-06
-1.69887e-22
-2.61658e-22
1.875e-06
-1.00679e-22
-3.79202e-22
1.875e-06
8.60471e-23
-8.64912e-23
1.875e-06
1.29355e-22
-9.70223e-23
1.875e-06
6.31863e-23
-1.18695e-22
1.875e-06
1.36786e-22
-9.75015e-23
1.875e-06
3.54001e-23
-2.33034e-22
1.875e-06
-4.92328e-23
-3.61927e-22
6.32855e-24
-2.57766e-22
1.875e-06
1.02298e-22
5.92556e-22
1.875e-06
5.67562e-23
6.92519e-22
1.875e-06
-1.10965e-23
6.85829e-22
1.875e-06
-8.12447e-23
6.99015e-22
1.875e-06
-2.86463e-23
6.847e-22
1.875e-06
-4.78732e-24
5.75097e-22
1.875e-06
-5.053e-23
4.41905e-22
1.875e-06
-1.78193e-22
3.64147e-22
1.875e-06
-1.09024e-22
4.20753e-22
1.875e-06
1.13868e-22
4.98729e-22
1.875e-06
-1.81795e-22
3.25415e-22
1.875e-06
4.83891e-22
3.83925e-22
1.875e-06
5.15989e-23
3.93786e-22
1.875e-06
6.81007e-23
2.75573e-22
1.875e-06
1.38616e-23
2.403e-22
1.875e-06
-2.13234e-23
1.23915e-22
1.875e-06
-3.37444e-23
-3.0257e-23
1.875e-06
-1.31583e-22
-1.85381e-22
1.875e-06
-1.1522e-22
-1.52961e-22
1.875e-06
-7.48e-23
-6.06588e-23
1.875e-06
-6.25763e-23
5.96288e-23
1.875e-06
-1.88296e-23
1.98765e-22
1.875e-06
1.03107e-23
3.08875e-22
1.875e-06
7.07907e-23
2.10014e-22
1.875e-06
1.46185e-22
2.1704e-22
1.875e-06
4.36471e-23
2.01901e-22
1.875e-06
-7.86484e-23
9.37091e-23
1.875e-06
7.24636e-23
1.28089e-22
1.875e-06
-9.01414e-23
1.49741e-22
1.875e-06
2.37678e-22
-4.59634e-23
1.875e-06
-1.10813e-22
-1.15136e-22
1.875e-06
-4.27144e-23
-1.65676e-22
1.875e-06
7.34484e-23
-3.12163e-22
1.875e-06
-1.56974e-22
-1.76252e-22
1.875e-06
-8.87647e-23
-1.56203e-22
1.875e-06
1.54796e-22
-1.00654e-22
1.875e-06
7.25815e-23
-1.50671e-22
1.875e-06
8.11786e-23
-3.28318e-22
1.875e-06
-2.74701e-24
-3.63129e-22
-1.82129e-23
-2.49393e-22
1.875e-06
1.31459e-22
5.32591e-22
1.875e-06
7.53029e-23
6.49369e-22
1.875e-06
-6.89122e-23
7.17821e-22
1.875e-06
-3.75754e-23
7.41523e-22
1.875e-06
-2.83254e-23
5.74929e-22
1.875e-06
-4.7101e-23
5.55524e-22
1.875e-06
-3.76034e-23
4.46944e-22
1.875e-06
1.04718e-23
3.19332e-22
1.875e-06
3.29272e-24
4.39744e-22
1.875e-06
6.50621e-23
5.45781e-22
1.875e-06
5.65697e-23
4.0775e-22
1.875e-06
9.26647e-23
4.41709e-22
1.875e-06
3.33864e-23
4.92791e-22
1.875e-06
1.04788e-22
2.87555e-22
1.875e-06
-1.88191e-23
2.13627e-22
1.875e-06
-5.5394e-23
1.21705e-22
1.875e-06
-1.38323e-22
-8.03219e-23
1.875e-06
-9.84065e-23
-1.72189e-22
1.875e-06
-2.08921e-22
-1.06325e-22
1.875e-06
-1.56044e-22
-1.97542e-23
1.875e-06
3.43213e-23
8.47139e-23
1.875e-06
-2.75108e-23
1.30266e-22
1.875e-06
-3.00308e-23
2.6619e-22
1.875e-06
1.17748e-22
2.65179e-22
1.875e-06
5.99394e-23
5.90552e-23
1.875e-06
7.3645e-23
2.06493e-22
1.875e-06
-5.21466e-23
1.46818e-22
1.875e-06
1.30335e-22
1.35588e-23
1.875e-06
1.57725e-22
1.30961e-22
1.875e-06
8.0735e-24
-1.51105e-22
1.875e-06
7.86978e-23
-9.1429e-23
1.875e-06
1.8855e-25
-2.48083e-22
1.875e-06
4.56465e-23
-2.83197e-22
1.875e-06
4.44801e-23
-5.71063e-23
1.875e-06
-3.25495e-23
-6.72752e-23
1.875e-06
6.10981e-23
-1.45921e-22
1.875e-06
-4.33252e-23
-8.3794e-23
1.875e-06
-1.09908e-22
-2.84846e-22
1.875e-06
-1.10495e-22
-4.3177e-22
-1.05857e-22
-3.26603e-22
1.875e-06
5.7673e-23
4.53052e-22
1.875e-06
-7.31738e-23
6.37731e-22
1.875e-06
-3.36908e-23
6.69971e-22
1.875e-06
-4.02625e-23
5.98037e-22
1.875e-06
-1.25591e-22
5.1433e-22
1.875e-06
2.45961e-23
5.69151e-22
1.875e-06
2.46663e-23
5.27242e-22
1.875e-06
1.08457e-23
3.44317e-22