/*--------------------------------*- C++ -*----------------------------------*\
| =========                 |                                                 |
| \\      /  F ield         | OpenFOAM: The Open Source CFD Toolbox           |
|  \\    /   O peration     | Version:  v2012                                 |
|   \\  /    A nd           | Website:  www.openfoam.com                      |
|    \\/     M anipulation  |                                                 |
\*---------------------------------------------------------------------------*/
FoamFile
{
    version     2.0;
    format      ascii;
    class       volVectorField;
    location    "7";
    object      U;
}
// * * * * * * * * * * * * * * * * * * * * * * * * * * * * * * * * * * * * * //

dimensions      [0 1 -1 0 0 0 0];


internalField   nonuniform List<vector> 
64000
(
(0.003 6.53949e-20 -3.17517e-20)
(0.003 1.69903e-19 6.68511e-20)
(0.003 1.10286e-19 1.79363e-19)
(0.003 8.8548e-20 2.31876e-19)
(0.003 2.57926e-19 1.80072e-19)
(0.003 2.84576e-19 1.4219e-19)
(0.003 1.40088e-19 9.00206e-20)
(0.003 6.69393e-20 6.6891e-20)
(0.003 1.16405e-19 1.06246e-19)
(0.003 1.72924e-19 -2.32704e-20)
(0.003 9.74708e-20 1.9132e-20)
(0.003 1.08092e-19 1.56012e-19)
(0.003 6.69062e-20 1.14202e-19)
(0.003 3.87648e-20 5.40896e-20)
(0.003 8.87967e-20 1.30096e-19)
(0.003 1.08277e-19 1.22405e-19)
(0.003 2.12312e-20 7.4894e-20)
(0.003 -5.60364e-20 1.91629e-20)
(0.003 -1.20177e-19 -3.31138e-19)
(0.003 -2.52234e-19 -4.3893e-19)
(0.003 -4.05562e-19 -2.90559e-19)
(0.003 -7.39228e-20 -5.01452e-21)
(0.003 1.18679e-19 6.45279e-20)
(0.003 2.64396e-19 4.67918e-20)
(0.003 3.11561e-19 1.27045e-19)
(0.003 8.25182e-20 1.30732e-19)
(0.003 -2.66111e-20 1.21056e-19)
(0.003 5.71353e-20 8.69761e-20)
(0.003 7.10608e-20 9.2641e-20)
(0.003 -7.03449e-20 1.77738e-19)
(0.003 -2.16067e-19 2.03155e-19)
(0.003 -1.23146e-19 2.83635e-20)
(0.003 -5.37451e-20 -2.79554e-21)
(0.003 -5.46202e-20 -1.61138e-19)
(0.003 7.18491e-20 -1.93707e-19)
(0.003 -2.7413e-20 -1.52921e-19)
(0.003 -1.91759e-19 -2.18429e-19)
(0.003 -8.77088e-20 -6.79976e-20)
(0.003 -7.15168e-20 1.61073e-19)
(0.003 -1.37291e-19 1.57927e-19)
(0.003 2.23953e-19 8.86439e-20)
(0.003 2.42944e-19 2.26677e-19)
(0.003 1.72146e-19 3.43586e-19)
(0.003 1.08747e-19 3.38636e-19)
(0.003 8.68912e-20 2.26389e-19)
(0.003 1.70542e-19 2.22763e-19)
(0.003 1.54911e-19 1.71474e-19)
(0.003 1.45496e-19 1.57716e-19)
(0.003 1.43799e-19 2.15909e-19)
(0.003 1.17487e-19 1.74422e-19)
(0.003 9.82119e-20 1.55656e-19)
(0.003 1.09781e-19 1.99063e-19)
(0.003 5.34768e-20 1.50797e-19)
(0.003 -3.4854e-21 1.39904e-19)
(0.003 -2.21924e-20 1.65714e-19)
(0.003 3.41711e-21 1.28728e-19)
(0.003 8.49732e-20 1.37542e-20)
(0.003 1.23872e-19 1.36642e-20)
(0.003 1.7024e-19 -1.39325e-19)
(0.003 4.08555e-20 -4.09905e-19)
(0.003 -2.25914e-19 -2.26557e-19)
(0.003 -4.01468e-19 6.23071e-20)
(0.003 -5.27681e-20 8.3722e-20)
(0.003 1.9022e-19 2.01515e-19)
(0.003 7.27072e-20 2.43528e-19)
(0.003 -1.6784e-20 8.9239e-20)
(0.003 2.18663e-21 -1.91409e-21)
(0.003 4.63817e-20 1.43107e-19)
(0.003 3.06746e-20 1.86291e-19)
(0.003 -8.73899e-20 1.12376e-19)
(0.003 -1.95389e-19 6.15081e-20)
(0.003 -1.24123e-19 9.51838e-20)
(0.003 -1.28093e-19 8.58816e-20)
(0.003 -1.75656e-19 -1.02087e-19)
(0.003 -8.6672e-20 -1.74594e-19)
(0.003 -1.05215e-19 -1.64599e-19)
(0.003 -7.05819e-20 -1.5951e-19)
(0.003 8.23574e-20 -2.02852e-19)
(0.003 1.23784e-19 2.0985e-20)
(0.003 7.57745e-20 1.25246e-19)
(0.003 2.70621e-19 1.48166e-19)
(0.003 2.80753e-19 2.17764e-19)
(0.003 2.05653e-19 3.68437e-19)
(0.003 1.73286e-19 3.82046e-19)
(0.003 -2.17616e-20 2.66688e-19)
(0.003 -1.20742e-20 2.55722e-19)
(0.003 1.1305e-19 2.32036e-19)
(0.003 1.95435e-19 3.1695e-19)
(0.003 1.49973e-19 2.61684e-19)
(0.003 5.57277e-20 1.09272e-19)
(0.003 1.91566e-21 1.23571e-19)
(0.003 3.45809e-20 1.95179e-19)
(0.003 1.70163e-19 1.43257e-19)
(0.003 1.09951e-19 1.36623e-19)
(0.003 1.45043e-20 1.55546e-19)
(0.003 -2.44174e-21 1.35789e-19)
(0.003 4.30431e-20 1.33734e-19)
(0.003 1.38173e-19 6.6468e-20)
(0.003 1.58412e-19 -1.96155e-19)
(0.003 -1.67019e-20 -4.06852e-19)
(0.003 -1.82624e-19 -1.7012e-19)
(0.003 -2.90647e-19 -7.94402e-21)
(0.003 -9.20483e-20 1.12792e-19)
(0.003 6.98736e-20 2.83831e-19)
(0.003 -3.71034e-20 2.3235e-19)
(0.003 -1.12913e-20 5.74934e-20)
(0.003 2.67894e-20 3.23791e-20)
(0.003 -3.60277e-20 2.15486e-19)
(0.003 -7.77396e-20 2.04219e-19)
(0.003 -4.84462e-20 1.13699e-19)
(0.003 3.57035e-20 1.25227e-19)
(0.003 3.69404e-20 1.27408e-19)
(0.003 -7.56173e-20 4.13242e-20)
(0.003 -1.39597e-19 -6.62447e-20)
(0.003 -2.46381e-19 -1.4277e-19)
(0.003 -1.92681e-19 -1.6446e-19)
(0.003 -2.48426e-20 -2.32288e-19)
(0.003 6.25385e-20 -1.88148e-19)
(0.003 1.55294e-19 1.36421e-20)
(0.003 1.82399e-19 5.81123e-21)
(0.003 3.03426e-19 2.47401e-19)
(0.003 2.8624e-19 4.26461e-19)
(0.003 1.30559e-19 3.51589e-19)
(0.003 1.3072e-19 3.93655e-19)
(0.003 4.85657e-20 3.54682e-19)
(0.003 7.81212e-21 3.52015e-19)
(0.003 2.51717e-20 3.03051e-19)
(0.003 2.81362e-20 2.73607e-19)
(0.003 1.02875e-19 3.31434e-19)
(0.003 2.10395e-19 2.0851e-19)
(0.003 1.37778e-19 1.46628e-19)
(0.003 5.99537e-20 2.21003e-19)
(0.003 4.85187e-20 2.38066e-19)
(0.003 -3.77066e-20 1.72859e-19)
(0.003 1.11333e-19 1.79676e-19)
(0.003 2.40182e-19 1.59169e-19)
(0.003 1.20473e-19 1.31279e-19)
(0.003 -1.89086e-20 8.89896e-20)
(0.003 -1.97282e-19 -2.77508e-19)
(0.003 -1.78014e-19 -5.23674e-19)
(0.003 -8.50264e-20 -9.37194e-20)
(0.003 1.1104e-20 8.77819e-20)
(0.003 9.44401e-20 1.92827e-19)
(0.003 -2.60999e-20 3.79297e-19)
(0.003 -6.36942e-20 2.7553e-19)
(0.003 -6.35123e-20 9.40959e-20)
(0.003 -1.01113e-20 8.3775e-21)
(0.003 3.36253e-20 1.79681e-20)
(0.003 -1.59348e-20 8.80212e-20)
(0.003 -6.81677e-20 1.18834e-19)
(0.003 -1.31503e-20 9.32029e-20)
(0.003 2.48829e-20 1.2773e-19)
(0.003 -4.52043e-21 1.23908e-19)
(0.003 -4.55187e-20 -7.09481e-20)
(0.003 -6.58782e-20 -1.90811e-19)
(0.003 -3.26436e-20 -2.03838e-19)
(0.003 -6.99672e-20 -1.67311e-19)
(0.003 -2.34537e-20 -7.03992e-20)
(0.003 7.19926e-20 4.94356e-20)
(0.003 8.24284e-20 1.3165e-20)
(0.003 -2.10677e-20 3.0495e-19)
(0.003 1.10593e-20 5.35862e-19)
(0.003 -3.21436e-21 4.35326e-19)
(0.003 -4.13419e-20 3.5774e-19)
(0.003 2.45581e-20 4.11708e-19)
(0.003 -1.14505e-20 3.88218e-19)
(0.003 3.99801e-20 3.40642e-19)
(0.003 6.14028e-20 2.9317e-19)
(0.003 8.77179e-20 3.03111e-19)
(0.003 1.32956e-19 3.38006e-19)
(0.003 9.78622e-20 3.06489e-19)
(0.003 6.42495e-20 2.47631e-19)
(0.003 -3.0752e-20 1.38587e-19)
(0.003 -2.6156e-20 1.50801e-19)
(0.003 8.71641e-20 2.74529e-19)
(0.003 2.23192e-19 2.81805e-19)
(0.003 1.14566e-19 9.79098e-20)
(0.003 -1.67523e-19 1.685e-20)
(0.003 -3.04682e-19 -2.67833e-19)
(0.003 -2.122e-19 -3.9852e-19)
(0.003 -1.07444e-19 -2.05663e-19)
(0.003 1.17553e-19 1.2149e-19)
(0.003 2.38675e-19 2.6083e-19)
(0.003 -5.47739e-20 2.9449e-19)
(0.003 -7.67074e-20 2.0785e-19)
(0.003 -1.93605e-20 8.90459e-20)
(0.003 5.31065e-20 4.60579e-20)
(0.003 9.02536e-20 1.34746e-19)
(0.003 4.2536e-20 9.13223e-20)
(0.003 3.05462e-20 -1.07987e-19)
(0.003 -8.71103e-21 -2.63271e-20)
(0.003 -4.15227e-20 1.08701e-19)
(0.003 -7.82419e-20 3.67715e-20)
(0.003 -8.33047e-20 -1.6466e-19)
(0.003 -7.52335e-21 -2.16736e-19)
(0.003 -2.99701e-20 -1.94364e-19)
(0.003 1.07375e-20 -1.86127e-19)
(0.003 6.3987e-20 -5.5609e-20)
(0.003 1.75524e-20 7.21955e-20)
(0.003 -1.68472e-20 2.47903e-20)
(0.003 -9.11976e-20 3.58557e-19)
(0.003 -4.5332e-20 4.98326e-19)
(0.003 -7.87427e-21 4.152e-19)
(0.003 6.43044e-20 4.00308e-19)
(0.003 1.17945e-19 4.60398e-19)
(0.003 6.25072e-20 3.78712e-19)
(0.003 2.51598e-20 3.32815e-19)
(0.003 9.37264e-20 3.97337e-19)
(0.003 1.13075e-19 3.81648e-19)
(0.003 3.4291e-20 3.09262e-19)
(0.003 2.47513e-20 2.48052e-19)
(0.003 2.98353e-20 2.99831e-19)
(0.003 1.04488e-19 2.02934e-19)
(0.003 1.28545e-19 1.23721e-19)
(0.003 -2.54406e-21 2.88357e-19)
(0.003 -1.39041e-19 3.74661e-19)
(0.003 -1.40084e-19 1.11526e-19)
(0.003 -1.53499e-19 -2.02148e-20)
(0.003 -2.03438e-19 -1.75969e-19)
(0.003 -6.35793e-20 -3.48645e-19)
(0.003 7.61535e-20 -2.08272e-19)
(0.003 1.10173e-19 1.2441e-19)
(0.003 1.01377e-19 3.24164e-19)
(0.003 3.31003e-20 2.36442e-19)
(0.003 5.83648e-20 9.00501e-20)
(0.003 1.07061e-19 6.67574e-20)
(0.003 6.52519e-20 5.7796e-20)
(0.003 -7.87965e-20 2.20467e-20)
(0.003 -1.22858e-19 6.46723e-22)
(0.003 2.46653e-20 1.12211e-19)
(0.003 1.26064e-19 1.72026e-19)
(0.003 5.88293e-20 5.43419e-20)
(0.003 -1.00812e-19 -7.08158e-20)
(0.003 -1.20501e-19 -2.15346e-19)
(0.003 -1.11706e-19 -2.87918e-19)
(0.003 -1.16298e-19 -2.50245e-19)
(0.003 -7.36473e-23 -1.61808e-19)
(0.003 1.04328e-19 3.27443e-20)
(0.003 1.44371e-19 9.0955e-20)
(0.003 1.18331e-19 5.60736e-21)
(0.003 4.44844e-20 4.36341e-19)
(0.003 1.08272e-19 6.12177e-19)
(0.003 1.75815e-19 4.58797e-19)
(0.003 2.0858e-19 5.04942e-19)
(0.003 1.4888e-19 5.12399e-19)
(0.003 -7.82004e-21 4.06296e-19)
(0.003 -1.87154e-20 3.52998e-19)
(0.003 8.83017e-20 3.94405e-19)
(0.003 4.6299e-20 4.06737e-19)
(0.003 1.0814e-20 3.8803e-19)
(0.003 8.53544e-20 3.51649e-19)
(0.003 8.2385e-20 2.568e-19)
(0.003 1.37157e-19 1.53611e-19)
(0.003 1.85513e-19 1.42292e-19)
(0.003 4.97738e-20 2.8753e-19)
(0.003 -1.34012e-19 3.15618e-19)
(0.003 -1.64235e-19 8.94261e-20)
(0.003 -1.37597e-19 -5.97032e-21)
(0.003 -8.80712e-20 -1.22959e-19)
(0.003 -9.28847e-21 -2.07228e-19)
(0.003 1.64479e-19 -1.66701e-19)
(0.003 1.36987e-19 7.40148e-20)
(0.003 -2.53004e-20 2.3835e-19)
(0.003 -1.47753e-20 2.67078e-19)
(0.003 2.63504e-20 2.34177e-19)
(0.003 -9.50662e-21 1.0152e-19)
(0.003 -1.23486e-19 2.80742e-20)
(0.003 -1.61739e-19 4.3225e-20)
(0.003 -6.69337e-20 -1.28691e-20)
(0.003 8.95346e-20 -2.57663e-20)
(0.003 1.96417e-19 1.27477e-19)
(0.003 1.00152e-19 1.93349e-20)
(0.003 3.025e-20 -1.79449e-19)
(0.003 3.64177e-20 -2.53938e-19)
(0.003 -5.4095e-21 -3.45986e-19)
(0.003 -6.06508e-20 -3.31282e-19)
(0.003 -5.36068e-20 -2.13896e-19)
(0.003 2.75228e-20 2.83145e-20)
(0.003 2.66494e-20 7.36927e-20)
(0.003 5.13197e-20 -9.14459e-20)
(0.003 2.709e-19 3.49472e-19)
(0.003 2.35022e-19 5.45189e-19)
(0.003 1.73142e-19 5.83154e-19)
(0.003 2.03045e-19 6.33882e-19)
(0.003 1.08173e-19 5.81123e-19)
(0.003 2.93366e-20 4.20523e-19)
(0.003 2.5197e-20 3.65847e-19)
(0.003 4.76007e-20 4.67741e-19)
(0.003 -1.41955e-20 4.11794e-19)
(0.003 5.64083e-20 2.61693e-19)
(0.003 1.45501e-19 3.70921e-19)
(0.003 1.58835e-19 3.54632e-19)
(0.003 7.09971e-20 2.42219e-19)
(0.003 7.33961e-21 1.49651e-19)
(0.003 4.08001e-20 2.27194e-19)
(0.003 8.13253e-20 2.57409e-19)
(0.003 1.87291e-20 5.529e-20)
(0.003 -5.7988e-20 -6.09368e-20)
(0.003 6.74152e-20 -8.1776e-20)
(0.003 -3.95392e-22 -8.12196e-20)
(0.003 7.33176e-20 -4.30299e-20)
(0.003 1.54163e-19 1.15476e-19)
(0.003 -7.4534e-21 2.61503e-19)
(0.003 -3.89596e-20 2.64309e-19)
(0.003 -7.41477e-20 2.36341e-19)
(0.003 -7.4551e-20 4.40158e-20)
(0.003 -1.97759e-19 -6.91915e-20)
(0.003 -2.2521e-19 2.57831e-20)
(0.003 -9.3629e-20 2.90181e-20)
(0.003 7.56279e-20 7.2205e-20)
(0.003 3.03484e-20 1.55822e-19)
(0.003 8.36308e-20 1.8565e-20)
(0.003 2.72132e-19 -1.49161e-19)
(0.003 2.57107e-19 -2.57884e-19)
(0.003 1.09243e-19 -3.50147e-19)
(0.003 -1.65669e-21 -2.85265e-19)
(0.003 -6.82278e-20 -3.11449e-19)
(0.003 -8.39608e-20 -5.78272e-20)
(0.003 -1.67712e-19 7.16102e-20)
(0.003 -1.67263e-19 -5.58054e-20)
(0.003 7.59544e-20 3.86122e-19)
(0.003 1.67899e-19 6.91084e-19)
(0.003 1.89833e-19 6.35613e-19)
(0.003 1.64508e-19 6.78456e-19)
(0.003 1.47723e-19 6.39003e-19)
(0.003 1.98767e-19 4.60215e-19)
(0.003 1.17275e-19 4.57017e-19)
(0.003 -3.62708e-20 4.43064e-19)
(0.003 -2.81162e-20 3.52463e-19)
(0.003 5.81953e-20 3.29367e-19)
(0.003 6.06852e-20 3.93983e-19)
(0.003 1.28678e-20 4.25073e-19)
(0.003 -1.11018e-19 2.57525e-19)
(0.003 -6.76679e-20 2.04236e-19)
(0.003 8.24019e-20 2.15779e-19)
(0.003 1.13012e-19 2.23429e-19)
(0.003 9.58064e-20 9.05387e-20)
(0.003 5.03457e-20 -1.69777e-20)
(0.003 8.89509e-20 -1.04538e-20)
(0.003 6.40103e-21 -4.41749e-20)
(0.003 -3.85345e-20 -1.03303e-20)
(0.003 8.99371e-20 1.20319e-19)
(0.003 7.73785e-20 2.43624e-19)
(0.003 -2.19452e-20 3.80472e-19)
(0.003 1.64758e-20 2.22862e-19)
(0.003 -3.71475e-20 -9.61395e-20)
(0.003 -1.6954e-19 -7.20109e-20)
(0.003 -2.05507e-19 2.65486e-20)
(0.003 1.90758e-20 -2.76778e-20)
(0.003 3.6768e-20 2.18256e-20)
(0.003 -6.81385e-20 5.42268e-20)
(0.003 3.74277e-20 3.47053e-20)
(0.003 1.66493e-19 -2.02177e-20)
(0.003 1.44209e-19 -2.63309e-19)
(0.003 7.07648e-20 -4.08733e-19)
(0.003 7.20212e-20 -3.54513e-19)
(0.003 3.4739e-20 -2.34639e-19)
(0.003 -1.1098e-19 -1.75269e-21)
(0.003 -1.98701e-19 5.47622e-20)
(0.003 -1.80164e-19 -1.35914e-20)
(0.003 -1.19957e-19 4.84527e-19)
(0.003 4.21328e-20 6.48613e-19)
(0.003 2.68446e-19 7.31994e-19)
(0.003 2.32587e-19 7.58446e-19)
(0.003 1.40016e-19 6.78978e-19)
(0.003 1.74184e-19 5.55203e-19)
(0.003 2.22604e-19 5.25554e-19)
(0.003 7.66492e-20 4.65171e-19)
(0.003 8.52829e-21 3.13449e-19)
(0.003 -7.91924e-20 2.28896e-19)
(0.003 -8.33131e-20 3.26781e-19)
(0.003 -7.40242e-20 4.05943e-19)
(0.003 -1.44104e-20 2.81524e-19)
(0.003 -1.22079e-20 2.0621e-19)
(0.003 3.25191e-20 3.10834e-19)
(0.003 -2.3213e-20 2.73749e-19)
(0.003 -4.40648e-20 8.86392e-20)
(0.003 6.87637e-20 -3.00474e-20)
(0.003 3.48802e-20 -4.6177e-20)
(0.003 6.36018e-20 -3.24715e-20)
(0.003 1.86432e-19 5.55182e-20)
(0.003 1.46637e-19 1.57017e-19)
(0.003 -1.47971e-21 3.27409e-19)
(0.003 -4.42123e-21 3.59241e-19)
(0.003 4.34077e-20 2.23735e-19)
(0.003 1.22793e-20 -3.89312e-20)
(0.003 -2.41545e-20 -1.97892e-19)
(0.003 -1.37624e-19 -1.35751e-19)
(0.003 -3.22617e-20 -3.46274e-21)
(0.003 -3.3744e-20 7.07248e-20)
(0.003 -3.14443e-20 5.48303e-20)
(0.003 6.39645e-20 -1.05005e-20)
(0.003 5.8985e-20 -8.40152e-20)
(0.003 1.66993e-20 -2.76037e-19)
(0.003 1.55339e-19 -3.82928e-19)
(0.003 1.46122e-19 -3.11411e-19)
(0.003 1.1315e-20 -2.57028e-19)
(0.003 -1.69909e-19 -7.73534e-20)
(0.003 -2.03726e-19 1.07495e-19)
(0.003 -1.29674e-19 6.20729e-20)
(0.003 1.12518e-19 5.36061e-19)
(0.003 2.09108e-19 7.92015e-19)
(0.003 2.01151e-19 8.40054e-19)
(0.003 1.63405e-19 8.0133e-19)
(0.003 7.18603e-20 7.12839e-19)
(0.003 1.16233e-19 5.97824e-19)
(0.003 2.13684e-19 5.80849e-19)
(0.003 9.40166e-20 4.7226e-19)
(0.003 -1.28477e-20 3.80515e-19)
(0.003 -4.37391e-20 2.75196e-19)
(0.003 -1.52809e-20 2.77113e-19)
(0.003 -2.94296e-20 3.52466e-19)
(0.003 7.93844e-20 2.96934e-19)
(0.003 1.23454e-19 1.36791e-19)
(0.003 -2.18247e-20 3.36348e-19)
(0.003 -5.1852e-20 3.5345e-19)
(0.003 -4.84762e-20 1.59323e-19)
(0.003 1.2688e-20 9.63494e-20)
(0.003 2.96952e-21 -4.32291e-20)
(0.003 5.87534e-20 -1.6e-19)
(0.003 2.49774e-19 5.85277e-20)
(0.003 1.66239e-19 2.84706e-19)
(0.003 -1.74476e-20 3.06875e-19)
(0.003 -2.22966e-20 3.42927e-19)
(0.003 -4.79145e-20 2.24545e-19)
(0.003 -2.17991e-20 -9.33984e-20)
(0.003 1.4778e-20 -1.61382e-19)
(0.003 -8.45353e-21 -1.43744e-19)
(0.003 -1.34382e-19 -6.45081e-20)
(0.003 -1.11046e-19 8.16618e-20)
(0.003 -5.55828e-20 6.9004e-20)
(0.003 4.25916e-20 -5.4757e-20)
(0.003 -2.69099e-20 -2.04613e-19)
(0.003 -3.52971e-20 -3.16584e-19)
(0.003 1.42107e-19 -3.96552e-19)
(0.003 1.532e-19 -3.0606e-19)
(0.003 -6.91181e-20 -2.46754e-19)
(0.003 -2.89754e-19 -7.1675e-20)
(0.003 -1.32486e-19 7.34513e-20)
(0.003 4.11034e-20 3.5656e-20)
(0.003 1.72515e-19 6.25743e-19)
(0.003 2.44062e-19 9.4015e-19)
(0.003 1.93184e-19 9.223e-19)
(0.003 6.09537e-20 7.94401e-19)
(0.003 7.97483e-20 6.80291e-19)
(0.003 1.15936e-19 6.36592e-19)
(0.003 5.15262e-20 6.11691e-19)
(0.003 1.63104e-20 4.77469e-19)
(0.003 -1.32316e-20 3.30116e-19)
(0.003 1.91824e-20 3.21294e-19)
(0.003 2.29243e-21 3.49202e-19)
(0.003 7.07654e-21 3.50606e-19)
(0.003 6.54082e-20 3.16119e-19)
(0.003 1.35866e-19 2.46554e-19)
(0.003 2.20589e-20 3.35814e-19)
(0.003 -1.04835e-19 3.02895e-19)
(0.003 -6.31495e-20 1.63611e-19)
(0.003 4.05027e-20 7.33359e-20)
(0.003 1.87933e-19 5.79545e-20)
(0.003 1.45144e-19 -6.7545e-20)
(0.003 4.63975e-20 6.71083e-20)
(0.003 -7.76628e-20 2.68954e-19)
(0.003 -7.3881e-20 3.06266e-19)
(0.003 -6.46682e-20 3.20161e-19)
(0.003 -1.21715e-19 2.43445e-19)
(0.003 -1.33912e-19 -2.93914e-20)
(0.003 -5.81678e-20 -2.37063e-19)
(0.003 1.06046e-19 -2.34229e-19)
(0.003 3.17241e-20 -1.4581e-19)
(0.003 -6.59006e-20 2.78205e-20)
(0.003 -1.68928e-20 1.43721e-20)
(0.003 -1.12612e-19 8.07191e-21)
(0.003 -1.31044e-19 -7.47678e-20)
(0.003 -3.22058e-20 -3.30679e-19)
(0.003 4.42707e-20 -2.13359e-19)
(0.003 8.45301e-20 -2.01938e-19)
(0.003 3.43705e-20 -4.48886e-19)
(0.003 -1.64801e-21 -2.25451e-19)
(0.003 4.96466e-20 -3.77302e-20)
(0.003 2.06504e-20 -5.39306e-20)
(0.003 1.84764e-19 6.77652e-19)
(0.003 1.95346e-19 9.36105e-19)
(0.003 1.27103e-19 9.02862e-19)
(0.003 7.078e-20 8.46494e-19)
(0.003 1.17258e-19 7.97311e-19)
(0.003 7.83102e-20 6.93412e-19)
(0.003 -4.80203e-20 5.71847e-19)
(0.003 -3.21046e-20 4.59654e-19)
(0.003 1.34246e-19 3.72367e-19)
(0.003 2.20769e-19 3.46899e-19)
(0.003 6.48753e-20 3.55193e-19)
(0.003 -7.69257e-20 3.13437e-19)
(0.003 -1.05748e-21 3.34028e-19)
(0.003 1.3559e-19 3.49424e-19)
(0.003 3.51613e-20 3.29826e-19)
(0.003 -8.45161e-20 1.94371e-19)
(0.003 -8.63192e-20 1.08192e-19)
(0.003 -9.06258e-20 1.01769e-19)
(0.003 -6.41515e-20 1.1222e-19)
(0.003 5.55844e-20 6.11403e-20)
(0.003 6.44068e-20 1.38461e-19)
(0.003 2.73847e-21 2.49098e-19)
(0.003 -2.12943e-20 2.36694e-19)
(0.003 -8.52859e-20 2.11057e-19)
(0.003 -1.48834e-19 1.30219e-19)
(0.003 -1.31823e-19 6.25975e-21)
(0.003 -6.82043e-20 -3.58628e-20)
(0.003 1.08605e-19 -1.00487e-19)
(0.003 1.70717e-19 -1.66833e-19)
(0.003 5.21871e-20 -8.68899e-20)
(0.003 -2.71862e-20 -2.59608e-21)
(0.003 -2.1776e-19 -4.50462e-20)
(0.003 -2.01262e-19 -1.70966e-19)
(0.003 -6.35161e-20 -1.40964e-19)
(0.003 4.0551e-21 -6.66615e-20)
(0.003 3.49646e-20 -1.76851e-19)
(0.003 2.25857e-20 -3.80329e-19)
(0.003 1.35735e-19 -2.24392e-19)
(0.003 4.70508e-20 -1.5402e-20)
(0.003 -1.89271e-19 -9.30368e-20)
(0.003 1.20948e-20 7.68069e-19)
(0.003 1.04204e-19 1.04075e-18)
(0.003 1.44381e-19 1.00261e-18)
(0.003 3.84576e-20 8.40039e-19)
(0.003 -6.99343e-20 7.99247e-19)
(0.003 -4.00913e-20 7.47621e-19)
(0.003 3.86153e-20 5.64391e-19)
(0.003 1.3064e-19 3.63026e-19)
(0.003 1.56242e-19 4.11994e-19)
(0.003 1.07296e-19 5.23277e-19)
(0.003 9.0504e-20 4.09367e-19)
(0.003 4.9607e-20 2.95631e-19)
(0.003 -6.84346e-22 3.91749e-19)
(0.003 -4.59606e-20 3.88691e-19)
(0.003 -5.4994e-20 2.53672e-19)
(0.003 -4.14971e-20 1.39828e-19)
(0.003 -1.16161e-19 3.84327e-20)
(0.003 -8.4549e-20 8.18056e-20)
(0.003 -9.65428e-21 6.76158e-21)
(0.003 3.03942e-20 -6.3927e-20)
(0.003 7.69135e-20 1.42585e-19)
(0.003 4.03247e-20 2.78371e-19)
(0.003 2.035e-20 2.76388e-19)
(0.003 -5.63708e-20 2.47304e-19)
(0.003 -1.8382e-19 1.61395e-19)
(0.003 -6.82293e-20 3.33789e-20)
(0.003 8.00641e-20 -4.87374e-20)
(0.003 1.24347e-19 -2.47039e-21)
(0.003 1.17236e-19 -9.4899e-20)
(0.003 4.23223e-20 -1.5703e-19)
(0.003 -6.30627e-20 -9.32875e-20)
(0.003 -1.93467e-19 -2.27455e-19)
(0.003 -1.97367e-19 -1.61828e-19)
(0.003 -8.98995e-20 -8.12898e-20)
(0.003 -3.46256e-20 1.04234e-20)
(0.003 8.53169e-20 -1.45154e-19)
(0.003 3.48712e-20 -3.87645e-19)
(0.003 -2.88282e-20 -2.63517e-19)
(0.003 -1.07855e-19 -1.08907e-19)
(0.003 -2.27495e-19 -2.87375e-19)
(0.003 -1.00443e-19 7.27392e-19)
(0.003 -1.56413e-20 1.09015e-18)
(0.003 2.78773e-20 1.07605e-18)
(0.003 1.03568e-20 8.31666e-19)
(0.003 2.63833e-20 7.18281e-19)
(0.003 -1.52591e-20 7.34262e-19)
(0.003 2.77821e-20 6.52045e-19)
(0.003 1.47815e-19 4.95915e-19)
(0.003 6.02185e-20 4.28854e-19)
(0.003 -6.79512e-20 4.6492e-19)
(0.003 5.86481e-20 4.54916e-19)
(0.003 7.92741e-20 3.61218e-19)
(0.003 -7.22695e-20 3.9193e-19)
(0.003 -1.8671e-19 3.39179e-19)
(0.003 -1.47274e-19 2.30749e-19)
(0.003 -1.1183e-19 9.39069e-20)
(0.003 -7.83216e-20 -8.33186e-20)
(0.003 -8.27775e-21 2.52696e-20)
(0.003 3.91506e-20 1.8124e-20)
(0.003 1.83052e-19 2.10764e-21)
(0.003 1.50699e-19 2.31419e-19)
(0.003 4.14563e-20 2.7634e-19)
(0.003 -4.20269e-20 2.9748e-19)
(0.003 -1.72228e-19 2.11199e-19)
(0.003 -1.12229e-19 1.1343e-19)
(0.003 -1.78011e-20 9.68515e-20)
(0.003 8.69317e-20 1.65478e-20)
(0.003 1.16851e-19 -3.18862e-20)
(0.003 6.2601e-20 -1.37686e-19)
(0.003 -1.61732e-20 -2.12766e-19)
(0.003 5.79434e-21 -1.58895e-19)
(0.003 -6.83558e-20 -2.5765e-19)
(0.003 -2.15826e-19 -2.82897e-19)
(0.003 -1.52008e-19 -2.22127e-19)
(0.003 -9.07008e-20 9.96555e-20)
(0.003 1.19671e-20 1.08655e-19)
(0.003 1.64324e-19 -1.85454e-19)
(0.003 1.47585e-19 -3.33042e-19)
(0.003 1.29607e-20 -3.53191e-19)
(0.003 -8.67507e-20 -3.78669e-19)
(0.003 -4.10751e-20 7.19655e-19)
(0.003 -1.07331e-19 1.05237e-18)
(0.003 -4.04631e-20 1.06649e-18)
(0.003 -2.19749e-20 9.07526e-19)
(0.003 -1.18945e-20 8.56099e-19)
(0.003 -4.66536e-20 7.54682e-19)
(0.003 2.59002e-20 6.24609e-19)
(0.003 1.13269e-19 5.4606e-19)
(0.003 6.19145e-21 4.26866e-19)
(0.003 -1.59842e-20 3.77387e-19)
(0.003 3.69299e-21 4.58755e-19)
(0.003 -9.465e-20 4.47059e-19)
(0.003 -1.06162e-19 4.59411e-19)
(0.003 -1.17954e-19 2.92119e-19)
(0.003 -1.05858e-19 1.69242e-19)
(0.003 -9.34266e-20 8.61639e-20)
(0.003 -3.05882e-20 -1.38791e-19)
(0.003 1.03669e-20 -6.50689e-20)
(0.003 6.13975e-20 3.82414e-20)
(0.003 2.23381e-19 4.68139e-20)
(0.003 1.91022e-19 2.12009e-19)
(0.003 4.15449e-20 3.75851e-19)
(0.003 -1.09364e-19 3.61155e-19)
(0.003 -1.62366e-19 1.85266e-19)
(0.003 -9.83346e-21 5.92925e-20)
(0.003 -3.80978e-20 9.65049e-20)
(0.003 -3.13747e-20 2.87193e-20)
(0.003 -4.15348e-20 -4.55359e-20)
(0.003 -5.48326e-20 -2.97792e-20)
(0.003 3.09931e-20 -1.58465e-19)
(0.003 4.01817e-20 -2.62434e-19)
(0.003 -1.20111e-20 -3.67736e-19)
(0.003 -6.26968e-20 -3.3498e-19)
(0.003 -1.1534e-19 -3.01101e-19)
(0.003 -8.18672e-20 2.46834e-21)
(0.003 -5.02101e-20 1.29412e-19)
(0.003 1.48602e-19 -9.64796e-20)
(0.003 1.59905e-19 -2.73405e-19)
(0.003 1.02028e-19 -3.7105e-19)
(0.003 1.83825e-19 -3.89697e-19)
(0.003 -1.43174e-19 6.69542e-19)
(0.003 -1.23616e-19 9.7432e-19)
(0.003 5.90997e-20 1.04624e-18)
(0.003 1.13497e-20 9.29682e-19)
(0.003 -8.43553e-20 7.80811e-19)
(0.003 -6.03574e-20 6.95224e-19)
(0.003 3.6766e-20 7.22043e-19)
(0.003 4.62834e-20 5.99921e-19)
(0.003 3.80404e-21 4.12408e-19)
(0.003 7.43013e-22 4.30544e-19)
(0.003 -7.44098e-20 5.28544e-19)
(0.003 -1.03868e-19 4.00033e-19)
(0.003 -1.6057e-19 3.8593e-19)
(0.003 -7.96673e-20 3.32431e-19)
(0.003 -1.08886e-20 1.52721e-19)
(0.003 -6.94368e-20 3.23134e-20)
(0.003 -1.11995e-20 -1.23534e-20)
(0.003 7.59275e-20 2.8278e-20)
(0.003 1.78423e-19 9.69531e-20)
(0.003 2.52634e-19 1.07698e-19)
(0.003 1.86564e-19 2.47135e-19)
(0.003 5.00973e-20 2.36711e-19)
(0.003 -1.49752e-19 2.29496e-19)
(0.003 -1.21089e-19 1.72593e-19)
(0.003 7.77547e-21 1.16892e-19)
(0.003 -6.41639e-20 1.27547e-19)
(0.003 -1.40798e-19 -1.50323e-20)
(0.003 -1.58323e-19 -9.60029e-20)
(0.003 -1.53876e-19 1.23525e-20)
(0.003 -5.32861e-20 -7.70783e-20)
(0.003 -1.81157e-20 -2.10591e-19)
(0.003 1.52555e-20 -3.22511e-19)
(0.003 4.26881e-20 -3.4111e-19)
(0.003 4.69599e-21 -2.7647e-19)
(0.003 4.42545e-20 -8.78405e-20)
(0.003 5.23907e-20 7.02982e-20)
(0.003 -1.24405e-20 -8.66929e-20)
(0.003 -3.03944e-20 -2.58613e-19)
(0.003 1.73903e-20 -3.63298e-19)
(0.003 1.2116e-19 -4.22136e-19)
(0.003 -1.34708e-19 5.51919e-19)
(0.003 -1.45826e-19 1.05228e-18)
(0.003 -1.11092e-19 1.22224e-18)
(0.003 2.39479e-20 9.77965e-19)
(0.003 1.01412e-19 7.71381e-19)
(0.003 1.83375e-20 6.88585e-19)
(0.003 -8.29879e-20 6.88471e-19)
(0.003 -1.69712e-19 5.76281e-19)
(0.003 -9.68195e-20 4.85835e-19)
(0.003 -3.45548e-20 4.42231e-19)
(0.003 -1.85929e-20 4.4477e-19)
(0.003 4.49216e-20 3.78245e-19)
(0.003 -7.1805e-20 3.34302e-19)
(0.003 -1.00101e-19 3.10687e-19)
(0.003 -4.26457e-20 2.16047e-19)
(0.003 2.49834e-21 1.28605e-19)
(0.003 3.62071e-20 9.46758e-20)
(0.003 2.08007e-19 2.87617e-20)
(0.003 3.58592e-19 -6.5925e-20)
(0.003 2.40866e-19 4.74662e-20)
(0.003 -3.31084e-21 2.88606e-19)
(0.003 -6.65152e-20 4.06131e-19)
(0.003 1.62488e-20 2.81061e-19)
(0.003 4.36282e-20 1.87347e-19)
(0.003 -1.02728e-19 1.38123e-19)
(0.003 -6.20574e-20 8.56721e-20)
(0.003 -1.04391e-19 -6.10847e-20)
(0.003 -3.03528e-19 -9.16661e-20)
(0.003 -1.44756e-19 1.09804e-20)
(0.003 -7.17756e-20 -3.27881e-20)
(0.003 -9.68506e-20 -2.29769e-19)
(0.003 -6.21828e-20 -3.81738e-19)
(0.003 -2.06248e-20 -3.46568e-19)
(0.003 8.87333e-20 -1.73936e-19)
(0.003 1.48566e-19 -7.00855e-20)
(0.003 7.91714e-20 -9.39011e-20)
(0.003 -8.57352e-20 -1.47551e-19)
(0.003 -6.81002e-20 -3.38932e-19)
(0.003 3.68154e-20 -5.06425e-19)
(0.003 5.22348e-20 -4.31776e-19)
(0.003 -7.96752e-20 5.58828e-19)
(0.003 -1.2515e-19 9.78663e-19)
(0.003 -1.34508e-19 1.10278e-18)
(0.003 -6.55501e-20 1.02702e-18)
(0.003 2.58522e-20 8.66712e-19)
(0.003 2.55459e-20 7.20449e-19)
(0.003 -8.93695e-20 6.64224e-19)
(0.003 -1.49068e-19 5.07466e-19)
(0.003 -1.14313e-19 4.71039e-19)
(0.003 -6.09191e-20 5.46848e-19)
(0.003 -2.4991e-20 4.62908e-19)
(0.003 3.081e-20 3.82954e-19)
(0.003 3.55429e-20 2.85284e-19)
(0.003 2.00807e-20 2.67219e-19)
(0.003 -3.05915e-20 2.21466e-19)
(0.003 4.91751e-22 1.88495e-19)
(0.003 8.66609e-22 1.85715e-19)
(0.003 8.94598e-20 5.47726e-20)
(0.003 2.80831e-19 2.46179e-20)
(0.003 1.16784e-19 6.34788e-20)
(0.003 -6.59165e-20 1.77898e-19)
(0.003 -6.78145e-20 3.26874e-19)
(0.003 1.65709e-20 3.80673e-19)
(0.003 1.59555e-20 2.53506e-19)
(0.003 -1.51391e-20 8.0709e-20)
(0.003 -1.93933e-20 4.26077e-20)
(0.003 1.12762e-19 -3.05669e-20)
(0.003 -8.8864e-20 -1.64257e-19)
(0.003 -2.68234e-19 -2.75417e-20)
(0.003 -1.19327e-19 2.1591e-20)
(0.003 -9.69784e-20 -1.05069e-19)
(0.003 -1.50862e-19 -3.70095e-19)
(0.003 -9.73624e-20 -4.9116e-19)
(0.003 6.81595e-20 -2.45449e-19)
(0.003 1.49259e-19 -2.73008e-20)
(0.003 3.21377e-20 -7.35791e-20)
(0.003 5.39072e-21 -1.77728e-19)
(0.003 -4.19155e-20 -3.68726e-19)
(0.003 5.26947e-21 -5.41189e-19)
(0.003 1.14439e-19 -4.07145e-19)
(0.003 7.0021e-20 6.10176e-19)
(0.003 5.76536e-20 9.86628e-19)
(0.003 -2.09125e-20 1.04362e-18)
(0.003 -1.18548e-19 9.4387e-19)
(0.003 -8.84983e-20 8.57286e-19)
(0.003 -2.78975e-20 7.21199e-19)
(0.003 -7.9749e-20 6.33933e-19)
(0.003 -1.59514e-19 5.60238e-19)
(0.003 -1.49416e-19 5.12622e-19)
(0.003 1.874e-20 5.02559e-19)
(0.003 1.15247e-19 4.54564e-19)
(0.003 1.44331e-19 4.07995e-19)
(0.003 2.12702e-19 3.46607e-19)
(0.003 1.38064e-19 3.20498e-19)
(0.003 -2.23046e-20 2.60411e-19)
(0.003 -7.08159e-20 2.22717e-19)
(0.003 -1.23747e-19 6.54528e-20)
(0.003 -1.32069e-19 -3.8094e-20)
(0.003 1.00937e-20 5.63167e-20)
(0.003 -3.4879e-20 6.49091e-20)
(0.003 -3.7299e-20 1.63668e-19)
(0.003 2.28589e-20 3.39518e-19)
(0.003 9.6111e-21 3.8838e-19)
(0.003 3.64846e-20 2.07706e-19)
(0.003 1.21906e-19 7.77859e-20)
(0.003 4.52621e-20 9.23489e-20)
(0.003 6.9631e-20 1.03589e-19)
(0.003 1.41892e-19 5.01965e-20)
(0.003 5.00694e-20 2.30645e-20)
(0.003 -6.88549e-20 -1.65602e-19)
(0.003 -1.97723e-19 -2.30334e-19)
(0.003 -2.87529e-19 -3.40295e-19)
(0.003 -7.18833e-20 -4.95409e-19)
(0.003 5.98412e-20 -2.94096e-19)
(0.003 -1.56956e-20 -3.07497e-20)
(0.003 1.42653e-19 -6.87805e-20)
(0.003 2.62023e-19 -2.09208e-19)
(0.003 1.21389e-19 -4.45732e-19)
(0.003 -4.7321e-20 -5.30768e-19)
(0.003 -7.23155e-20 -4.20838e-19)
(0.003 2.00745e-19 6.32915e-19)
(0.003 1.3997e-19 9.91281e-19)
(0.003 -4.51493e-20 1.0433e-18)
(0.003 -1.50498e-19 9.29725e-19)
(0.003 -9.77011e-20 8.49568e-19)
(0.003 -2.80107e-20 7.56184e-19)
(0.003 -5.04424e-20 5.63747e-19)
(0.003 -1.28946e-19 3.86017e-19)
(0.003 -7.96298e-20 4.25914e-19)
(0.003 1.20412e-19 6.21121e-19)
(0.003 1.94621e-19 6.39802e-19)
(0.003 1.74186e-19 5.68747e-19)
(0.003 1.117e-19 4.30078e-19)
(0.003 1.2527e-19 3.64171e-19)
(0.003 -4.73126e-20 2.90036e-19)
(0.003 -9.66863e-20 1.67121e-19)
(0.003 -1.00382e-19 5.31497e-20)
(0.003 -1.99838e-19 -6.0648e-20)
(0.003 -2.20208e-19 3.80811e-20)
(0.003 -1.52927e-19 5.93895e-20)
(0.003 -3.06128e-20 1.29049e-19)
(0.003 3.53688e-22 2.68842e-19)
(0.003 7.49343e-21 3.33272e-19)
(0.003 1.10326e-19 2.64905e-19)
(0.003 1.66886e-19 1.50444e-19)
(0.003 8.65073e-20 1.06856e-19)
(0.003 -7.56708e-20 7.71156e-20)
(0.003 1.59585e-19 5.01551e-20)
(0.003 2.1687e-19 4.72924e-21)
(0.003 8.55998e-20 -2.36913e-19)
(0.003 3.04648e-20 -3.08796e-19)
(0.003 -4.85339e-20 -4.42225e-19)
(0.003 -1.54248e-20 -5.16145e-19)
(0.003 -2.32446e-20 -2.31534e-19)
(0.003 -8.55412e-20 -7.52061e-20)
(0.003 1.38676e-19 6.29288e-21)
(0.003 8.99919e-20 -6.05578e-21)
(0.003 -4.98496e-20 -3.32623e-19)
(0.003 -7.68274e-20 -6.15365e-19)
(0.003 -9.5152e-20 -5.05483e-19)
(0.003 1.55713e-19 6.59648e-19)
(0.003 2.90822e-20 9.85382e-19)
(0.003 -1.13183e-19 9.7581e-19)
(0.003 -6.47581e-20 8.03646e-19)
(0.003 -9.70184e-20 7.85681e-19)
(0.003 -4.06348e-20 6.84838e-19)
(0.003 -2.51847e-21 6.17349e-19)
(0.003 9.07978e-20 4.71321e-19)
(0.003 1.75262e-19 4.27071e-19)
(0.003 1.20947e-19 5.89285e-19)
(0.003 6.36447e-20 6.32247e-19)
(0.003 2.63852e-20 6.0372e-19)
(0.003 2.06687e-20 4.26709e-19)
(0.003 -2.88406e-20 4.18177e-19)
(0.003 -1.29058e-19 2.86394e-19)
(0.003 -9.2958e-20 8.28808e-20)
(0.003 -7.27492e-20 6.09106e-20)
(0.003 -1.82686e-19 -3.25753e-20)
(0.003 -3.72598e-19 -3.08136e-20)
(0.003 -1.94016e-19 -1.00799e-20)
(0.003 -5.02897e-20 2.02447e-19)
(0.003 -3.77258e-20 3.39496e-19)
(0.003 6.14321e-20 3.15971e-19)
(0.003 2.66836e-19 2.61162e-19)
(0.003 1.70693e-19 1.13094e-19)
(0.003 1.17081e-19 9.99105e-20)
(0.003 -1.6056e-21 -1.5252e-21)
(0.003 8.04477e-20 -6.44385e-21)
(0.003 1.61497e-19 2.54363e-20)
(0.003 8.88357e-20 -1.84705e-19)
(0.003 1.6653e-19 -2.9598e-19)
(0.003 2.27472e-19 -3.44787e-19)
(0.003 9.54091e-20 -3.73529e-19)
(0.003 -4.24519e-20 -2.8559e-19)
(0.003 -8.53629e-20 -3.03711e-20)
(0.003 -4.69525e-20 -3.07035e-21)
(0.003 -1.38172e-19 -8.82913e-20)
(0.003 -2.03466e-19 -3.56773e-19)
(0.003 -1.22371e-19 -4.22266e-19)
(0.003 -2.1846e-20 -2.17513e-19)
(0.003 -1.14073e-19 6.52302e-19)
(0.003 -1.81431e-19 9.89355e-19)
(0.003 -9.63089e-20 9.76498e-19)
(0.003 -1.47259e-20 7.63e-19)
(0.003 -8.78984e-20 6.95939e-19)
(0.003 -8.14982e-21 7.25761e-19)
(0.003 9.71378e-20 5.99383e-19)
(0.003 2.16471e-19 3.92898e-19)
(0.003 1.3031e-19 4.2963e-19)
(0.003 -2.38564e-20 6.16802e-19)
(0.003 -4.92819e-20 6.85869e-19)
(0.003 -4.45572e-20 6.49349e-19)
(0.003 -5.36159e-20 5.37082e-19)
(0.003 -1.2748e-19 2.97062e-19)
(0.003 -1.45712e-20 1.23298e-19)