/*--------------------------------*- C++ -*----------------------------------*\
| =========                 |                                                 |
| \\      /  F ield         | OpenFOAM: The Open Source CFD Toolbox           |
|  \\    /   O peration     | Version:  v2012                                 |
|   \\  /    A nd           | Website:  www.openfoam.com                      |
|    \\/     M anipulation  |                                                 |
\*---------------------------------------------------------------------------*/
FoamFile
{
    version     2.0;
    format      ascii;
    class       volScalarField;
    location    "510/leftSolid";
    object      T;
}
// * * * * * * * * * * * * * * * * * * * * * * * * * * * * * * * * * * * * * //

dimensions      [0 0 0 1 0 0 0];


internalField   nonuniform List<scalar> 
130
(
908.90528
908.86349
908.76692
908.61693
908.41206
908.16425
907.8773
907.52438
907.13889
906.79527
906.51843
906.31025
906.17488
908.95066
908.90494
908.80353
908.64851
908.44092
908.2073
907.92997
907.60445
907.25185
906.87866
906.57004
906.33529
906.18815
909.00843
908.95621
908.84327
908.68064
908.48446
908.25293
907.97633
907.64587
907.32386
907.00146
906.69331
906.42742
906.26234
909.10287
909.04707
908.92452
908.75703
908.55708
908.31881
908.03858
907.71248
907.40961
907.12204
906.84781
906.59473
906.39833
909.23638
909.18132
909.06195
908.88275
908.67061
908.42366
908.13585
907.80921
907.50999
907.23228
906.97264
906.73097
906.55111
909.3921
909.33856
909.22238
909.043
908.81398
908.55207
908.24564
907.92392
907.61922
907.33426
907.06064
906.79413
906.61585
909.55682
909.50039
909.38441
909.20968
908.98248
908.71172
908.40969
908.08328
907.76669
907.47111
907.18964
906.91158
906.76815
909.68373
909.63532
909.53333
909.3692
909.16097
908.91491
908.6394
908.34464
908.04308
907.74841
907.48493
907.27231
907.16038
909.78908
909.74753
909.65845
909.51618
909.33392
909.12647
908.89878
908.64715
908.38355
908.11738
907.87115
907.66078
907.52812
909.85417
909.81656
909.73644
909.61114
909.44828
909.25957
909.04721
908.81626
908.57112
908.32025
908.09514
907.91359
907.80289
)
;

boundaryField
{
    minX
    {
        type            zeroGradient;
    }
    minZ
    {
        type            zeroGradient;
    }
    maxZ
    {
        type            zeroGradient;
    }
    leftSolid_to_bottomWater
    {
        type            compressible::turbulentTemperatureCoupledBaffleMixed;
        refValue        nonuniform List<scalar> 
130
(
968.98722
969.48958
968.82296
968.61062
967.13675
964.97246
964.83148
957.342
947.46779
945.24375
945.84484
945.9256
939.35688
970.8522
971.05289
970.50989
969.96801
966.34137
967.46183
966.62779
964.25306
961.20691
946.0759
943.76427
942.50195
937.23595
970.93569
970.69618
968.84144
966.07222
965.92
966.24269
966.01527
957.92077
956.9742
953.23131
947.22447
939.4874
934.87398
971.98996
971.8926
968.27106
965.84009
965.4813
964.7586
964.17491
956.44834
956.03935
955.29194
953.55531
949.20376
935.47986
973.08122
973.06722
971.85078
967.13437
965.95448
965.42466
964.43839
956.51825
956.19459
956.00703
956.03803
952.26722
941.87207
973.86117
974.02686
973.32257
970.60771
966.7621
966.27516
961.56362
957.61609
956.57929
956.56817
955.78696
946.36404
936.49021
976.43115
975.29354
973.66757
971.81318
969.3076
965.71307
963.1668
957.36232
954.55008
954.35589
953.6754
936.96624
936.66653
974.90637
974.40733
974.3358
971.25819
969.56457
967.48017
964.70054
962.29281
960.00732
956.73922
954.70372
952.25677
953.99932
974.35426
974.1278
974.03617
972.20706
970.56
970.70438
972.23911
971.94351
972.08778
970.77651
969.47519
965.11369
959.57195
974.68248
974.37744
974.18302
973.45561
972.83577
973.45333
973.61817
974.14248
974.23948
972.06946
971.50318
970.40878
968.50874
)
;
        refGradient     uniform 0;
        valueFraction   nonuniform List<scalar> 
130
(
0.0075140686
0.0075140686
0.0075140686
0.0075140686
0.0075140686
0.0075140686
0.0075140686
0.0075140686
0.0075140686
0.0075140686
0.0075140686
0.0075140686
0.0075140686
0.0075140686
0.0075140686
0.0075140686
0.0075140686
0.0075140686
0.0075140686
0.0075140686
0.0075140686
0.0075140686
0.0075140686
0.0075140686
0.0075140686
0.0075140686
0.0075140686
0.0075140686
0.0075140686
0.0075140686
0.0075140686
0.0075140686
0.0075140686
0.0075140686
0.0075140686
0.0075140686
0.0075140686
0.0075140686
0.0075140686
0.0075140686
0.0075140686
0.0075140686
0.0075140686
0.0075140686
0.0075140686
0.0075140686
0.0075140686
0.0075140686
0.0075140686
0.0075140686
0.0075140686
0.0075140686
0.0075140686
0.0075140686
0.0075140686
0.0075140686
0.0075140686
0.0075140686
0.0075140686
0.0075140686
0.0075140686
0.0075140686
0.0075140686
0.0075140686
0.0075140686
0.0075140686
0.0075140686
0.0075140686
0.0075140686
0.0075140686
0.0075140686
0.0075140686
0.0075140686
0.0075140686
0.0075140686
0.0075140686
0.0075140686
0.0075140686
0.0075140686
0.0075140686
0.0075140686
0.0075140686
0.0075140686
0.0075140686
0.0075140686
0.0075140686
0.0075140686
0.0075140686
0.0075140686
0.0075140686
0.0075140686
0.0075140686
0.0075140686
0.0075140686
0.0075140686
0.0075140686
0.0075140686
0.0075140686
0.0075140686
0.0075140686
0.0075140686
0.0075140686
0.0075140686
0.0075140686
0.0075140686
0.0075140686
0.0075140686
0.0075140686
0.0075140686
0.0075140686
0.0075140686
0.0075140686
0.0075140686
0.0075140686
0.0075140686
0.0075140686
0.0075140686
0.0075140686
0.0075140686
0.0075140686
0.0075140686
0.0075140686
0.0075140686
0.0075140686
0.0075140686
0.0075140686
0.0075140686
0.0075140686
0.0075140686
0.0075140686
)
;
        value           nonuniform List<scalar> 
130
(
909.35445
909.31675
909.21587
909.06539
908.85095
908.58875
908.30299
907.89658
907.43981
907.08208
906.81182
906.60581
906.42219
909.4135
909.36963
909.26487
909.10691
908.87361
908.65017
908.36871
908.02785
907.65512
907.17123
906.84751
906.60501
906.41943
909.47144
909.41781
909.29176
909.10955
908.9137
908.68635
908.41013
908.02138
907.69478
907.34683
906.99594
906.67389
906.47534
909.57304
909.51692
909.36808
909.18363
908.9825
908.74061
908.45811
908.07642
907.77282
907.48188
907.19673
906.91286
906.61473
909.71373
909.65896
909.53133
909.31809
909.09872
908.84967
908.55663
908.17296
907.87359
907.59658
907.33915
907.07099
906.8144
909.87412
909.82222
909.70161
909.5032
909.24704
908.98346
908.64392
908.29498
907.98479
907.70189
907.42447
907.08918
906.83809
910.0569
909.99235
909.86502
909.67767
909.43335
909.13761
908.81871
908.45115
908.11578
907.82093
907.53645
907.13493
906.99033
910.17142
910.11963
910.01786
909.83183
909.61243
909.35254
909.05821
908.74756
908.43103
908.11394
907.83711
907.6077
907.50969
910.27188
910.22893
910.13983
909.98488
909.79158
909.58673
909.37224
909.12022
908.85961
908.58552
908.33129
908.08964
907.91627
910.33898
910.29935
910.21836
910.08853
909.92219
909.73947
909.52988
909.30454
909.0619
908.79653
908.5688
908.38033
908.25613
)
;
        Tnbr            T;
        thicknessLayers List<scalar> 0();
        kappaLayers     List<scalar> 0();
        kappaMethod     solidThermo;
        kappa           none;
        alphaAni        none;
        alpha           none;
        field           T;
    }
    leftSolid_to_heater
    {
        type            compressible::turbulentTemperatureCoupledBaffleMixed;
        refValue        nonuniform List<scalar> 10(734.25135 724.81263 704.98587 672.83372 626.08686 626.23054 673.39176 705.70733 725.5623 734.95676);
        refGradient     uniform 0;
        valueFraction   nonuniform List<scalar> 10(2.08329e-05 2.08329e-05 2.08329e-05 2.08329e-05 2.08329e-05 2.08329e-05 2.08329e-05 2.08329e-05 2.08329e-05 2.08329e-05);
        value           nonuniform List<scalar> 10(906.16926 906.18234 906.25614 906.39132 906.54314 906.60775 906.76079 907.15352 907.52139 907.79636);
        Tnbr            T;
        thicknessLayers List<scalar> 1(0.001);
        kappaLayers     List<scalar> 1(0.0005);
        kappaMethod     solidThermo;
        kappa           none;
        alphaAni        none;
        alpha           none;
        field           T;
    }
    leftSolid_to_topAir
    {
        type            compressible::turbulentTemperatureCoupledBaffleMixed;
        refValue        nonuniform List<scalar> 
130
(
324.75986
347.65588
368.37383
387.5066
405.54758
422.79165
439.34411
455.05878
469.63097
483.02489
495.12027
505.6909
514.237
324.75546
347.40661
367.64383
386.06054
403.11497
419.04364
433.90186
447.62641
460.01264
470.72058
479.279
485.12869
487.53964
324.75449
347.44787
367.74411
386.23482
403.3858
419.44641
434.52911
448.65433
461.7532
473.64163
483.9727
492.16153
497.11961
324.75804
347.46979
367.80682
386.36795
403.63829
419.90029
435.31357
449.96955
463.90483
477.07614
489.28894
500.03168
508.13695
324.76245
347.48322
367.83456
386.41424
403.70845
420.00413
435.45999
450.16427
464.14082
477.30569
489.35245
499.53648
506.55054
324.7687
347.49558
367.85316
386.43947
403.7402
420.04074
435.49847
450.19704
464.14846
477.24178
489.09551
498.84628
505.29022
324.77604
347.5049
367.85857
386.43586
403.7213
419.99801
435.42339
450.08412
464.00089
477.10074
489.12931
499.46371
506.84276
324.78134
347.50042
367.822
386.33826
403.51565
419.60366
434.70818
448.8554
461.96746
473.82909
484.04587
491.95014
496.33713
324.78861
347.47058
367.73721
386.18294
403.26676
419.22675
434.12356
447.8863
460.30059
471.02064
479.54064
485.2456
487.33791
324.7975
347.72956
368.48305
387.6525
405.73339
423.02194
439.62804
455.40812
470.04779
483.50498
495.64785
506.23203
514.72772
)
;
        refGradient     uniform 0;
        valueFraction   nonuniform List<scalar> 
130
(
0.00032132529
0.00032132529
0.00032132529
0.00032132529
0.00032132529
0.00032132529
0.00032132529
0.00032132529
0.00032132529
0.00032132529
0.00032132529
0.00032132529
0.00032132529
0.00032132529
0.00032132529
0.00032132529
0.00032132529
0.00032132529
0.00032132529
0.00032132529
0.00032132529
0.00032132529
0.00032132529
0.00032132529
0.00032132529
0.00032132529
0.00032132529
0.00032132529
0.00032132529
0.00032132529
0.00032132529
0.00032132529
0.00032132529
0.00032132529
0.00032132529
0.00032132529
0.00032132529
0.00032132529
0.00032132529
0.00032132529
0.00032132529
0.00032132529
0.00032132529
0.00032132529
0.00032132529
0.00032132529
0.00032132529
0.00032132529
0.00032132529
0.00032132529
0.00032132529
0.00032132529
0.00032132529
0.00032132529
0.00032132529
0.00032132529
0.00032132529
0.00032132529
0.00032132529
0.00032132529
0.00032132529
0.00032132529
0.00032132529
0.00032132529
0.00032132529
0.00032132529
0.00032132529
0.00032132529
0.00032132529
0.00032132529
0.00032132529
0.00032132529
0.00032132529
0.00032132529
0.00032132529
0.00032132529
0.00032132529
0.00032132529
0.00032132529
0.00032132529
0.00032132529
0.00032132529
0.00032132529
0.00032132529
0.00032132529
0.00032132529
0.00032132529
0.00032132529
0.00032132529
0.00032132529
0.00032132529
0.00032132529
0.00032132529
0.00032132529
0.00032132529
0.00032132529
0.00032132529
0.00032132529
0.00032132529
0.00032132529
0.00032132529
0.00032132529
0.00032132529
0.00032132529
0.00032132529
0.00032132529
0.00032132529
0.00032132529
0.00032132529
0.00032132529
0.00032132529
0.00032132529
0.00032132529
0.00032132529
0.00032132529
0.00032132529
0.00032132529
0.00032132529
0.00032132529
0.00032132529
0.00032132529
0.00032132529
0.00032132529
0.00032132529
0.00032132529
0.00032132529
0.00032132529
0.00032132529
0.00032132529
0.00032132529
)
;
        value           nonuniform List<scalar> 
130
(
908.71527
908.68085
908.59095
908.44713
908.24809
908.00591
907.72446
907.37685
906.99618
906.65699
906.38411
906.17939
906.0469
908.76063
908.72221
908.6273
908.47822
908.27615
908.04773
907.77531
907.45437
907.10597
906.73653
906.43071
906.19789
906.0516
908.81836
908.77344
908.66704
908.51041
908.31981
908.09352
907.82188
907.49611
907.17851
906.86019
906.55554
906.29234
906.12887
908.91272
908.86423
908.74825
908.58683
908.39251
908.15956
907.88438
907.56312
907.26488
906.98173
906.71158
906.46204
906.26822
909.04617
908.99841
908.88561
908.71249
908.50601
908.2644
907.98167
907.65989
907.36529
907.09192
906.83626
906.59797
906.42045
909.20183
909.15559
909.04598
908.87265
908.6493
908.39274
908.09136
907.7745
907.47439
907.19373
906.92401
906.66075
906.48464
909.36648
909.31738
909.20797
909.03927
908.81769
908.55224
908.25527
907.93368
907.62164
907.33033
907.0528
906.77816
906.63714
909.49337
909.45228
909.35685
909.19871
908.99606
908.75523
908.48465
908.19453
907.89721
907.60638
907.34623
907.13621
907.02571
909.59874
909.56449
909.48194
909.34563
909.16889
908.96659
908.74372
908.49653
908.23693
907.97423
907.73074
907.52218
907.39017
909.66384
909.63361
909.56017
909.44106
909.28402
909.10085
908.89384
908.66796
908.42753
908.18099
907.9598
907.78164
907.67365
)
;
        Tnbr            T;
        thicknessLayers List<scalar> 0();
        kappaLayers     List<scalar> 0();
        kappaMethod     solidThermo;
        kappa           none;
        alphaAni        none;
        alpha           none;
        field           T;
    }
}


// ************************************************************************* //
