/*--------------------------------*- C++ -*----------------------------------*\
| =========                 |                                                 |
| \\      /  F ield         | OpenFOAM: The Open Source CFD Toolbox           |
|  \\    /   O peration     | Version:  v2012                                 |
|   \\  /    A nd           | Website:  www.openfoam.com                      |
|    \\/     M anipulation  |                                                 |
\*---------------------------------------------------------------------------*/
FoamFile
{
    version     2.0;
    format      ascii;
    class       volScalarField;
    location    "300/heater";
    object      T;
}
// * * * * * * * * * * * * * * * * * * * * * * * * * * * * * * * * * * * * * //

dimensions      [0 0 0 1 0 0 0];


internalField   nonuniform List<scalar> 
80
(
713.70419
715.66569
719.49477
724.95989
704.94801
707.25953
711.78119
718.27283
686.45549
689.43314
695.42611
704.27025
656.23898
659.96998
668.03468
681.06023
344.60948
341.8548
341.90235
344.694
419.2342
415.81997
416.05776
419.74465
482.4822
479.59268
480.33789
484.27658
535.73733
533.91302
535.81214
540.48762
579.266
579.27713
583.70945
591.20642
611.87771
615.25991
624.22976
642.35577
344.57471
341.83945
341.90718
344.7365
419.19141
415.78807
416.04367
419.75992
482.46025
479.55275
480.2985
484.25464
535.70741
533.85675
535.75034
540.46814
579.15781
579.18561
583.63177
591.21579
611.73895
615.12383
624.10117
642.25506
655.77968
659.49933
667.55365
680.65787
685.97962
688.88834
694.81733
703.64032
704.47421
706.72579
711.15887
717.56686
713.23386
715.1545
718.90371
724.25069
)
;

boundaryField
{
    minY
    {
        type            fixedValue;
        value           uniform 300;
    }
    minZ
    {
        type            zeroGradient;
    }
    maxZ
    {
        type            zeroGradient;
    }
    heater_to_topAir
    {
        type            compressible::turbulentTemperatureCoupledBaffleMixed;
        refValue        nonuniform List<scalar> 
40
(
492.50557
492.21535
489.82351
485.66678
463.78581
456.92532
448.57717
440.14585
474.3538
468.36705
459.47221
449.10416
487.85396
486.13455
484.02803
483.32187
485.25841
481.93845
480.4233
481.9821
483.63663
480.76261
480.30944
482.75091
485.93429
483.47226
481.08137
480.30151
472.90733
466.14939
456.52094
445.9077
462.90492
455.69497
446.99724
438.36842
492.15344
491.72991
489.14332
484.77854
)
;
        refGradient     uniform 0;
        valueFraction   nonuniform List<scalar> 
40
(
0.00032132529
0.00032132529
0.00032132529
0.00032132529
0.00032132529
0.00032132529
0.00032132529
0.00032132529
0.00032132529
0.00032132529
0.00032132529
0.00032132529
0.00032132529
0.00032132529
0.00032132529
0.00032132529
0.00032132529
0.00032132529
0.00032132529
0.00032132529
0.00032132529
0.00032132529
0.00032132529
0.00032132529
0.00032132529
0.00032132529
0.00032132529
0.00032132529
0.00032132529
0.00032132529
0.00032132529
0.00032132529
0.00032132529
0.00032132529
0.00032132529
0.00032132529
0.00032132529
0.00032132529
0.00032132529
0.00032132529
)
;
        value           nonuniform List<scalar> 
40
(
713.6296
715.59029
719.41732
724.87928
704.86708
707.17553
711.69301
718.17979
686.38408
689.35879
695.34689
704.18476
656.18198
659.91119
667.97253
680.99353
611.8346
615.21458
624.18097
642.3015
611.69534
615.07812
624.05229
642.20093
655.72218
659.4397
667.49045
680.59005
685.90779
688.81328
694.73719
703.55383
704.39309
706.6416
711.07035
717.47339
713.1593
715.07913
718.82622
724.16994
)
;
        Tnbr            T;
        thicknessLayers List<scalar> 0();
        kappaLayers     List<scalar> 0();
        kappaMethod     solidThermo;
        kappa           none;
        alphaAni        none;
        alpha           none;
        field           T;
    }
    heater_to_rightSolid
    {
        type            compressible::turbulentTemperatureCoupledBaffleMixed;
        refValue        nonuniform List<scalar> 10(731.69389 726.25584 715.2816 698.81127 679.30348 679.21815 698.43006 714.6118 725.44526 730.81799);
        refGradient     uniform 0;
        valueFraction   nonuniform List<scalar> 10(0.49999997 0.49999997 0.49999997 0.49999997 0.49999997 0.49999997 0.49999997 0.49999997 0.49999997 0.49999997);
        value           nonuniform List<scalar> 10(728.32503 722.2625 709.77417 689.93417 660.82825 660.73517 689.54224 709.12422 721.50418 727.53244);
        Tnbr            T;
        thicknessLayers List<scalar> 0();
        kappaLayers     List<scalar> 0();
        kappaMethod     solidThermo;
        kappa           none;
        alphaAni        none;
        alpha           none;
        field           T;
    }
    heater_to_leftSolid
    {
        type            compressible::turbulentTemperatureCoupledBaffleMixed;
        refValue        nonuniform List<scalar> 10(836.83873 836.64382 836.32104 835.87446 835.37669 835.11052 835.21204 835.53172 835.77245 835.92113);
        refGradient     uniform 0;
        valueFraction   nonuniform List<scalar> 10(2.0832898e-05 2.0832898e-05 2.0832898e-05 2.0832898e-05 2.0832898e-05 2.0832898e-05 2.0832898e-05 2.0832898e-05 2.0832898e-05 2.0832898e-05);
        value           nonuniform List<scalar> 10(713.70325 704.94732 686.45535 656.23983 611.87994 611.74115 655.78049 685.97937 704.47345 713.2329);
        Tnbr            T;
        thicknessLayers List<scalar> 1(0.001);
        kappaLayers     List<scalar> 1(0.0005);
        kappaMethod     solidThermo;
        kappa           none;
        alphaAni        none;
        alpha           none;
        field           T;
    }
    heater_to_bottomWater
    {
        type            compressible::turbulentTemperatureCoupledBaffleMixed;
        refValue        nonuniform List<scalar> 
92
(
955.12332
952.96548
950.44983
948.61201
954.34947
955.44196
951.13885
948.54295
952.95251
950.3977
948.30353
947.03716
951.00952
940.17324
938.53084
938.66315
952.36403
944.22111
941.4647
943.51702
951.14883
943.67867
943.86407
944.73582
950.28371
943.64131
944.89405
943.47266
946.6763
946.6763
941.10644
941.10644
940.43773
940.43773
939.31273
939.31273
934.8502
930.11966
942.10851
924.69707
938.56054
937.43326
936.76544
940.94964
940.82168
934.1544
934.49916
940.30539
937.35778
939.51571
938.99074
940.94186
942.88489
941.9281
938.84559
938.62168
929.70063
939.03686
945.92891
938.86207
937.31285
936.39423
938.36792
938.98357
944.90489
940.54393
936.01879
929.98523
943.72188
942.10296
936.37782
934.94802
931.38464
925.47121
946.49299
945.13632
934.94802
931.38464
925.47121
945.13632
959.79847
948.14495
941.12694
944.2048
960.46984
956.88499
948.50226
947.84918
958.83557
956.81069
955.06699
953.63161
)
;
        refGradient     uniform 0;
        valueFraction   nonuniform List<scalar> 
92
(
0.0075140686
0.0075140686
0.0075140686
0.0075140686
0.0075140686
0.0075140686
0.0075140686
0.0075140686
0.0075140686
0.0075140686
0.0075140686
0.0075140686
0.0075140686
0.0075140686
0.0075140686
0.0075140686
0.0075140686
0.0075140686
0.0075140686
0.0075140686
0.0075140686
0.0075140686
0.0075140686
0.0075140686
0.0075140686
0.0075140686
0.0075140686
0.0075140686
0.0075140686
0.0075140686
0.0075140686
0.0075140686
0.0075140686
0.0075140686
0.0075140686
0.0075140686
0.0075140679
0.0075140679
0.0075140679
0.0075140679
0.0075140679
0.0075140679
0.0075140679
0.0075140679
0.0075140679
0.0075140679
0.0075140679
0.0075140686
0.0075140686
0.0075140686
0.0075140679
0.0075140686
0.0075140679
0.0075140686
0.0075140686
0.0075140686
0.0075140679
0.0075140686
0.0075140679
0.0075140686
0.0075140686
0.0075140686
0.0075140679
0.0075140686
0.0075140679
0.0075140686
0.0075140686
0.0075140686
0.0075140679
0.0075140686
0.0075140679
0.0075140686
0.0075140686
0.0075140686
0.0075140679
0.0075140686
0.0075140686
0.0075140686
0.0075140686
0.0075140686
0.0075140686
0.0075140686
0.0075140686
0.0075140686
0.0075140686
0.0075140686
0.0075140686
0.0075140686
0.0075140686
0.0075140686
0.0075140686
0.0075140686
)
;
        value           nonuniform List<scalar> 
92
(
715.51475
717.4452
721.22656
726.63674
706.81862
709.12086
713.57616
719.99945
688.45473
691.39075
697.32288
706.09094
349.1659
346.35043
346.38525
349.15687
423.23957
419.78979
420.00505
423.67959
486.00277
483.07878
483.81975
487.73539
538.85083
536.99023
538.88447
543.51419
658.41848
582.02485
662.07955
581.99395
670.07854
586.3879
682.99762
593.82011
349.04448
349.09267
423.16251
423.53818
485.90818
487.68051
538.74925
543.49523
581.98086
593.78135
349.00721
349.05084
346.314
346.39744
349.20155
349.21621
423.1258
423.11861
419.7177
419.96969
423.59097
423.66112
485.94169
485.88859
482.99128
483.72451
487.66572
487.67035
538.78065
538.74788
536.87706
538.71105
543.49654
543.48438
581.84007
581.82933
581.83002
586.19821
593.88314
593.87294
657.87447
661.53925
669.4884
682.64177
688.03377
690.83295
696.66457
705.44429
706.39431
708.602
712.93867
719.29349
715.07583
716.96677
720.67462
725.9705
)
;
        Tnbr            T;
        thicknessLayers List<scalar> 0();
        kappaLayers     List<scalar> 0();
        kappaMethod     solidThermo;
        kappa           none;
        alphaAni        none;
        alpha           none;
        field           T;
    }
}


// ************************************************************************* //
