/*--------------------------------*- C++ -*----------------------------------*\
| =========                 |                                                 |
| \\      /  F ield         | OpenFOAM: The Open Source CFD Toolbox           |
|  \\    /   O peration     | Version:  v2012                                 |
|   \\  /    A nd           | Website:  www.openfoam.com                      |
|    \\/     M anipulation  |                                                 |
\*---------------------------------------------------------------------------*/
FoamFile
{
    version     2.0;
    format      ascii;
    class       volScalarField;
    location    "550/bottomWater";
    object      p;
}
// * * * * * * * * * * * * * * * * * * * * * * * * * * * * * * * * * * * * * //

dimensions      [1 -1 -2 0 0 0 0];


internalField   nonuniform List<scalar> 
1460
(
353.45943
353.45663
353.46388
353.44213
353.45472
353.44342
353.44727
353.44649
353.44633
353.44962
353.43433
353.44817
353.44445
353.45506
353.44909
353.44757
353.44869
353.45568
353.44238
353.44693
353.44796
353.45796
353.4629
353.4674
353.4674
353.46408
353.46255
353.46667
353.46298
353.46804
274.411
274.42782
274.44617
274.43615
274.43597
274.43452
274.42717
274.41718
274.4201
274.41628
274.42798
274.46262
274.48089
274.46429
274.43881
274.41628
274.41383
274.41466
274.41651
274.44963
274.48587
274.4975
274.49657
274.48141
274.45088
274.39165
274.40084
274.43325
274.41921
274.40245
196.28302
196.26602
196.25659
196.2942
196.31251
196.29741
196.29361
196.30425
196.31747
196.28767
196.26059
196.23863
196.26277
196.27358
196.26676
196.28509
196.31024
196.30326
196.25865
196.23606
196.24884
196.25958
196.26038
196.26677
196.23459
196.28025
196.31106
196.30132
196.29819
196.31937
117.68575
117.60988
117.64083
117.64372
117.68851
117.65942
117.65237
117.66487
117.6801
117.67405
117.64304
117.64705
117.67404
117.66638
117.62815
117.65615
117.66597
117.69066
117.66477
117.65803
117.66682
117.6895
117.69034
117.67115
117.6358
117.66239
117.6654
117.64823
117.63515
117.68159
39.268095
39.262802
39.247563
39.219117
39.229272
39.23735
39.248423
39.252295
39.261214
39.25875
39.252364
39.237583
39.22935
39.229127
39.245113
39.24858
39.260759
39.264034
39.258493
39.251144
39.234852
39.23005
39.237115
39.227591
39.243344
39.249004
39.250142
39.275208
39.281374
39.270541
353.46446
353.4576
353.47682
353.44636
353.46438
353.44805
353.44964
353.44245
353.44874
353.45315
353.44094
353.4559
353.44488
353.45596
353.45669
353.44956
353.44989
353.45596
353.45445
353.4445
353.45161
353.4625
353.46548
353.47783
353.46801
353.47604
353.46652
353.48501
353.47149
353.47397
274.40932
274.41708
274.48036
274.46143
274.46647
274.46279
274.44518
274.42215
274.41361
274.41015
274.42397
274.46345
274.4663
274.47584
274.46388
274.41811
274.40118
274.40908
274.41468
274.41959
274.44838
274.47264
274.47524
274.46425
274.42359
274.40115
274.42133
274.44955
274.43088
274.39964
196.2734
196.24619
196.23423
196.27206
196.25965
196.25835
196.24919
196.26514
196.29722
196.28924
196.25527
196.24055
196.27105
196.2653
196.23601
196.26955
196.27675
196.31629
196.27828
196.24669
196.23458
196.24814
196.24787
196.2329
196.24869
196.2703
196.31176
196.23889
196.27343
196.3013
117.68565
117.60378
117.63745
117.6375
117.67332
117.65764
117.64453
117.63803
117.67909
117.67865
117.6253
117.63256
117.6617
117.67071
117.63981
117.6427
117.66722
117.6839
117.68381
117.64868
117.66474
117.68312
117.67622
117.66531
117.63043
117.69288
117.65613
117.66771
117.64276
117.68108
39.27144
39.261579
39.252899
39.223804
39.224374
39.236625
39.258094
39.264269
39.267311
39.266862
39.260668
39.248962
39.229935
39.227863
39.246817
39.252673
39.255425
39.264003
39.257884
39.251007
39.23669
39.224978
39.225684
39.229056
39.24183
39.258255
39.245648
39.252395
39.264982
39.259027
353.46563
353.45859
353.47766
353.45195
353.46909
353.4486
353.46596
353.44601
353.44995
353.45623
353.4421
353.44645
353.44517
353.44532
353.46435
353.46237
353.45544
353.45245
353.45303
353.44994
353.44309
353.44917
353.45565
353.46332
353.44294
353.46861
353.46408
353.47871
353.47981
353.47743
274.41085
274.41855
274.48771
274.48773
274.49954
274.49992
274.50254
274.42633
274.41349
274.41279
274.41316
274.45038
274.46291
274.45922
274.49848
274.46016
274.42414
274.41606
274.40962
274.41066
274.40818
274.41731
274.43125
274.4332
274.4238
274.39973
274.40859
274.44616
274.44961
274.41391
196.27456
196.242
196.23355
196.27946
196.26141
196.25906
196.24321
196.24869
196.28169
196.30818
196.26902
196.25519
196.27512
196.29229
196.23634
196.24146
196.25544
196.27888
196.28842
196.27708
196.26279
196.27611
196.26811
196.30193
196.29898
196.31827
196.32478
196.27223
196.24748
196.29378
117.68677
117.61913
117.63633
117.65918
117.68453
117.65022
117.65721
117.64347
117.6753
117.67406
117.64197
117.61832
117.65961
117.6524
117.62071
117.63713
117.62799
117.6546
117.69728
117.67498
117.6413
117.63723
117.62505
117.62744
117.629
117.6656
117.68768
117.66517
117.64376
117.65583
39.265475
39.255107
39.243889
39.221782
39.230087
39.239621
39.252738
39.256202
39.256345
39.268537
39.245524
39.240147
39.228768
39.227436
39.24392
39.266242
39.259299
39.23975
39.249752
39.243742
39.242064
39.237104
39.251489
39.271981
39.24238
39.233347
39.23444
39.218862
39.238364
39.245155
353.46255
353.4531
353.46831
353.45866
353.46547
353.45437
353.45812
353.44603
353.45543
353.45593
353.45137
353.45856
353.45554
353.45542
353.45654
353.45135
353.46414
353.45295
353.45367
353.45267
353.45365
353.45605
353.45778
353.47138
353.47768
353.4775
353.46384
353.47114
353.46764
353.47056
274.41469
274.41216
274.47035
274.49225
274.50051
274.49493
274.46404
274.41951
274.4144
274.41558
274.41702
274.45952
274.47866
274.47298
274.43682
274.43091
274.46019
274.42267
274.41435
274.41168
274.39893
274.39227
274.38252
274.43026
274.4689
274.44274
274.41157
274.42017
274.39795
274.39719
196.26294
196.2274
196.22023
196.26018
196.25112
196.26487
196.23886
196.25678
196.28155
196.29549
196.25859
196.24288
196.25306
196.26328
196.28157
196.29569
196.21853
196.29391
196.28102
196.30847
196.28351
196.29327
196.24509
196.24878
196.22698
196.25091
196.31708
196.30421
196.32724
196.34461
117.67647
117.62744
117.64099
117.66569
117.70025
117.68163
117.66656
117.66448
117.69364
117.68527
117.65653
117.65948
117.69277
117.69797
117.65972
117.67141
117.65411
117.65818
117.67361
117.67067
117.68149
117.67656
117.67094
117.64363
117.64419
117.66627
117.66708
117.63917
117.64696
117.67465
39.25051
39.242207
39.23239
39.209469
39.225725
39.223736
39.227094
39.237729
39.246659
39.25178
39.237618
39.224071
39.225997
39.227334
39.212184
39.233549
39.243717
39.259339
39.253736
39.258987
39.254799
39.253262
39.246195
39.247196
39.239439
39.223822
39.239877
39.256657
39.266306
39.271073
353.46292
353.45795
353.45875
353.45742
353.45728
353.45303
353.44343
353.45332
353.45118
353.46243
353.46548
353.45122
353.4472
353.45441
353.44727
353.46768
353.46497
353.46669
353.46241
353.46258
353.47279
353.47323
353.48083
353.48508
353.47898
353.48105
274.40932
274.39368
274.42653
274.44982
274.47219
274.46275
274.42375
274.42253
274.42969
274.46546
274.48678
274.4341
274.43693
274.42046
274.42831
274.43646
274.39975
274.40585
274.39004
274.39682
274.45608
274.4691
274.457
274.43769
274.38802
274.39594
196.31611
196.2611
196.24693
196.24297
196.2505
196.23697
196.26327
196.2744
196.30585
196.26223
196.23564
196.27502
196.29365
196.28524
196.26589
196.24426
196.29548
196.3157
196.30446
196.27222
196.24694
196.26474
196.25911
196.23293
196.27055
196.30967
117.68006
117.66284
117.6266
117.65685
117.67159
117.66927
117.66505
117.69589
117.66158
117.66187
117.64621
117.65476
117.6782
117.67768
117.65186
117.65528
117.66999
117.6796
117.66177
117.63011
117.62228
117.64489
117.66523
117.63154
117.65169
117.6682
39.263698
39.251784
39.248153
39.224897
39.218432
39.236176
39.225748
39.23566
39.219837
39.220691
39.235417
39.215403
39.218955
39.241565
39.255025
39.26149
39.258357
39.26582
39.262415
39.251572
39.24674
39.229952
39.224802
39.251963
39.246519
39.265751
353.45505
353.4513
353.45152
353.44699
353.44777
353.44381
353.44611
353.44964
353.44539
353.46143
353.44709
353.43576
353.44116
353.45682
353.45464
353.4695
353.45417
353.46774
353.46811
353.47094
353.4823
353.48244
353.47358
353.48466
353.4636
353.47336
274.40664
274.40569
274.42845
274.41578
274.4383
274.42692
274.41721
274.41175
274.42513
274.47592
274.46224
274.42371
274.42751
274.43386
274.44652
274.47311
274.41215
274.40572
274.3933
274.36643
274.45006
274.48089
274.46551
274.48438
274.45031
274.43676
196.31736
196.288
196.28153
196.27814
196.26709
196.26456
196.28129
196.27687
196.25456
196.23105
196.2274
196.2519
196.28354
196.30389
196.26795
196.2511
196.25945
196.29077
196.31219
196.25889
196.22692
196.24633
196.27627
196.28715
196.29399
196.30813
117.67106
117.65226
117.63306
117.66251
117.64277
117.63446
117.66004
117.67859
117.6355
117.64989
117.64125
117.63893
117.67318
117.70172
117.6858
117.6769
117.65814
117.68524
117.68322
117.65514
117.61993
117.63724
117.65176
117.66804
117.60879
117.60144
39.258895
39.252289
39.255444
39.233741
39.252674
39.254339
39.241663
39.246971
39.247388
39.264668
39.252977
39.234802
39.229912
39.247306
39.236519
39.245558
39.255597
39.264149
39.27295
39.248653
39.250575
39.234393
39.219818
39.235628
39.231791
39.270097
353.45811
353.45456
353.468
353.44785
353.44881
353.44781
353.45053
353.4481
353.44694
353.44149
353.44782
353.4499
353.45507
353.46122
353.45732
353.46082
353.46019
353.46447
353.46915
353.47
353.47022
353.46122
353.46796
353.4687
353.47053
353.47715
353.46497
353.48226
353.47182
353.47095
274.4119
274.42565
274.45927
274.437
274.41606
274.40567
274.41114
274.40516
274.43155
274.42636
274.41878
274.41248
274.44461
274.46773
274.45904
274.44582
274.41659
274.44721
274.47804
274.49075
274.45508
274.40843
274.39882
274.39404
274.42793
274.45994
274.42298
274.4713
274.45032
274.43726
196.28326
196.24928
196.25599
196.26365
196.27072
196.28536
196.32193
196.29244
196.30085
196.29555
196.30135
196.28423
196.28453
196.27229
196.27386
196.29015
196.29486
196.27471
196.26249
196.27104
196.23904
196.25041
196.28854
196.27382
196.27453
196.2664
196.3154
196.27174
196.26473
196.28484
117.67326
117.64821
117.67525
117.65121
117.67104
117.67406
117.68065
117.68871
117.63493
117.6424
117.66283
117.67187
117.62425
117.6444
117.65336
117.67918
117.69305
117.68381
117.68325
117.67092
117.66224
117.6334
117.68404
117.65964
117.59743
117.63026
117.65036
117.66334
117.61962
117.61506
39.241081
39.240141
39.225797
39.245468
39.243533
39.25261
39.265647
39.266097
39.286046
39.285927
39.249076
39.242552
39.239856
39.236002
39.227839
39.224606
39.236188
39.219078
39.222646
39.228261
39.24862
39.261826
39.270987
39.257863
39.257338
39.239288
39.224139
39.227626
39.228731
39.261681
353.45911
353.4569
353.46725
353.45715
353.44735
353.44258
353.44488
353.44851
353.44525
353.44707
353.44769
353.44427
353.44557
353.45124
353.44998
353.45391
353.45841
353.45215
353.47164
353.47837
353.46414
353.46456
353.47223
353.47122
353.47591
353.44941
353.46221
353.46051
353.46252
353.46314
274.41347
274.43291
274.4764
274.46771
274.43849
274.41246
274.41193
274.42519
274.42372
274.41104
274.40942
274.40471
274.42757
274.43358
274.42861
274.41723
274.4157
274.42545
274.45832
274.47967
274.41906
274.40966
274.39374
274.40246
274.44536
274.42584
274.42143
274.41602
274.41761
274.39539
196.28711
196.24669
196.2608
196.25301
196.2434
196.27499
196.30336
196.3068
196.30061
196.30036
196.31808
196.29119
196.29785
196.30397
196.30609
196.30955
196.28942
196.26141
196.22224
196.24238
196.24605
196.29031
196.29579
196.28485
196.24542
196.30073
196.30302
196.31107
196.29638
196.31592
117.67244
117.63047
117.68184
117.67151
117.63788
117.65749
117.67139
117.64145
117.64252
117.67632
117.67245
117.64967
117.61329
117.61337
117.61435
117.65712
117.68413
117.6537
117.66437
117.66739
117.66205
117.67912
117.66486
117.61641
117.61622
117.64757
117.65562
117.63864
117.60643
117.66067
39.249651
39.245919
39.233965
39.232276
39.247734
39.248351
39.262039
39.298869
39.28685
39.254367
39.262083
39.229784
39.267683
39.299529
39.260466
39.232399
39.243908
39.247382
39.249558
39.25406
39.249427
39.254729
39.271642
39.254517
39.241632
39.236121
39.229592
39.243365
39.261203
39.2571
353.47041
353.47208
353.46907
353.4613
353.45002
353.45174
353.45324
353.45801
353.45731
353.45142
353.45363
353.45705
353.47282
353.47226
353.46119
353.46036
353.45834
353.45909
353.46155
353.45144
353.46124
353.45916
353.46004
353.47008
353.46777
353.47161
353.46758
353.46134
353.46431
353.46792
274.40994
274.44643
274.47615
274.4706
274.43406
274.41639
274.42768
274.45382
274.45285
274.41086
274.40619
274.42524
274.48525
274.48397
274.42789
274.4005
274.40535
274.3989
274.40907
274.41504
274.40876
274.40303
274.4168
274.45244
274.47397
274.47419
274.44547
274.41767
274.38722
274.40165
196.28321
196.23565
196.2666
196.24955
196.26056
196.25546
196.29123
196.22755
196.2496
196.28484
196.25789
196.25064
196.23621
196.23924
196.27105
196.27993
196.3048
196.29865
196.29606
196.28376
196.3015
196.27834
196.25469
196.22344
196.25932
196.26114
196.22316
196.27025
196.27935
196.33849
117.6704
117.61773
117.6652
117.6798
117.64334
117.68751
117.65889
117.66022
117.65548
117.68604
117.67767
117.64169
117.63592
117.63343
117.64317
117.6787
117.67159
117.67236
117.63527
117.62771
117.67673
117.66154
117.61524
117.62518
117.65773
117.66487
117.63121
117.62864
117.65927
117.67582
39.251724
39.243613
39.230956
39.230291
39.231503
39.242785
39.256232
39.262954
39.248443
39.238669
39.231311
39.218357
39.225652
39.238184
39.236173
39.236417
39.247946
39.250659
39.271248
39.276009
39.250712
39.252049
39.255855
39.243808
39.227222
39.22647
39.252697
39.257932
39.258917
39.271252
353.46418
353.46378
353.46762
353.45373
353.46157
353.43649
353.45094
353.44865
353.45095
353.44209
353.4574
353.45762
353.4614
353.4585
353.45321
353.46046
353.46869
353.45753
353.46456
353.45913
353.45713
353.45207
353.45283
353.45937
353.47039
353.46278
353.48009
353.45571
353.46083
353.46474
274.41185
274.42662
274.45749
274.47211
274.46616
274.42633
274.41885
274.4285
274.42227
274.42647
274.46316
274.48579
274.48905
274.4712
274.43718
274.48393
274.47331
274.41154
274.40216
274.40803
274.42251
274.43121
274.43869
274.45302
274.4829
274.49598
274.49979
274.41943
274.3982
274.41064
196.29737
196.25932
196.2721
196.27206
196.23844
196.25187
196.28429
196.3021
196.28695
196.26421
196.23804
196.26591
196.27741
196.2836
196.31065
196.24384
196.24893
196.27302
196.27242
196.3028
196.27702
196.28568
196.26888
196.2701
196.25736
196.27341
196.22836
196.25646
196.27973
196.32745
117.69096
117.60728
117.65209
117.66617
117.66687
117.65035
117.68469
117.67708
117.68627
117.67316
117.67528
117.68782
117.68367
117.67054
117.68523
117.66492
117.6784
117.65809
117.72
117.71118
117.63104
117.59621
117.61598
117.63898
117.67837
117.67466
117.6456
117.63705
117.66169
117.67757
39.272241
39.256883
39.237508
39.231309
39.237406
39.245811
39.244753
39.247636
39.238382
39.238812
39.223026
39.214433
39.21495
39.222267
39.21871
39.241215
39.242287
39.238223
39.247934
39.247208
39.22964
39.282608
39.284833
39.227316
39.234854
39.230985
39.24204
39.250042
39.257402
39.266682
)
;

boundaryField
{
    minX
    {
        type            calculated;
        value           nonuniform List<scalar> 
50
(
353.45943
274.411
196.28302
117.68575
39.268095
353.46446
274.40932
196.2734
117.68565
39.27144
353.46563
274.41085
196.27456
117.68677
39.265475
353.46255
274.41469
196.26294
117.67647
39.25051
353.46292
274.40932
196.31611
117.68006
39.263698
353.45505
274.40664
196.31736
117.67106
39.258895
353.45811
274.4119
196.28326
117.67326
39.241081
353.45911
274.41347
196.28711
117.67244
39.249651
353.47041
274.40994
196.28321
117.6704
39.251724
353.46418
274.41185
196.29737
117.69096
39.272241
)
;
    }
    maxX
    {
        type            calculated;
        value           nonuniform List<scalar> 
50
(
353.46804
274.40245
196.31937
117.68159
39.270541
353.47397
274.39964
196.3013
117.68108
39.259027
353.47743
274.41391
196.29378
117.65583
39.245155
353.47056
274.39719
196.34461
117.67465
39.271073
353.48105
274.39594
196.30967
117.6682
39.265751
353.47336
274.43676
196.30813
117.60144
39.270097
353.47095
274.43726
196.28484
117.61506
39.261681
353.46314
274.39539
196.31592
117.66067
39.2571
353.46792
274.40165
196.33849
117.67582
39.271252
353.46474
274.41064
196.32745
117.67757
39.266682
)
;
    }
    minY
    {
        type            calculated;
        value           nonuniform List<scalar> 
292
(
392.4
392.4
392.4
392.4
392.4
392.4
392.4
392.4
392.4
392.4
392.4
392.4
392.4
392.4
392.4
392.4
392.4
392.4
392.4
392.4
392.4
392.4
392.4
392.4
392.4
392.4
392.4
392.4
392.4
392.4
392.4
392.4
392.4
392.4
392.4
392.4
392.4
392.4
392.4
392.4
392.4
392.4
392.4
392.4
392.4
392.4
392.4
392.4
392.4
392.4
392.4
392.4
392.4
392.4
392.4
392.4
392.4
392.4
392.4
392.4
392.4
392.4
392.4
392.4
392.4
392.4
392.4
392.4
392.4
392.4
392.4
392.4
392.4
392.4
392.4
392.4
392.4
392.4
392.4
392.4
392.4
392.4
392.4
392.4
392.4
392.4
392.4
392.4
392.4
392.4
392.4
392.4
392.4
392.4
392.4
392.4
392.4
392.4
392.4
392.4
392.4
392.4
392.4
392.4
392.4
392.4
392.4
392.4
392.4
392.4
392.4
392.4
392.4
392.4
392.4
392.4
392.4
392.4
392.4
392.4
392.4
392.4
392.4
392.4
392.4
392.4
392.4
392.4
392.4
392.4
392.4
392.4
392.4
392.4
392.4
392.4
392.4
392.4
392.4
392.4
392.4
392.4
392.4
392.4
392.4
392.4
392.4
392.4
392.4
392.4
392.4
392.4
392.4
392.4
392.4
392.4
392.4
392.4
392.4
392.4
392.4
392.4
392.4
392.4
392.4
392.4
392.4
392.4
392.4
392.4
392.4
392.4
392.4
392.4
392.4
392.4
392.4
392.4
392.4
392.4
392.4
392.4
392.4
392.4
392.4
392.4
392.4
392.4
392.4
392.4
392.4
392.4
392.4
392.4
392.4
392.4
392.4
392.4
392.4
392.4
392.4
392.4
392.4
392.4
392.4
392.4
392.4
392.4
392.4
392.4
392.4
392.4
392.4
392.4
392.4
392.4
392.4
392.4
392.4
392.4
392.4
392.4
392.4
392.4
392.4
392.4
392.4
392.4
392.4
392.4
392.4
392.4
392.4
392.4
392.4
392.4
392.4
392.4
392.4
392.4
392.4
392.4
392.4
392.4
392.4
392.4
392.4
392.4
392.4
392.4
392.4
392.4
392.4
392.4
392.4
392.4
392.4
392.4
392.4
392.4
392.4
392.4
392.4
392.4
392.4
392.4
392.4
392.4
392.4
392.4
392.4
392.4
392.4
392.4
392.4
392.4
392.4
392.4
392.4
392.4
392.4
392.4
392.4
392.4
392.4
392.4
392.4
392.4
392.4
392.4
392.4
392.4
)
;
    }
    minZ
    {
        type            calculated;
        value           nonuniform List<scalar> 
150
(
353.45943
274.411
196.28302
117.68575
39.268095
353.45663
274.42782
196.26602
117.60988
39.262802
353.46388
274.44617
196.25659
117.64083
39.247563
353.44213
274.43615
196.2942
117.64372
39.219117
353.45472
274.43597
196.31251
117.68851
39.229272
353.44342
274.43452
196.29741
117.65942
39.23735
353.44727
274.42717
196.29361
117.65237
39.248423
353.44649
274.41718
196.30425
117.66487
39.252295
353.44633
274.4201
196.31747
117.6801
39.261214
353.44962
274.41628
196.28767
117.67405
39.25875
353.43433
274.42798
196.26059
117.64304
39.252364
353.44817
274.46262
196.23863
117.64705
39.237583
353.44445
274.48089
196.26277
117.67404
39.22935
353.45506
274.46429
196.27358
117.66638
39.229127
353.44909
274.43881
196.26676
117.62815
39.245113
353.44757
274.41628
196.28509
117.65615
39.24858
353.44869
274.41383
196.31024
117.66597
39.260759
353.45568
274.41466
196.30326
117.69066
39.264034
353.44238
274.41651
196.25865
117.66477
39.258493
353.44693
274.44963
196.23606
117.65803
39.251144
353.44796
274.48587
196.24884
117.66682
39.234852
353.45796
274.4975
196.25958
117.6895
39.23005
353.4629
274.49657
196.26038
117.69034
39.237115
353.4674
274.48141
196.26677
117.67115
39.227591
353.4674
274.45088
196.23459
117.6358
39.243344
353.46408
274.39165
196.28025
117.66239
39.249004
353.46255
274.40084
196.31106
117.6654
39.250142
353.46667
274.43325
196.30132
117.64823
39.275208
353.46298
274.41921
196.29819
117.63515
39.281374
353.46804
274.40245
196.31937
117.68159
39.270541
)
;
    }
    maxZ
    {
        type            calculated;
        value           nonuniform List<scalar> 
150
(
353.46418
274.41185
196.29737
117.69096
39.272241
353.46378
274.42662
196.25932
117.60728
39.256883
353.46762
274.45749
196.2721
117.65209
39.237508
353.45373
274.47211
196.27206
117.66617
39.231309
353.46157
274.46616
196.23844
117.66687
39.237406
353.43649
274.42633
196.25187
117.65035
39.245811
353.45094
274.41885
196.28429
117.68469
39.244753
353.44865
274.4285
196.3021
117.67708
39.247636
353.45095
274.42227
196.28695
117.68627
39.238382
353.44209
274.42647
196.26421
117.67316
39.238812
353.4574
274.46316
196.23804
117.67528
39.223026
353.45762
274.48579
196.26591
117.68782
39.214433
353.4614
274.48905
196.27741
117.68367
39.21495
353.4585
274.4712
196.2836
117.67054
39.222267
353.45321
274.43718
196.31065
117.68523
39.21871
353.46046
274.48393
196.24384
117.66492
39.241215
353.46869
274.47331
196.24893
117.6784
39.242287
353.45753
274.41154
196.27302
117.65809
39.238223
353.46456
274.40216
196.27242
117.72
39.247934
353.45913
274.40803
196.3028
117.71118
39.247208
353.45713
274.42251
196.27702
117.63104
39.22964
353.45207
274.43121
196.28568
117.59621
39.282608
353.45283
274.43869
196.26888
117.61598
39.284833
353.45937
274.45302
196.2701
117.63898
39.227316
353.47039
274.4829
196.25736
117.67837
39.234854
353.46278
274.49598
196.27341
117.67466
39.230985
353.48009
274.49979
196.22836
117.6456
39.24204
353.45571
274.41943
196.25646
117.63705
39.250042
353.46083
274.3982
196.27973
117.66169
39.257402
353.46474
274.41064
196.32745
117.67757
39.266682
)
;
    }
    bottomWater_to_rightSolid
    {
        type            calculated;
        value           nonuniform List<scalar> 
130
(
0.024034434
0.018493171
0.011143537
-0.005147736
-0.0099497407
-0.0028851412
-0.01240857
0.0033444892
0.0090042951
0.010141691
0.035207963
0.041374337
0.030541233
0.024002514
0.017883575
0.011007209
-0.003309789
-0.015022293
-0.014315638
-0.010943664
0.001830066
0.018254885
0.0056478708
0.012395146
0.024981562
0.019026892
-0.00025037081
0.0097517604
0.0037415515
0.0020641223
-0.002895579
0.011488559
0.031980627
0.002379726
-0.0066534766
-0.0055601978
-0.021137641
-0.0016359656
0.0051547157
0.01933874
0.013735654
0.01898742
0.014799058
0.013261977
0.0061946472
0.0071963326
-0.00056126591
-0.016177615
-0.00012307474
0.016656732
0.026305754
0.031073368
0.0015645324
0.01502525
0.021489655
0.018356919
0.025820396
0.022414587
0.011572428
0.0067404143
-0.010047766
-0.015197997
0.011963415
0.0065188038
0.025750711
0.0073061627
-0.0034812447
0.00555819
0.015597436
0.02414949
0.032950397
0.0086531136
0.010575251
-0.0056066974
-0.020182144
-0.004371923
-0.0082093522
0.030096976
-0.020921784
-0.017354459
-0.011739141
0.0086195111
0.021825807
0.030987102
0.017862871
0.017338239
-0.00071211316
-0.015861225
-0.012374185
-0.011269184
0.021680583
0.0073819475
0.0095579276
0.014060227
0.0094269526
0.014729095
0.031641625
0.014516803
0.0016317316
-0.0038793166
-0.010408096
0.0033654699
0.021202952
0.017100092
0.010659489
0.031247661
0.036008976
0.010711788
0.012049405
0.015854759
0.0038084834
-0.012777647
-0.013530172
0.012696594
0.017931551
0.018916898
0.031252484
-0.0017774824
0.0079343309
0.0072082499
-0.010359701
0.042608287
0.044833468
-0.012683891
-0.0051460569
-0.0090145595
0.0020404643
0.01004155
0.01740218
0.026681875
)
;
    }
    bottomWater_to_leftSolid
    {
        type            calculated;
        value           nonuniform List<scalar> 
130
(
0.028094726
0.022802251
0.0075631002
-0.020882536
-0.010728331
-0.0026499187
0.0084229622
0.012294516
0.021213625
0.018749808
0.012363529
-0.0024169768
-0.010649977
0.031440491
0.021578891
0.012899136
-0.016196079
-0.015625972
-0.0033746922
0.018094222
0.02426854
0.027311431
0.026862175
0.020667692
0.0089622716
-0.010064951
0.025475484
0.015106791
0.003889075
-0.018218426
-0.0099131712
-0.00037850048
0.012738196
0.01620235
0.016345178
0.028537145
0.0055240978
0.0001471329
-0.011232468
0.010509951
0.0022074492
-0.0076103775
-0.030531407
-0.014274637
-0.016264284
-0.012905691
-0.0022709643
0.0066592838
0.011779892
-0.0023821489
-0.01592909
-0.014002857
0.023698469
0.011784308
0.0081526093
-0.015103129
-0.021567858
-0.0038240144
-0.014251568
-0.004339639
-0.020162857
-0.01930908
-0.0045829683
-0.02459745
-0.021044595
0.01889475
0.012288878
0.015444454
-0.0062592448
0.012673767
0.014339407
0.0016633008
0.0069713034
0.0073877033
0.024668487
0.012976599
-0.0051976509
-0.010088497
0.0010805627
0.0001407801
-0.014203128
0.0054677592
0.0035329199
0.012609607
0.025647189
0.026096917
0.04604585
0.045926882
0.009075517
0.0025522942
-0.0001439288
0.0096506809
0.0059194586
-0.0060346572
-0.0077238493
0.0077337102
0.0083510612
0.022038934
0.058868609
0.046849638
0.014367317
0.022082601
-0.01021576
0.027682988
0.011723625
0.0036128987
-0.0090441225
-0.0097093295
-0.0084973954
0.0027854013
0.016231514
0.02295391
0.0084427063
-0.0013314897
-0.0086890253
-0.021643164
-0.0143475
0.032241177
0.016883243
-0.0024915408
-0.0086908407
-0.0025939015
0.0058105196
0.0047531365
0.0076357722
-0.001618265
-0.0011882786
-0.016973773
-0.025567182
-0.025050355
)
;
    }
    bottomWater_to_heater
    {
        type            calculated;
        value           nonuniform List<scalar> 
92
(
-0.010873273
0.0051128417
0.0085796725
0.020758697
-0.012137341
0.0068173864
0.012673293
0.015424769
-0.012564071
0.0039196392
0.02624155
0.019299022
353.45542
353.45654
353.45135
353.46414
274.47298
274.43682
274.43091
274.46019
196.26328
196.28157
196.29569
196.21853
117.69797
117.65972
117.67141
117.65411
-0.012666283
39.227334
-0.027816494
39.212184
-0.0064511736
39.233549
0.0037170321
39.243717
353.4472
353.45441
274.43693
274.42046
196.29365
196.28524
117.6782
117.67768
39.218955
39.241565
353.44116
353.46122
353.45732
353.46082
353.45682
353.46019
274.42751
274.46773
274.45904
274.44582
274.43386
274.41659
196.28354
196.27229
196.27386
196.29015
196.30389
196.29486
117.67318
117.6444
117.65336
117.67918
117.70172
117.69305
39.229912
39.236002
39.227839
39.224606
39.247306
39.236188
-0.0039981507
-0.012161482
-0.015393835
-0.0038115408
0.059529148
0.020465901
-0.0076009121
0.0039078171
-0.0018163558
-0.0038269216
-0.0035828983
0.0079462842
-0.017733074
-0.021289771
0.0012154164
0.002287324
)
;
    }
}


// ************************************************************************* //
