/*--------------------------------*- C++ -*----------------------------------*\
| =========                 |                                                 |
| \\      /  F ield         | OpenFOAM: The Open Source CFD Toolbox           |
|  \\    /   O peration     | Version:  v2012                                 |
|   \\  /    A nd           | Website:  www.openfoam.com                      |
|    \\/     M anipulation  |                                                 |
\*---------------------------------------------------------------------------*/
FoamFile
{
    version     2.0;
    format      ascii;
    class       volScalarField;
    location    "550/bottomWater";
    object      p_rgh;
}
// * * * * * * * * * * * * * * * * * * * * * * * * * * * * * * * * * * * * * //

dimensions      [1 -1 -2 0 0 0 0];


internalField   nonuniform List<scalar> 
1460
(
0.29942913
0.29663236
0.30388178
0.2821297
0.29471964
0.28342153
0.28727484
0.28648793
0.28633136
0.28962311
0.27433128
0.28817452
0.28444998
0.29506238
0.28909303
0.28756994
0.28869174
0.29568205
0.28237922
0.28692617
0.28795746
0.29796293
0.30289871
0.30740169
0.30740355
0.30408458
0.30254687
0.30667115
0.30297873
0.30803918
-0.26900289
-0.25218007
-0.23382639
-0.24385368
-0.24402643
-0.24547747
-0.25283025
-0.26282172
-0.25989756
-0.26372063
-0.25202118
-0.21737613
-0.19910729
-0.2157109
-0.24119215
-0.26371809
-0.26616591
-0.26533646
-0.26348957
-0.23036543
-0.19412799
-0.18249857
-0.18343493
-0.19858679
-0.22912301
-0.28835414
-0.27915756
-0.24675327
-0.2607896
-0.27755012
0.083019365
0.06601874
0.056589647
0.094202332
0.11251021
0.097409778
0.093614282
0.10424694
0.11747419
0.087671816
0.060591847
0.038631997
0.062771738
0.073582802
0.066764101
0.085090525
0.11023986
0.10326365
0.05864876
0.036055968
0.048835289
0.05958423
0.060380329
0.066772584
0.034594738
0.080253634
0.11105747
0.10132391
0.098189299
0.11937415
-0.034249601
-0.11012131
-0.079169485
-0.076278538
-0.031488428
-0.060584419
-0.067630123
-0.055134819
-0.03990359
-0.045949582
-0.076961238
-0.07295179
-0.045959423
-0.053615229
-0.091845563
-0.063852544
-0.054027166
-0.029344819
-0.055226668
-0.061967537
-0.053184536
-0.03050026
-0.029657051
-0.048847758
-0.084202573
-0.057614984
-0.054602197
-0.071771123
-0.084852352
-0.038405731
0.028094726
0.022802251
0.0075631002
-0.020882536
-0.010728331
-0.0026499187
0.0084229622
0.012294516
0.021213625
0.018749808
0.012363529
-0.0024169768
-0.010649977
-0.010873273
0.0051128417
0.0085796725
0.020758697
0.024034434
0.018493171
0.011143537
-0.005147736
-0.0099497407
-0.0028851412
-0.01240857
0.0033444892
0.0090042951
0.010141691
0.035207963
0.041374337
0.030541233
0.30445955
0.29759526
0.31681731
0.28635823
0.30438331
0.28804674
0.2896371
0.28245007
0.28874419
0.29315259
0.2809428
0.29590005
0.28488348
0.29595791
0.29669376
0.28955893
0.28988683
0.29595506
0.29444555
0.28449893
0.29161005
0.30249999
0.30547665
0.31782919
0.30800773
0.31604471
0.30652481
0.325008
0.31149083
0.31396722
-0.27067672
-0.2629166
-0.19963757
-0.21857073
-0.21352689
-0.21721001
-0.2348195
-0.25784899
-0.26638848
-0.26984826
-0.25603277
-0.21654723
-0.21369922
-0.20416287
-0.21612199
-0.26188772
-0.27882021
-0.27091582
-0.26531768
-0.26040585
-0.23161529
-0.20735748
-0.20475733
-0.21574737
-0.25641079
-0.27885392
-0.25866875
-0.23044997
-0.24912002
-0.28035982
0.073395635
0.046188239
0.034225235
0.072059123
0.059650963
0.058349236
0.049188033
0.065135669
0.097223303
0.08924367
0.055267522
0.040546797
0.071050713
0.065300369
0.036013539
0.069552201
0.076749771
0.11628571
0.078277938
0.046685993
0.034584981
0.048136331
0.047865999
0.032897799
0.048686843
0.070299674
0.11175723
0.038891025
0.07343347
0.10129847
-0.034348412
-0.11622225
-0.082552929
-0.082496043
-0.046680434
-0.06236169
-0.075467664
-0.08196764
-0.040907179
-0.041346774
-0.094699073
-0.087435809
-0.058299296
-0.049289355
-0.080187491
-0.077303504
-0.052779338
-0.036100895
-0.036194264
-0.071320289
-0.055255751
-0.036883895
-0.043779866
-0.054691102
-0.089567081
-0.027122901
-0.063874077
-0.052291994
-0.07724278
-0.03892021
0.031440491
0.021578891
0.012899136
-0.016196079
-0.015625972
-0.0033746922
0.018094222
0.02426854
0.027311431
0.026862175
0.020667692
0.0089622716
-0.010064951
-0.012137341
0.0068173864
0.012673293
0.015424769
0.024002514
0.017883575
0.011007209
-0.003309789
-0.015022293
-0.014315638
-0.010943664
0.001830066
0.018254885
0.0056478708
0.012395146
0.024981562
0.019026892
0.30562864
0.29859211
0.31766261
0.2919545
0.30909113
0.28859557
0.30595585
0.2860056
0.28994706
0.29622952
0.28210086
0.28644765
0.28516827
0.28531908
0.30435147
0.30236791
0.29544288
0.29244814
0.29302631
0.2899358
0.28308634
0.28916792
0.29565201
0.30332459
0.28293634
0.30860643
0.30408248
0.31870919
0.31981226
0.3174311
-0.26915051
-0.26145429
-0.19229065
-0.19227043
-0.18045906
-0.1800798
-0.17745909
-0.25367445
-0.26650951
-0.26721344
-0.26683604
-0.22961741
-0.21708726
-0.220775
-0.18152235
-0.2198401
-0.25586396
-0.26394381
-0.27038186
-0.269344
-0.27182458
-0.26269196
-0.24875421
-0.24679897
-0.25620164
-0.28027446
-0.27141032
-0.2338405
-0.23038814
-0.26609371
0.074557096
0.042000777
0.033550558
0.079458754
0.061413738
0.059061671
0.043211764
0.048694584
0.081692588
0.10817966
0.069016013
0.055191763
0.075117178
0.092286211
0.036343704
0.041463136
0.055441144
0.078875836
0.088415639
0.077084686
0.062787565
0.076106007
0.068106838
0.10193466
0.098982882
0.11827173
0.12478314
0.072234988
0.047475595
0.093775657
-0.033232131
-0.10086836
-0.083669849
-0.060817027
-0.035465467
-0.069782672
-0.062789389
-0.076528236
-0.044698436
-0.045936802
-0.078026312
-0.10167641
-0.060388271
-0.067604606
-0.099286663
-0.08287076
-0.092011926
-0.065396601
-0.022723218
-0.045021188
-0.078696029
-0.082766942
-0.094950168
-0.092559557
-0.091003199
-0.05440176
-0.032322351
-0.054833441
-0.076244182
-0.064170993
0.025475484
0.015106791
0.003889075
-0.018218426
-0.0099131712
-0.00037850048
0.012738196
0.01620235
0.016345178
0.028537145
0.0055240978
0.0001471329
-0.011232468
-0.012564071
0.0039196392
0.02624155
0.019299022
-0.00025037081
0.0097517604
0.0037415515
0.0020641223
-0.002895579
0.011488559
0.031980627
0.002379726
-0.0066534766
-0.0055601978
-0.021137641
-0.0016359656
0.0051547157
0.30254989
0.29309889
0.3083113
0.298663
0.30546909
0.29437494
0.29811791
0.28602928
0.29542579
0.29593375
0.29137369
0.29855699
0.29554446
0.295419
0.29653737
0.29134943
0.30413682
0.29295451
0.29367493
0.29266985
0.29364653
0.29605342
0.29778261
0.31137753
0.31767608
0.31749756
0.30383814
0.3111437
0.30763546
0.31055675
-0.26530848
-0.26784173
-0.209645
-0.18774742
-0.17948608
-0.185075
-0.21595984
-0.26049107
-0.2655962
-0.2644187
-0.26298215
-0.22048438
-0.20134263
-0.20701613
-0.24317976
-0.24909041
-0.21980562
-0.25733367
-0.26564848
-0.26831993
-0.28107379
-0.28772508
-0.29748309
-0.24973664
-0.21109541
-0.23725609
-0.26843168
-0.25982706
-0.28205358
-0.28281316
0.062941678
0.027398826
0.020234198
0.060178551
0.051124796
0.064873468
0.038858958
0.056778248
0.08154596
0.095485328
0.058590672
0.04287747
0.053060037
0.063283666
0.081572441
0.095692286
0.018528295
0.093905617
0.081017583
0.10847062
0.08351153
0.093271691
0.045089017
0.048779399
0.026980857
0.050912892
0.11707996
0.1042126
0.12724349
0.14461311
-0.043526221
-0.092557792
-0.079014453
-0.054314589
-0.019752939
-0.038370906
-0.05344076
-0.0555217
-0.026357595
-0.03472918
-0.06347276
-0.060523137
-0.027227596
-0.022030337
-0.060275575
-0.048593359
-0.065886113
-0.061823217
-0.046387632
-0.049334592
-0.038509135
-0.043438282
-0.049057645
-0.076366861
-0.075807942
-0.053732378
-0.052918047
-0.080827311
-0.073044699
-0.045346994
0.010509951
0.0022074492
-0.0076103775
-0.030531407
-0.014274637
-0.016264284
-0.012905691
-0.0022709643
0.0066592838
0.011779892
-0.0023821489
-0.01592909
-0.014002857
-0.012666283
-0.027816494
-0.0064511736
0.0037170321
0.01933874
0.013735654
0.01898742
0.014799058
0.013261977
0.0061946472
0.0071963326
-0.00056126591
-0.016177615
-0.00012307474
0.016656732
0.026305754
0.031073368
0.30292474
0.29795468
0.29874939
0.29741911
0.29727563
0.29302838
0.28342664
0.29331891
0.29118034
0.30243427
0.30547651
0.29121757
0.2872011
0.29441138
0.28726978
0.30768257
0.30496914
0.30668609
0.30241257
0.30257687
0.31279448
0.3132256
0.32082678
0.32507801
0.31897649
0.32104615
-0.27067863
-0.28632063
-0.25347252
-0.23018366
-0.20780551
-0.2172547
-0.25624944
-0.25747425
-0.25030723
-0.2145381
-0.19322277
-0.24589538
-0.24307441
-0.25954091
-0.25169342
-0.24353629
-0.28025037
-0.27415308
-0.28995708
-0.2831829
-0.22392124
-0.21089692
-0.22299776
-0.24230585
-0.2919776
-0.28406366
0.11611365
0.061097822
0.046926531
0.042968
0.050497716
0.036967008
0.0632716
0.074402007
0.10585137
0.062231643
0.035642843
0.075017789
0.093646741
0.085240933
0.065894082
0.044262097
0.095476321
0.11570043
0.10445547
0.072224103
0.046936175
0.0647412
0.059106195
0.032929734
0.070545221
0.10966896
-0.039943117
-0.057163563
-0.093402568
-0.063145574
-0.048412241
-0.05072582
-0.054945639
-0.024106981
-0.058417007
-0.058130995
-0.073790257
-0.065237446
-0.041799141
-0.04231699
-0.068137371
-0.064722483
-0.050009118
-0.040403225
-0.058229808
-0.08989268
-0.097718618
-0.075110667
-0.054772619
-0.088456332
-0.068305089
-0.051798862
0.023698469
0.011784308
0.0081526093
-0.015103129
-0.021567858
-0.0038240144
-0.014251568
-0.004339639
-0.020162857
-0.01930908
-0.0045829683
-0.02459745
-0.021044595
0.0015645324
0.01502525
0.021489655
0.018356919
0.025820396
0.022414587
0.011572428
0.0067404143
-0.010047766
-0.015197997
0.011963415
0.0065188038
0.025750711
0.29505381
0.2913013
0.29152243
0.28699111
0.28777334
0.28381323
0.28610902
0.2896382
0.28539323
0.30142949
0.28708521
0.27575511
0.28115574
0.2968242
0.29464115
0.30949887
0.29417307
0.30774128
0.30811136
0.31094492
0.32230482
0.32243659
0.31357941
0.32465522
0.30359771
0.31336413
-0.27335673
-0.27430793
-0.2515496
-0.2642215
-0.24170152
-0.25308119
-0.26278917
-0.26824645
-0.25487207
-0.20407655
-0.21775515
-0.25629474
-0.25249107
-0.2461422
-0.23347549
-0.20689476
-0.26785407
-0.27428311
-0.28670422
-0.31357244
-0.22994077
-0.19911241
-0.21448812
-0.19562281
-0.22969121
-0.24323985
0.11735986
0.087998004
0.081529528
0.07813637
0.067092413
0.064562613
0.081288465
0.076869238
0.054563352
0.031047726
0.027398874
0.051897004
0.08354108
0.1038887
0.067950044
0.051096093
0.059453646
0.090767695
0.11219023
0.058885629
0.026920476
0.046334603
0.076267161
0.087145714
0.093994224
0.10813276
-0.048939241
-0.06773762
-0.08693503
-0.057489842
-0.077230047
-0.08553898
-0.059964301
-0.041412665
-0.084503619
-0.070111177
-0.07874527
-0.081068457
-0.046821897
-0.01828308
-0.034201774
-0.043096665
-0.061862537
-0.034760431
-0.036781958
-0.064857379
-0.1000714
-0.082759228
-0.06823664
-0.051955035
-0.11120948
-0.11855721
0.01889475
0.012288878
0.015444454
-0.0062592448
0.012673767
0.014339407
0.0016633008
0.0069713034
0.0073877033
0.024668487
0.012976599
-0.0051976509
-0.010088497
0.0073061627
-0.0034812447
0.00555819
0.015597436
0.02414949
0.032950397
0.0086531136
0.010575251
-0.0056066974
-0.020182144
-0.004371923
-0.0082093522
0.030096976
0.29810799
0.2945609
0.30799768
0.28785132
0.28880532
0.28780769
0.29052666
0.28810101
0.28694407
0.28148658
0.2878203
0.2899005
0.29507007
0.30122355
0.29731938
0.30081767
0.30019
0.3044738
0.30915167
0.31000419
0.31022492
0.30121729
0.30796483
0.30869826
0.31053477
0.31715189
0.30496778
0.32226244
0.31182002
0.31094557
-0.2681029
-0.25435479
-0.22073188
-0.24299801
-0.26393501
-0.27432666
-0.26886326
-0.27484232
-0.24844964
-0.25363838
-0.26121918
-0.26751894
-0.23538963
-0.21227018
-0.22096167
-0.23418343
-0.2634123
-0.23278598
-0.20196394
-0.18924692
-0.22492216
-0.27156921
-0.28118182
-0.28595996
-0.25207178
-0.22006094
-0.25702398
-0.20869892
-0.22968359
-0.24274453
0.083256231
0.049277932
0.055988642
0.063650334
0.070721241
0.085356006
0.12193164
0.092435629
0.10085394
0.095545504
0.10134972
0.084234865
0.084528675
0.072293436
0.07385907
0.09015258
0.09486479
0.074707585
0.062489901
0.071038668
0.039037463
0.050413369
0.088540975
0.073823054
0.074531493
0.066401081
0.11539914
0.07173702
0.064734761
0.084843535
-0.046738789
-0.071792189
-0.044750776
-0.068788138
-0.048955717
-0.045944574
-0.039346339
-0.031289553
-0.085065342
-0.077604285
-0.057170815
-0.048126175
-0.095746417
-0.075603048
-0.066635425
-0.040817783
-0.026945088
-0.036190316
-0.036751969
-0.049075884
-0.057758287
-0.086595239
-0.035955642
-0.060364321
-0.12257443
-0.089740547
-0.069643509
-0.056660142
-0.10038268
-0.10493694
0.0010805627
0.0001407801
-0.014203128
0.0054677592
0.0035329199
0.012609607
0.025647189
0.026096917
0.04604585
0.045926882
0.009075517
0.0025522942
-0.0001439288
-0.0039981507
-0.012161482
-0.015393835
-0.0038115408
-0.020921784
-0.017354459
-0.011739141
0.0086195111
0.021825807
0.030987102
0.017862871
0.017338239
-0.00071211316
-0.015861225
-0.012374185
-0.011269184
0.021680583
0.299111
0.29690172
0.30725179
0.29715188
0.28734815
0.28258091
0.284883
0.2885078
0.28525432
0.28706838
0.28768974
0.28427405
0.28557438
0.29124245
0.28997884
0.29391004
0.2984058
0.29215088
0.31163515
0.31837256
0.30414292
0.30456116
0.31223167
0.31122168
0.31591098
0.28941248
0.30221086
0.30051088
0.30251929
0.303143
-0.2665272
-0.24708903
-0.20359939
-0.21229319
-0.24150735
-0.26754044
-0.26807369
-0.25481079
-0.25627928
-0.26896457
-0.27057564
-0.27528791
-0.25242777
-0.24641658
-0.25139106
-0.26277166
-0.26430087
-0.25455239
-0.22168417
-0.20032775
-0.26093751
-0.27033869
-0.28626312
-0.27753596
-0.23464409
-0.25416125
-0.25856526
-0.26398388
-0.2623911
-0.28461247
0.087106674
0.04668783
0.060802015
0.053005719
0.043397663
0.07498852
0.10335969
0.10680355
0.10060704
0.10035801
0.11808352
0.091190395
0.097852634
0.10396787
0.10609351
0.10954548
0.089415959
0.061409223
0.022235426
0.042378051
0.04604993
0.090309556
0.095785552
0.084850967
0.045422968
0.10073204
0.10302186
0.11106979
0.096377073
0.11592417
-0.047563862
-0.089530622
-0.038159402
-0.048488201
-0.082124258
-0.062506458
-0.048606851
-0.078549894
-0.07747626
-0.04368194
-0.047546175
-0.070333808
-0.1067146
-0.10662911
-0.10564547
-0.0628764
-0.035867121
-0.066297737
-0.055633167
-0.052607169
-0.057947801
-0.040875911
-0.055138574
-0.10359052
-0.10378372
-0.072433503
-0.064384006
-0.081355229
-0.11356769
-0.059326916
0.0096506809
0.0059194586
-0.0060346572
-0.0077238493
0.0077337102
0.0083510612
0.022038934
0.058868609
0.046849638
0.014367317
0.022082601
-0.01021576
0.027682988
0.059529148
0.020465901
-0.0076009121
0.0039078171
0.0073819475
0.0095579276
0.014060227
0.0094269526
0.014729095
0.031641625
0.014516803
0.0016317316
-0.0038793166
-0.010408096
0.0033654699
0.021202952
0.017100092
0.31041198
0.31207555
0.30906917
0.30129734
0.2900165
0.29173661
0.29324132
0.29800902
0.29730953
0.2914175
0.29363243
0.29705303
0.3128217
0.31225868
0.30118648
0.30036133
0.29833941
0.29909032
0.30155479
0.29144126
0.30123652
0.29915817
0.30004448
0.31008076
0.30777488
0.3116102
0.3075804
0.30133574
0.30431102
0.30791943
-0.27006309
-0.23356989
-0.20385289
-0.20940159
-0.24594347
-0.26361499
-0.25231834
-0.22617948
-0.22714557
-0.26913953
-0.27380679
-0.25475529
-0.19475222
-0.19602854
-0.25211265
-0.27950452
-0.27464633
-0.28109753
-0.27093452
-0.2649607
-0.27123909
-0.27697246
-0.26319917
-0.22756416
-0.20603119
-0.20581081
-0.23453304
-0.26232572
-0.29277914
-0.27834994
0.083213692
0.03565251
0.066599847
0.049548834
0.060564765
0.055463309
0.091229776
0.027546126
0.049601735
0.084843678
0.057890408
0.050640112
0.036214771
0.039239251
0.071045087
0.079928526
0.104795
0.098650037
0.096060974
0.083762277
0.10150286
0.078344978
0.054691676
0.023443805
0.059317602
0.061144867
0.023160638
0.070252506
0.079352433
0.13849226
-0.049599969
-0.10226813
-0.05480018
-0.04019952
-0.076658753
-0.032494596
-0.061106542
-0.059781533
-0.064516871
-0.033960544
-0.042326485
-0.078311851
-0.084080289
-0.086566834
-0.076833204
-0.041297379
-0.048410919
-0.047637004
-0.084733702
-0.092289626
-0.043273056
-0.058455356
-0.10475967
-0.09482312
-0.062271696
-0.055126316
-0.088786652
-0.091362082
-0.060725085
-0.044182665
0.011723625
0.0036128987
-0.0090441225
-0.0097093295
-0.0084973954
0.0027854013
0.016231514
0.02295391
0.0084427063
-0.0013314897
-0.0086890253
-0.021643164
-0.0143475
-0.0018163558
-0.0038269216
-0.0035828983
0.0079462842
0.010659489
0.031247661
0.036008976
0.010711788
0.012049405
0.015854759
0.0038084834
-0.012777647
-0.013530172
0.012696594
0.017931551
0.018916898
0.031252484
0.30417916
0.30377633
0.30761635
0.29372617
0.30157463
0.27648803
0.29093938
0.2886457
0.29095125
0.28209491
0.29740281
0.29762426
0.30140209
0.29850014
0.2932121
0.30046015
0.30868804
0.2975326
0.30455805
0.29913387
0.29712943
0.29207241
0.29283016
0.29937402
0.31038581
0.30278319
0.32009379
0.2957056
0.300828
0.30473641
-0.26814948
-0.25338143
-0.22250725
-0.20789236
-0.213844
-0.25366876
-0.26114961
-0.25150394
-0.25773114
-0.25352583
-0.2168437
-0.19420964
-0.19095498
-0.20880165
-0.24281507
-0.19607028
-0.20668641
-0.26846385
-0.27784498
-0.27196543
-0.25749452
-0.24878505
-0.241309
-0.22698254
-0.19709858
-0.18402151
-0.18021376
-0.26057126
-0.28179611
-0.26935514
0.097367796
0.059317664
0.072101962
0.072063606
0.038444582
0.051871679
0.084290736
0.1020964
0.086949292
0.064206873
0.038038788
0.065906495
0.077410912
0.083602258
0.11065008
0.04383805
0.048934333
0.07301884
0.072418058
0.10279746
0.07701959
0.085678788
0.068875535
0.070097108
0.057359931
0.073406065
0.028363261
0.056462474
0.07972535
0.12744707
-0.029037724
-0.11271951
-0.067910572
-0.053829962
-0.053130098
-0.06965047
-0.035307242
-0.042917847
-0.03372917
-0.046837342
-0.044719692
-0.032184933
-0.036333603
-0.049460334
-0.03477199
-0.055083235
-0.041603792
-0.061908084
-1.1207023e-06
-0.0088176444
-0.088961141
-0.12379001
-0.10402374
-0.081017116
-0.041631665
-0.045344921
-0.074404828
-0.082951285
-0.058309159
-0.042429719
0.032241177
0.016883243
-0.0024915408
-0.0086908407
-0.0025939015
0.0058105196
0.0047531365
0.0076357722
-0.001618265
-0.0011882786
-0.016973773
-0.025567182
-0.025050355
-0.017733074
-0.021289771
0.0012154164
0.002287324
-0.0017774824
0.0079343309
0.0072082499
-0.010359701
0.042608287
0.044833468
-0.012683891
-0.0051460569
-0.0090145595
0.0020404643
0.01004155
0.01740218
0.026681875
)
;

boundaryField
{
    minX
    {
        type            fixedFluxPressure;
        gradient        uniform 0;
        value           nonuniform List<scalar> 
50
(
0.29942913
-0.26900289
0.083019365
-0.034249601
0.028094726
0.30445955
-0.27067672
0.073395635
-0.034348412
0.031440491
0.30562864
-0.26915051
0.074557096
-0.033232131
0.025475484
0.30254989
-0.26530848
0.062941678
-0.043526221
0.010509951
0.30292474
-0.27067863
0.11611365
-0.039943117
0.023698469
0.29505381
-0.27335673
0.11735986
-0.048939241
0.01889475
0.29810799
-0.2681029
0.083256231
-0.046738789
0.0010805627
0.299111
-0.2665272
0.087106674
-0.047563862
0.0096506809
0.31041198
-0.27006309
0.083213692
-0.049599969
0.011723625
0.30417916
-0.26814948
0.097367796
-0.029037724
0.032241177
)
;
    }
    maxX
    {
        type            fixedFluxPressure;
        gradient        uniform 0;
        value           nonuniform List<scalar> 
50
(
0.30803918
-0.27755012
0.11937415
-0.038405731
0.030541233
0.31396722
-0.28035982
0.10129847
-0.03892021
0.019026892
0.3174311
-0.26609371
0.093775657
-0.064170993
0.0051547157
0.31055675
-0.28281316
0.14461311
-0.045346994
0.031073368
0.32104615
-0.28406366
0.10966896
-0.051798862
0.025750711
0.31336413
-0.24323985
0.10813276
-0.11855721
0.030096976
0.31094557
-0.24274453
0.084843535
-0.10493694
0.021680583
0.303143
-0.28461247
0.11592417
-0.059326916
0.017100092
0.30791943
-0.27834994
0.13849226
-0.044182665
0.031252484
0.30473641
-0.26935514
0.12744707
-0.042429719
0.026681875
)
;
    }
    minY
    {
        type            fixedValue;
        value           uniform 0;
    }
    minZ
    {
        type            fixedFluxPressure;
        gradient        uniform 0;
        value           nonuniform List<scalar> 
150
(
0.29942913
-0.26900289
0.083019365
-0.034249601
0.028094726
0.29663236
-0.25218007
0.06601874
-0.11012131
0.022802251
0.30388178
-0.23382639
0.056589647
-0.079169485
0.0075631002
0.2821297
-0.24385368
0.094202332
-0.076278538
-0.020882536
0.29471964
-0.24402643
0.11251021
-0.031488428
-0.010728331
0.28342153
-0.24547747
0.097409778
-0.060584419
-0.0026499187
0.28727484
-0.25283025
0.093614282
-0.067630123
0.0084229622
0.28648793
-0.26282172
0.10424694
-0.055134819
0.012294516
0.28633136
-0.25989756
0.11747419
-0.03990359
0.021213625
0.28962311
-0.26372063
0.087671816
-0.045949582
0.018749808
0.27433128
-0.25202118
0.060591847
-0.076961238
0.012363529
0.28817452
-0.21737613
0.038631997
-0.07295179
-0.0024169768
0.28444998
-0.19910729
0.062771738
-0.045959423
-0.010649977
0.29506238
-0.2157109
0.073582802
-0.053615229
-0.010873273
0.28909303
-0.24119215
0.066764101
-0.091845563
0.0051128417
0.28756994
-0.26371809
0.085090525
-0.063852544
0.0085796725
0.28869174
-0.26616591
0.11023986
-0.054027166
0.020758697
0.29568205
-0.26533646
0.10326365
-0.029344819
0.024034434
0.28237922
-0.26348957
0.05864876
-0.055226668
0.018493171
0.28692617
-0.23036543
0.036055968
-0.061967537
0.011143537
0.28795746
-0.19412799
0.048835289
-0.053184536
-0.005147736
0.29796293
-0.18249857
0.05958423
-0.03050026
-0.0099497407
0.30289871
-0.18343493
0.060380329
-0.029657051
-0.0028851412
0.30740169
-0.19858679
0.066772584
-0.048847758
-0.01240857
0.30740355
-0.22912301
0.034594738
-0.084202573
0.0033444892
0.30408458
-0.28835414
0.080253634
-0.057614984
0.0090042951
0.30254687
-0.27915756
0.11105747
-0.054602197
0.010141691
0.30667115
-0.24675327
0.10132391
-0.071771123
0.035207963
0.30297873
-0.2607896
0.098189299
-0.084852352
0.041374337
0.30803918
-0.27755012
0.11937415
-0.038405731
0.030541233
)
;
    }
    maxZ
    {
        type            fixedFluxPressure;
        gradient        uniform 0;
        value           nonuniform List<scalar> 
150
(
0.30417916
-0.26814948
0.097367796
-0.029037724
0.032241177
0.30377633
-0.25338143
0.059317664
-0.11271951
0.016883243
0.30761635
-0.22250725
0.072101962
-0.067910572
-0.0024915408
0.29372617
-0.20789236
0.072063606
-0.053829962
-0.0086908407
0.30157463
-0.213844
0.038444582
-0.053130098
-0.0025939015
0.27648803
-0.25366876
0.051871679
-0.06965047
0.0058105196
0.29093938
-0.26114961
0.084290736
-0.035307242
0.0047531365
0.2886457
-0.25150394
0.1020964
-0.042917847
0.0076357722
0.29095125
-0.25773114
0.086949292
-0.03372917
-0.001618265
0.28209491
-0.25352583
0.064206873
-0.046837342
-0.0011882786
0.29740281
-0.2168437
0.038038788
-0.044719692
-0.016973773
0.29762426
-0.19420964
0.065906495
-0.032184933
-0.025567182
0.30140209
-0.19095498
0.077410912
-0.036333603
-0.025050355
0.29850014
-0.20880165
0.083602258
-0.049460334
-0.017733074
0.2932121
-0.24281507
0.11065008
-0.03477199
-0.021289771
0.30046015
-0.19607028
0.04383805
-0.055083235
0.0012154164
0.30868804
-0.20668641
0.048934333
-0.041603792
0.002287324
0.2975326
-0.26846385
0.07301884
-0.061908084
-0.0017774824
0.30455805
-0.27784498
0.072418058
-1.1207023e-06
0.0079343309
0.29913387
-0.27196543
0.10279746
-0.0088176444
0.0072082499
0.29712943
-0.25749452
0.07701959
-0.088961141
-0.010359701
0.29207241
-0.24878505
0.085678788
-0.12379001
0.042608287
0.29283016
-0.241309
0.068875535
-0.10402374
0.044833468
0.29937402
-0.22698254
0.070097108
-0.081017116
-0.012683891
0.31038581
-0.19709858
0.057359931
-0.041631665
-0.0051460569
0.30278319
-0.18402151
0.073406065
-0.045344921
-0.0090145595
0.32009379
-0.18021376
0.028363261
-0.074404828
0.0020404643
0.2957056
-0.26057126
0.056462474
-0.082951285
0.01004155
0.300828
-0.28179611
0.07972535
-0.058309159
0.01740218
0.30473641
-0.26935514
0.12744707
-0.042429719
0.026681875
)
;
    }
    bottomWater_to_rightSolid
    {
        type            fixedFluxPressure;
        gradient        uniform 0;
        value           nonuniform List<scalar> 
130
(
0.024034434
0.018493171
0.011143537
-0.005147736
-0.0099497407
-0.0028851412
-0.01240857
0.0033444892
0.0090042951
0.010141691
0.035207963
0.041374337
0.030541233
0.024002514
0.017883575
0.011007209
-0.003309789
-0.015022293
-0.014315638
-0.010943664
0.001830066
0.018254885
0.0056478708
0.012395146
0.024981562
0.019026892
-0.00025037081
0.0097517604
0.0037415515
0.0020641223
-0.002895579
0.011488559
0.031980627
0.002379726
-0.0066534766
-0.0055601978
-0.021137641
-0.0016359656
0.0051547157
0.01933874
0.013735654
0.01898742
0.014799058
0.013261977
0.0061946472
0.0071963326
-0.00056126591
-0.016177615
-0.00012307474
0.016656732
0.026305754
0.031073368
0.0015645324
0.01502525
0.021489655
0.018356919
0.025820396
0.022414587
0.011572428
0.0067404143
-0.010047766
-0.015197997
0.011963415
0.0065188038
0.025750711
0.0073061627
-0.0034812447
0.00555819
0.015597436
0.02414949
0.032950397
0.0086531136
0.010575251
-0.0056066974
-0.020182144
-0.004371923
-0.0082093522
0.030096976
-0.020921784
-0.017354459
-0.011739141
0.0086195111
0.021825807
0.030987102
0.017862871
0.017338239
-0.00071211316
-0.015861225
-0.012374185
-0.011269184
0.021680583
0.0073819475
0.0095579276
0.014060227
0.0094269526
0.014729095
0.031641625
0.014516803
0.0016317316
-0.0038793166
-0.010408096
0.0033654699
0.021202952
0.017100092
0.010659489
0.031247661
0.036008976
0.010711788
0.012049405
0.015854759
0.0038084834
-0.012777647
-0.013530172
0.012696594
0.017931551
0.018916898
0.031252484
-0.0017774824
0.0079343309
0.0072082499
-0.010359701
0.042608287
0.044833468
-0.012683891
-0.0051460569
-0.0090145595
0.0020404643
0.01004155
0.01740218
0.026681875
)
;
    }
    bottomWater_to_leftSolid
    {
        type            fixedFluxPressure;
        gradient        uniform 0;
        value           nonuniform List<scalar> 
130
(
0.028094726
0.022802251
0.0075631002
-0.020882536
-0.010728331
-0.0026499187
0.0084229622
0.012294516
0.021213625
0.018749808
0.012363529
-0.0024169768
-0.010649977
0.031440491
0.021578891
0.012899136
-0.016196079
-0.015625972
-0.0033746922
0.018094222
0.02426854
0.027311431
0.026862175
0.020667692
0.0089622716
-0.010064951
0.025475484
0.015106791
0.003889075
-0.018218426
-0.0099131712
-0.00037850048
0.012738196
0.01620235
0.016345178
0.028537145
0.0055240978
0.0001471329
-0.011232468
0.010509951
0.0022074492
-0.0076103775
-0.030531407
-0.014274637
-0.016264284
-0.012905691
-0.0022709643
0.0066592838
0.011779892
-0.0023821489
-0.01592909
-0.014002857
0.023698469
0.011784308
0.0081526093
-0.015103129
-0.021567858
-0.0038240144
-0.014251568
-0.004339639
-0.020162857
-0.01930908
-0.0045829683
-0.02459745
-0.021044595
0.01889475
0.012288878
0.015444454
-0.0062592448
0.012673767
0.014339407
0.0016633008
0.0069713034
0.0073877033
0.024668487
0.012976599
-0.0051976509
-0.010088497
0.0010805627
0.0001407801
-0.014203128
0.0054677592
0.0035329199
0.012609607
0.025647189
0.026096917
0.04604585
0.045926882
0.009075517
0.0025522942
-0.0001439288
0.0096506809
0.0059194586
-0.0060346572
-0.0077238493
0.0077337102
0.0083510612
0.022038934
0.058868609
0.046849638
0.014367317
0.022082601
-0.01021576
0.027682988
0.011723625
0.0036128987
-0.0090441225
-0.0097093295
-0.0084973954
0.0027854013
0.016231514
0.02295391
0.0084427063
-0.0013314897
-0.0086890253
-0.021643164
-0.0143475
0.032241177
0.016883243
-0.0024915408
-0.0086908407
-0.0025939015
0.0058105196
0.0047531365
0.0076357722
-0.001618265
-0.0011882786
-0.016973773
-0.025567182
-0.025050355
)
;
    }
    bottomWater_to_heater
    {
        type            fixedFluxPressure;
        gradient        uniform 0;
        value           nonuniform List<scalar> 
92
(
-0.010873273
0.0051128417
0.0085796725
0.020758697
-0.012137341
0.0068173864
0.012673293
0.015424769
-0.012564071
0.0039196392
0.02624155
0.019299022
0.295419
0.29653737
0.29134943
0.30413682
-0.20701613
-0.24317976
-0.24909041
-0.21980562
0.063283666
0.081572441
0.095692286
0.018528295
-0.022030337
-0.060275575
-0.048593359
-0.065886113
-0.012666283
-0.012666283
-0.027816494
-0.027816494
-0.0064511736
-0.0064511736
0.0037170321
0.0037170321
0.2872011
0.29441138
-0.24307441
-0.25954091
0.093646741
0.085240933
-0.041799141
-0.04231699
-0.021044595
0.0015645324
0.28115574
0.30122355
0.29731938
0.30081767
0.2968242
0.30019
-0.25249107
-0.21227018
-0.22096167
-0.23418343
-0.2461422
-0.2634123
0.08354108
0.072293436
0.07385907
0.09015258
0.1038887
0.09486479
-0.046821897
-0.075603048
-0.066635425
-0.040817783
-0.01828308
-0.026945088
-0.010088497
-0.0039981507
-0.012161482
-0.015393835
0.0073061627
-0.0038115408
-0.0039981507
-0.012161482
-0.015393835
-0.0038115408
0.059529148
0.020465901
-0.0076009121
0.0039078171
-0.0018163558
-0.0038269216
-0.0035828983
0.0079462842
-0.017733074
-0.021289771
0.0012154164
0.002287324
)
;
    }
}


// ************************************************************************* //
