/*--------------------------------*- C++ -*----------------------------------*\
| =========                 |                                                 |
| \\      /  F ield         | OpenFOAM: The Open Source CFD Toolbox           |
|  \\    /   O peration     | Version:  v2012                                 |
|   \\  /    A nd           | Website:  www.openfoam.com                      |
|    \\/     M anipulation  |                                                 |
\*---------------------------------------------------------------------------*/
FoamFile
{
    version     2.0;
    format      ascii;
    class       volVectorField;
    location    "550/bottomWater";
    object      U;
}
// * * * * * * * * * * * * * * * * * * * * * * * * * * * * * * * * * * * * * //

dimensions      [0 1 -1 0 0 0 0];


internalField   nonuniform List<vector> 
1460
(
(-0.00067022632 -0.016623068 -0.00046917331)
(-0.0023693919 -0.016794662 -0.00068619807)
(-0.0004137847 -0.011912121 -0.0018445967)
(0.0020837704 -0.014605819 -0.0027541238)
(0.0013464884 -0.016539177 -0.0030554229)
(0.0029594307 -0.016196479 -0.0027028697)
(0.0028355971 -0.01618666 -0.0023430614)
(0.0026719023 -0.015604283 -0.0014593419)
(0.001473364 -0.015877771 -0.0010936573)
(0.0014566754 -0.014734832 -0.00085634238)
(-0.0011633559 -0.01195407 -0.00028211634)
(-0.0015935316 -0.011411041 -0.00026347287)
(0.0012851556 -0.01116557 0.00033130892)
(0.0026221035 -0.012310753 -0.0002082743)
(0.0035730849 -0.01513492 -0.00082597259)
(0.0033367682 -0.015233205 -0.00076933658)
(0.0015205682 -0.015928974 -0.00064280924)
(0.0019637371 -0.016617545 8.3117293e-05)
(-0.0015681298 -0.011400771 0.00035675295)
(-0.0025990363 -0.010874027 0.0016152734)
(-0.0022212323 -0.012208855 0.0012608638)
(-0.00060279943 -0.012483795 0.00079132532)
(0.0013229209 -0.012672519 0.00075361709)
(0.0031744136 -0.012608449 0.0004655183)
(0.0044357522 -0.013382393 0.00046367851)
(0.0045099431 -0.014977195 -0.00044866005)
(0.0020670916 -0.016603771 -0.00061385605)
(0.0015125614 -0.01516102 -0.0013095146)
(0.0025970226 -0.016407003 -0.00093859552)
(0.00030728564 -0.016396347 -0.0003005885)
(-0.0056377181 0.018510264 0.00017172921)
(-0.0064614354 0.016903409 -4.5292784e-05)
(-0.0042521352 0.0062781144 -0.00093208768)
(0.0012036896 0.015957647 -0.0046405624)
(0.001484495 0.01718452 -0.004577846)
(0.0034077538 0.017292353 -0.004281865)
(0.004694521 0.017700013 -0.0037631803)
(0.0047429543 0.017580049 -0.0028241243)
(0.0026438387 0.017656672 -0.0013591286)
(-0.0027288995 0.01680172 0.00051390018)
(-0.0039455878 0.014372671 0.00055930515)
(0.00012367604 0.0056993099 0.00017314407)
(0.0023990096 0.0033142836 0.00036260475)
(0.0052259425 0.0060749758 -0.00017710565)
(0.0078270077 0.015130032 -0.0013463369)
(0.0076675063 0.017008336 -0.001371488)
(0.0053772534 0.017744456 -0.00099893349)
(-0.00010333722 0.018196115 0.0003292556)
(-0.0045003723 0.014048119 0.00089231342)
(-0.0010692124 0.0055838176 0.00097859277)
(-0.0017247671 0.0047155599 0.0018851292)
(0.0015268077 0.0020871431 0.00090908997)
(0.0028772453 0.0022792796 0.00073912492)
(0.0056884051 0.0035459933 0.0013364292)
(0.0072471024 0.0070542983 0.0010689711)
(0.0092374898 0.015172471 0.00073369236)
(0.0025120165 0.018058557 -0.0007573423)
(0.00017235398 0.013191437 3.9576532e-05)
(0.0044783529 0.017737336 -0.00080964541)
(0.0039349264 0.018119516 -0.00048039757)
(-0.0042427302 0.005941865 0.00063199654)
(0.0056133767 -0.015253075 0.0029027939)
(-0.0053588381 -0.014970882 0.0019757592)
(-0.004093468 -0.009762525 0.00079154406)
(0.00043304857 -0.0095264582 0.0015721226)
(0.0035328806 -0.010899598 0.0013937883)
(0.0031626031 -0.0079141305 0.00081498999)
(0.0027202756 -0.001584375 -2.4110818e-06)
(0.0033719351 0.0019497862 -0.00029312306)
(0.0034798932 -0.0018363429 -9.2071063e-05)
(0.0067991663 -0.01234612 -0.00014509996)
(0.0052461411 -0.014289301 -0.00016314655)
(0.002448239 -0.013471154 -0.00035259168)
(0.0025906146 -0.013647 0.00043250442)
(0.0012927207 -0.013874751 0.001869415)
(0.0024790462 -0.0021988288 0.00033178398)
(0.0035242511 0.003505834 0.00030573889)
(0.0032812873 0.0036279348 -0.00017397082)
(0.0061334619 -0.0069190801 -0.00094327604)
(0.0060235787 -0.013438801 -0.0015832144)
(0.0022742374 -0.013689994 -0.00053679396)
(0.0021401159 -0.013355249 -0.00045320385)
(0.0016245437 -0.013585619 -0.00051330892)
(0.0037229201 -0.013263507 0.00094737255)
(-0.00093317851 -0.015372787 -0.0016529368)
(0.0013170917 -0.0019387433 0.000927266)
(0.0014118036 0.0025598391 -0.00037912585)
(0.002469903 -0.015265742 0.0027919512)
(-0.0040579207 -0.015416662 0.0014916234)
(0.0021054087 0.0031008135 2.8053515e-05)
(0.00099628832 0.0085489534 0.00063105014)
(0.0058574285 0.011597336 0.0011695413)
(-0.0039994345 0.010704383 0.00073255047)
(8.1380765e-05 0.0030252409 -0.00012702173)
(9.4542087e-05 -0.0010695732 0.00052369836)
(0.0025611789 0.0066055196 0.00017312393)
(0.0011556024 0.009651753 0.0012821562)
(6.2404634e-06 0.0083171558 0.0013942086)
(0.0023511358 0.0086724867 4.9239874e-05)
(0.0052955543 0.0077916844 -0.00048935275)
(0.0066626288 0.010307653 -2.2275573e-05)
(0.0039377486 0.0085195854 0.00029166125)
(0.0041176829 0.00013628561 -0.00016883764)
(0.0033867487 -0.00021067172 -5.6303199e-05)
(0.001864796 0.0085997922 -8.8178115e-06)
(-0.0020444608 0.0077804971 0.00092929093)
(0.0011578669 0.0092176461 0.00028677837)
(0.0031875988 0.0085367022 0.00013778624)
(0.0059269605 0.0085702738 -0.0012312041)
(0.0047137964 0.0097779738 -0.00076299405)
(0.0024500052 0.0056438002 -0.0007377105)
(0.003071881 -0.0015922631 -0.00094778749)
(0.0018744543 -0.0041194716 -0.0011464402)
(0.0028767217 -0.00015706263 -0.00082082062)
(-0.0015951736 0.0096011062 -0.0015592601)
(-0.001820129 0.007596775 -0.0012305649)
(0.002408535 0.0091113665 0.00051134862)
(0.0047380814 0.012652839 -0.0001217901)
(-0.0042236734 0.013034086 6.6723339e-05)
(-0.0013931748 0.0084641598 -4.4655095e-05)
(0.0016198719 0.00010114777 -4.510346e-05)
(0.0049303786 -0.0046156981 0.00019774308)
(0.0062551439 -0.0069639811 -0.00028098863)
(0.0069939824 -0.0096935773 -0.000714241)
(0.0016873764 -0.010590353 -0.00041727029)
(-0.0042293208 -0.010305236 -0.00011215281)
(-0.0023586892 -0.004818789 -4.8599912e-05)
(-0.0018016076 -0.0025516097 7.8193465e-05)
(0.0013751869 -0.00089569566 -0.00056525028)
(0.0035243414 -0.0040631179 -0.0010947873)
(0.0057501259 -0.0065745759 -0.0012064118)
(0.0069816236 -0.0096037945 -0.0015488366)
(0.0064865854 -0.010868895 -0.001299785)
(-0.002050479 -0.0095983272 0.00035684247)
(-0.0034932965 -0.0062718071 0.00086492018)
(-0.0028059731 -0.0016295465 0.00094830127)
(0.00034915551 0.0011984796 0.00083146037)
(0.0028404707 -9.5753391e-05 0.00029922667)
(0.004882305 -0.0032343986 -0.00031925316)
(0.0064731867 -0.0057807735 -0.00061040251)
(0.0073145653 -0.0084998787 -0.0011177208)
(0.0057262089 -0.0095649226 -0.0015276129)
(0.0001259839 -0.0096177622 -0.0018759585)
(-0.0039345139 -0.0075074848 -0.0014363263)
(-0.0039933064 -0.0045842754 -0.00063598799)
(-0.0019460634 -0.0018024922 -0.00039429498)
(-0.0013678362 -0.0030238796 0.0018197589)
(-0.0016536435 -0.0054352157 0.0019853767)
(-0.0021601676 -0.0051806841 0.0013053096)
(-0.00030916854 -0.0010971403 0.00086711076)
(-0.000986316 -0.017235878 -0.001109571)
(-0.0035613496 -0.015817087 -0.0012309508)
(-0.0013276478 -0.012890437 -0.0015618713)
(0.0012545483 -0.01285605 -0.003309982)
(0.00080455677 -0.012459522 -0.0027762038)
(0.0033432907 -0.012441963 -0.0025196633)
(0.0037555872 -0.013813985 -0.0031435257)
(0.0035074548 -0.014235526 -0.0024686422)
(0.00091297882 -0.015391671 -0.0021135015)
(-0.00063352788 -0.016145848 -0.0018182185)
(-0.0026414291 -0.013981934 -0.00072577999)
(-0.002388592 -0.013084397 0.00026359669)
(-0.00067333685 -0.012783967 0.00045995013)
(0.0011139006 -0.012240609 0.00059799917)
(0.0032570775 -0.013289198 -0.0014677373)
(0.003846574 -0.014713541 -0.0020917356)
(0.0022579351 -0.015321316 -0.002424783)
(0.0012221142 -0.017459195 -0.0013924683)
(-5.895575e-05 -0.014728 0.0002463387)
(-0.0027284114 -0.01169661 0.0023580229)
(-0.0030300212 -0.010897158 0.0026845973)
(-0.0011000826 -0.011536546 0.0026392663)
(0.00060378742 -0.011996506 0.0029107762)
(0.0026305085 -0.012556147 0.0022169636)
(0.0029893795 -0.016535326 0.0024221934)
(0.0028751864 -0.019683555 0.0013161267)
(-0.0016680502 -0.016876825 0.00044088345)
(0.00045311067 -0.011819513 0.00019059132)
(0.0033167268 -0.015525137 -0.0014258506)
(0.0011431718 -0.017020227 -0.0013964168)
(-0.0063419798 0.018811294 -0.00035678742)
(-0.0077920246 0.015314382 -0.0001049395)
(-0.0026281074 0.0014075036 -0.00043114023)
(-0.0010461119 0.0087058966 -0.00318363)
(0.00046953477 0.0047202678 -0.0014360907)
(0.0030086933 0.0069632368 -0.0016405081)
(0.0044032228 0.010698724 -0.0022678002)
(0.0060044133 0.015907417 -0.0024349293)
(0.0040264082 0.01747598 -0.0015988228)
(-0.0050326922 0.017950856 0.0009861548)
(-0.006205278 0.015482703 0.0014406889)
(-0.002695088 0.0078693953 0.00067444095)
(-0.00065076829 0.0083522061 0.0016000883)
(0.0028247807 0.0046599705 0.0010184012)
(0.0048224781 0.0075821828 -0.0004381127)
(0.0074633128 0.015101873 -0.0025822528)
(0.0054793302 0.017454151 -0.0035244229)
(0.0021280393 0.019030043 -0.0025248596)
(-0.0032138222 0.017034071 0.0026849058)
(-0.0039522119 0.013788306 0.0041870151)
(-0.0012631879 0.0047292607 0.0026625763)
(0.00071634686 0.00069934601 0.0019672451)
(0.0030081854 0.0019138567 0.0025826038)
(0.0045418974 0.0032036151 0.0013056441)
(0.0083280997 0.015570397 0.00098749873)
(0.0048563456 0.020733777 -0.00055717294)
(-0.0055777716 0.016170771 -0.00071485867)
(0.00094428375 -0.0025769715 0.0010327061)
(0.0032534044 0.01243751 -0.0010452069)
(0.0045008566 0.018177087 -0.00165641)
(-0.0043556928 0.0070936104 -8.2391914e-05)
(0.0065088027 -0.014571742 0.0021642103)
(-1.9712678e-05 -0.015806878 0.0020878618)
(-0.0029801876 -0.013226336 0.00076567931)
(0.00025391177 -0.013738514 0.0025996306)
(0.0013496431 -0.013881513 0.0036006788)
(-0.00060540001 -0.015766345 0.005016176)
(-0.0021844958 -0.011033988 0.0036101481)
(0.0019361013 0.0040388162 9.4684286e-05)
(-0.001527766 0.0046490239 -7.0304185e-05)
(0.0042950391 -0.011026135 -0.00086885148)
(0.0012897929 -0.015377026 -0.00095204159)
(6.4507393e-05 -0.01358199 0.00062655196)
(0.002798146 -0.013540794 0.0012880003)
(-0.00032907553 -0.015436994 0.0037466133)
(-0.00035709184 -0.0097799139 0.00098130816)
(0.0012593074 0.0016682606 -0.0009007743)
(0.001578204 0.0036477936 -0.0014673301)
(0.0025129976 0.0011993525 -6.5075262e-06)
(0.005252622 -0.010682026 -0.0020536573)
(0.0036878786 -0.014227257 -0.0017148465)
(0.002333184 -0.014267498 -0.0016505921)
(0.0029081966 -0.014078391 -0.00028549097)
(0.0011434239 -0.014928503 -0.0011444188)
(-1.6699409e-05 -0.010652942 -0.0027574433)
(0.00065154841 0.0075658073 -0.0019603734)
(0.0040486604 -0.01072855 -0.00057570145)
(0.0017821283 -0.015845309 0.0017774321)
(-0.0065111427 -0.01555387 0.0025543987)
(0.001509844 -9.9187981e-05 -0.00084905983)
(0.00092419259 0.0090425081 -0.00021048117)
(0.0062268254 0.010633471 -0.0012617084)
(-0.00018435142 0.011554371 -0.00081736573)
(-0.00029806161 0.0037727286 -0.0015487323)
(-0.00069495438 -0.0040996584 0.00029776781)
(-0.00027489459 0.0044802398 0.0014794455)
(-0.0011252721 0.011445474 0.0014395967)
(-0.0041452464 0.010241213 0.0020492743)
(-0.00087271074 0.0086596634 0.00021905988)
(0.0021362759 0.0085740971 -0.00062099743)
(0.005934726 0.010111107 -0.0016681763)
(0.00091616185 0.010986829 0.0005146364)
(0.0019509201 0.00038193834 0.00076925235)
(0.0005122818 -0.00095781682 0.0021794646)
(-3.8694737e-05 0.010274135 0.0030095706)
(-0.0040753013 0.0092914366 0.0027801036)
(-0.0016647387 0.0077644389 0.0016155409)
(0.00067393944 0.0091525458 0.0005144996)
(0.0039456354 0.0074897759 -0.0013333325)
(0.0053140393 0.0092975737 -0.0017711039)
(0.002821267 0.0067031669 0.00029877003)
(0.0030916391 -0.00071813698 0.00038021972)
(0.002020079 -0.00088629363 0.0010554871)
(0.0020784477 0.0047924184 0.0026142261)
(-0.0045985996 0.010000137 -0.00046249618)
(-0.00089088583 0.0096972434 -0.0015296794)
(0.0027462385 0.0081274444 0.0010418349)
(0.0012710941 0.0094723294 0.0011629144)
(-0.0039041072 0.01235032 0.0010127007)
(-0.0025005122 0.0077264947 0.0010422166)
(0.0019395109 0.0019792026 -0.00019350656)
(0.004897443 -0.0049824826 -0.00025908937)
(0.0056614354 -0.004639765 -0.00035019826)
(0.0073224437 -0.0081555935 -0.00045456816)
(0.00052830966 -0.0098079026 3.2920034e-05)
(-0.0065581612 -0.0087941727 0.00065566179)
(-0.0044226781 -0.0049300599 0.00071559389)
(-0.0032754091 -0.0043749636 0.00074327155)
(-0.00096999367 0.00079902525 0.00045241654)
(0.0023644284 0.00014691542 -0.001162713)
(0.0050744585 -0.0034026121 -0.00097384829)
(0.0061524319 -0.0057279052 -0.00077514471)
(0.0067693945 -0.0088651987 -0.00046176967)
(-0.0030540501 -0.0096098849 0.0014877334)
(-0.0042876419 -0.0077837338 0.0013055996)
(-0.0034057372 -0.0054188189 0.00031874728)
(-0.0019314947 -0.0011038587 0.0013088536)
(0.0012698874 0.00076219274 0.0021378238)
(0.0035816911 -0.0023996977 0.00083608756)
(0.0053510323 -0.0055527353 5.4770339e-05)
(0.0062123499 -0.0088340903 -0.0013795388)
(0.0043678652 -0.010329903 -0.0028762231)
(-0.0011686467 -0.0086446163 -0.0037936995)
(-0.0028662187 -0.0077745485 -0.0023554351)
(-0.0040614385 -0.0070694007 0.0016296206)
(-0.00041446078 -0.0034895943 0.0024875602)
(-0.0019108936 -0.01077176 0.004858818)
(-0.0037884892 -0.0099193668 0.0057750057)
(-0.0028572305 -0.007024748 0.0042651044)
(-0.00060155385 -0.004738393 0.0033487553)
(-0.0014718864 -0.017159163 0.00027275757)
(-0.0038958705 -0.015738479 -0.00011513799)
(-0.0022692026 -0.013080709 -0.00062726797)
(-0.00036878962 -0.012315594 -0.0024959752)
(0.00018113944 -0.013425957 -0.0014374241)
(0.0018822481 -0.013442138 -0.0020131592)
(0.002476316 -0.012970837 -0.0011886675)
(0.0044061317 -0.012651852 -0.0012752699)
(0.0019187573 -0.014793081 -0.0014816987)
(-0.00051988208 -0.017937988 -0.0018583104)
(-0.0020763432 -0.014497175 -0.0014831414)
(-0.0030652722 -0.013665746 -0.00084234986)
(-0.0016897562 -0.012847331 -0.0011094658)
(-0.0017284961 -0.013683878 -0.00048052869)
(0.00038698753 -0.012956333 -0.00082562008)
(0.0030079298 -0.014639205 -0.001216001)
(0.0023741605 -0.016308542 -0.0028206929)
(0.0019545161 -0.017837602 -0.0022942357)
(-0.0002470462 -0.01659531 -0.00086444073)
(-0.0012176808 -0.014035806 0.00114532)
(-0.0023006498 -0.01362647 0.0029824097)
(-0.0023067586 -0.015261945 0.0036264864)
(-0.0014846499 -0.016983881 0.0037302834)
(-0.00026921119 -0.018370096 0.0027325598)
(-0.0010044327 -0.013655431 -0.00015193417)
(0.00092597785 -0.019536731 0.00055879994)
(-0.0019140469 -0.017705192 0.0023938536)
(-1.6259922e-05 -0.01154754 0.0023544568)
(0.0020660781 -0.012457811 0.00069352782)
(0.0017655494 -0.016358325 0.0010581283)
(-0.0066874134 0.018449304 -0.00070559241)
(-0.0079895063 0.014145606 -0.00070771138)
(-0.0038692428 0.0015314654 -0.00092492357)
(-0.0017434116 0.0036629035 -0.0021048856)
(-0.00059913894 0.0026844358 -0.0014024219)
(0.001965958 0.0060260534 -0.0021519785)
(0.0022067632 0.00012703102 0.00017195867)
(0.0059888483 0.0096677768 0.00027281993)
(0.005593318 0.016143437 -0.00026512189)
(-0.0033657486 0.019059694 -0.0010436292)
(-0.0069081048 0.015892668 -1.3612868e-05)
(-0.0052338404 0.010583352 -0.00038010501)
(-0.0028632803 0.0087424427 -3.9417543e-06)
(-0.00076977378 0.010717725 0.0004598565)
(0.00075699236 0.0010390274 -0.00020127589)
(0.0027354384 0.0076439291 -0.0012064766)
(0.0042627206 0.016369535 -0.0046503576)
(0.0043256304 0.019443051 -0.0040196495)
(0.0017836507 0.018956048 -0.0018812623)
(-0.0026589242 0.016763975 0.0039992596)
(-0.0019568921 0.015495345 0.0059716637)
(-0.00086691618 0.014264346 0.0060446061)
(-0.00035901047 0.014699599 0.0066876841)
(0.00056682555 0.016876661 0.0030597897)
(0.001644794 0.013265083 -0.0015917242)
(0.0017759808 0.01971069 -0.0025690229)
(-0.0050715622 0.018171906 0.0022004244)
(0.0016481088 0.0031989175 0.0012835231)
(0.002377183 0.005455966 -0.00077656476)
(0.004760843 0.016854802 -0.00037481539)
(-0.0042425836 0.0058767579 -0.00035466065)
(0.0065606587 -0.01442638 -0.00047688252)
(0.00013846619 -0.015360292 -0.00091504984)
(-0.00083559479 -0.012658207 -0.00042618566)
(6.0910166e-05 -0.013685912 0.0004067167)
(0.0025201517 -0.013566714 -0.00012447198)
(-0.0025591552 -0.01521078 0.0015007971)
(-0.0049408579 -0.01323843 0.0005267781)
(-9.5780505e-05 0.0010662065 0.00023684853)
(-0.0020213222 0.007205468 -0.001326623)
(-0.00036799311 -0.0016097217 -0.00027095915)
(-0.00011473638 -0.015126967 -0.001894399)
(-0.0024530602 -0.013487792 0.00034433673)
(0.0028051395 -0.013223371 0.0011290755)
(0.00070518997 -0.014838193 -0.00088823692)
(-0.0049559454 -0.016801677 0.00086790465)
(-0.005114985 -0.015704795 0.0026256207)
(-0.002659071 -0.010293991 -0.0015190636)
(0.0019517541 0.0044014234 -0.0018985813)
(0.00036301126 0.0019822438 0.00017644178)
(0.0020635353 -0.013010311 -0.0033803083)
(0.0021076963 -0.015596151 -0.0048165343)
(-0.00029254509 -0.017492738 -0.0027205505)
(-0.00039400743 -0.018385585 -0.0017565376)
(-0.0039326238 -0.013285576 0.0028183351)
(-0.002651071 -0.0049844346 0.0005360828)
(0.0021645529 -0.01045953 0.0014829091)
(0.0048901761 -0.013484378 8.7742191e-06)
(-0.00030824223 -0.014937646 -0.0031842343)
(-0.00061701423 -0.0053379186 -0.0031763589)
(0.00062152537 0.0084071528 -6.1467096e-05)
(0.0061244154 0.010083431 -0.0025505934)
(-0.0025739963 0.010653753 -0.0020421358)
(0.0017661614 -0.0019303286 -0.0006285129)
(-0.0017263017 -0.0047720379 -0.00025634368)
(0.0018090849 0.0071205121 -0.0019181167)
(-0.0025839956 0.010319286 -0.0035469968)
(-0.0043621292 0.0092323833 -0.0029958776)
(-0.0024996056 0.0076733436 -0.00093993027)
(2.6879542e-05 0.010658522 -0.001721236)
(0.0041492663 0.0077159881 -0.0027252564)
(0.0013450148 0.0094234595 -0.0033522394)
(0.00071626069 -0.00036360838 -0.0011163951)
(-0.00019767504 0.00043922483 0.0011863774)
(0.0014766433 0.010702264 -0.00017959961)
(-0.0035574105 0.011931096 -0.00011268266)
(-0.0049859195 0.01136571 0.00017384972)
(-0.0055535361 0.0092503061 0.00072265073)
(0.0003260251 0.0089928447 -0.0013315485)
(0.0039758132 0.0080766684 -0.0011354469)
(0.0058805216 0.0086651121 -0.002017487)
(0.0049158669 0.0083327035 -0.0021797718)
(0.0046658409 0.011223032 -0.001896051)
(0.00018160746 0.013040079 0.0015306301)
(-0.0046837743 0.0085048725 0.0023149724)
(-0.0020448146 0.0024659888 0.0031184693)
(0.00078809801 -0.00067520018 0.0021514428)
(0.00038588743 -0.0010832409 0.0031420727)
(-0.00035087512 0.0094617172 -0.00037745547)
(-0.0015400227 0.009015248 -0.0014458037)
(0.0017964586 0.00098407388 0.0013737017)
(0.0049630523 -0.0049560645 0.0010785965)
(0.0061364053 -0.0076828342 0.0013616136)
(0.0067162777 -0.0096920498 0.0016208672)
(-0.0028943693 -0.0095093193 0.0011929835)
(-0.0059155205 -0.0078937424 0.0013433904)
(-0.0041252877 -0.0032146534 0.00063642815)
(-0.0031513083 -0.0047249408 0.0010705091)
(-0.0024012986 -0.00054359101 0.00088789155)
(0.0010944808 0.0039790621 -0.00086753913)
(0.0046072097 -0.00069584853 -0.0004929156)
(0.0050572312 -0.005350552 0.00021795836)
(0.0042826283 -0.0088843848 0.00091272473)
(-0.0055423935 -0.009010756 0.0028288433)
(-0.0050815945 -0.0052336165 0.0027724262)
(-0.0038403352 -0.0018178463 0.0016725495)
(-0.00075249808 -0.002928243 0.0014781624)
(0.0019425587 -0.011975376 0.0016037456)
(-0.0010371253 -0.0079482542 -0.00060175245)
(0.0025116329 -0.0044124315 -0.0018743041)
(0.0026742146 -0.010073293 -0.0031451568)
(0.00045757432 -0.011399831 -0.0045862661)
(-0.000817034 -0.0066293496 -0.0037143185)
(0.001764032 -0.0006569959 -0.00078398249)
(0.0054673826 -0.0086641913 -0.00096904846)
(0.0042676566 -0.010290811 0.0014314393)
(0.00065037747 -0.011480515 0.002991462)
(-0.0040800678 -0.011043077 0.0021001089)
(-0.0044436675 -0.0099396258 0.00042668754)
(-0.0018639167 -0.004702347 -0.0011687166)
(-0.001443502 -0.015610297 0.0013325402)
(-0.0041742957 -0.013407617 0.0012539311)
(-0.0037867512 -0.011937312 0.0013693138)
(-0.0021533878 -0.012436681 0.0012694445)
(-0.00086306926 -0.012843123 0.0019774208)
(0.0021776792 -0.01230302 0.0017212945)
(0.0029707961 -0.011464505 0.0023275418)
(0.0033832267 -0.013339739 0.0014563325)
(-0.00049836942 -0.017352328 0.00037438602)
(-0.0019250332 -0.017293394 -0.0012420357)
(-0.0031432337 -0.014608205 -0.00053800491)
(-0.0036043466 -0.012080468 0.001053148)
(-0.0021489129 -0.011365666 0.001412087)
(0.00077094879 -0.011145124 0.00014193244)
(0.0030564999 -0.016700441 0.00095694968)
(-0.00060381969 -0.01803372 0.00010242608)
(-0.00021887041 -0.010897244 -0.0025512306)
(0.0014990814 -0.016397058 -0.0024595284)
(-0.002039409 -0.015906082 -0.0016297232)
(-0.0020689098 -0.014558387 -0.0024391378)
(-0.0029816886 -0.015061894 -0.00027473154)
(-0.0037864683 -0.015132158 0.00094344047)
(-0.0045362106 -0.015517399 0.001413803)
(-0.0044886057 -0.01622426 0.0010880274)
(-0.0031508012 -0.012033103 0.00017284991)
(0.0013806409 -0.010976006 -0.000317479)
(0.0019781186 -0.015482363 -0.00095956373)
(0.00094990758 -0.018403574 0.00012926098)
(0.0017054079 -0.017163668 0.00079720984)
(5.8865698e-05 -0.01650325 0.00077911517)
(-0.0057087778 0.01754525 0.00071629389)
(-0.0079327475 0.013579422 0.00062227413)
(-0.004730983 0.0013917507 -0.00038790568)
(-0.0035317838 0.001975791 0.0013770216)
(-0.0014126038 -0.00028909113 0.0010883591)
(0.002113272 0.0016820395 0.0020048901)
(0.0024268683 0.0022479516 0.00081580149)
(0.0066589037 0.013985676 0.00078091982)
(0.0043414705 0.01868472 -0.00032133792)
(-0.0023066422 0.017856291 -0.0037176701)
(-0.0065186878 0.014738341 -0.0025280731)
(-0.0049565491 0.0050402704 0.00039537374)
(-0.0031383558 -0.00073950739 0.0015221289)
(0.00030825654 0.0015370834 0.0010937242)
(0.0046650597 0.0163522 0.0039421293)
(-0.00026317341 0.019279073 0.0019409941)
(4.9188038e-05 -7.4166517e-05 -0.0019206547)
(0.0037813334 0.016942455 -0.0025009446)
(0.00062857416 0.018132682 -0.0032259834)
(0.00022407266 0.016353498 -0.0018832765)
(-0.0010799215 0.017622135 0.0043093538)
(-0.0021909559 0.017358087 0.0051944502)
(-0.0052970925 0.017599182 0.0055864613)
(-0.0061357975 0.013880616 0.003945618)
(-0.0036248606 0.00088336723 0.0017670269)
(-0.00063169065 0.0010918201 -5.3812477e-05)
(0.0031462126 0.016199717 -0.0030278619)
(0.0036282413 0.01942944 -4.3504244e-05)
(0.0044748205 0.018475919 0.0032256896)
(0.0029446207 0.017960962 0.0025502598)
(-0.0026205432 0.004416072 -0.0011933104)
(0.0050534394 -0.012577272 -0.0032108174)
(4.7411021e-05 -0.015268272 -0.0039384575)
(-0.001989747 -0.012990575 -0.00042647922)
(-0.0010647388 -0.014219798 -0.00018260788)
(-0.00070565879 -0.013263698 -0.00012894126)
(-0.0034177325 -0.013888108 -0.0035444729)
(-0.0049488452 -0.011859173 -0.0032132386)
(0.00056827168 0.00049777754 -0.0015877708)
(-7.7241216e-05 0.0022117207 -0.0010853291)
(0.00055429116 -0.0045861938 -0.00026642597)
(0.0004284574 -0.013490241 -0.0017997727)
(-0.0028901088 -0.014332714 0.00059654782)
(-0.002614832 -0.0133343 0.0015652285)
(-0.0017403746 -0.0076526488 -0.00071101894)
(0.004893027 -0.0054942053 -0.0017979317)
(-0.00081611802 -0.014904159 -0.00074798339)
(-0.004860025 -0.012774769 -0.0030505274)
(0.00047372737 -0.0036943176 -0.0017611697)
(0.00018172591 -0.0016815364 0.00027344089)
(7.4100996e-05 0.0018866068 0.0021005522)
(0.00082762632 0.00053772418 0.0028545667)
(-0.0016115047 0.0017265647 0.0030743817)
(0.00399027 -0.01578196 0.0023349951)
(-0.0035891146 -0.015218337 0.0035005235)
(-0.0043070284 -0.014330554 0.0028756603)
(-0.0037043995 -0.015093068 0.0043979919)
(0.0014600753 -0.014783139 0.0038158461)
(-0.0010380514 -0.0070921715 0.0015337879)
(0.0014985862 0.0025443189 0.0015010131)
(0.0014052368 0.0077143874 -0.00088623339)
(0.005182355 0.0090076118 -0.0035835387)
(-0.001293967 0.0097755304 -0.0017558437)
(0.00029278166 -0.0016470065 -0.0018516228)
(-0.00063307272 -0.0052187085 -0.00056801611)
(-0.0011548952 -0.0010480429 -0.00066225108)
(-0.0020535893 0.0066628868 -0.0027288108)
(-0.0036329425 0.0065752465 -0.0039866947)
(-0.0017495109 0.0069479088 -0.00075115505)
(0.0019348935 0.0082009603 -0.00014336375)
(0.0030817844 0.0074674818 -0.00088987355)
(0.00089192386 0.0024224624 -0.0011206613)
(-0.0017056359 -0.0041758767 0.0013649231)
(-0.0016059562 -0.0028025386 0.0010526562)
(-0.0017310616 0.0020473859 0.00060775608)
(0.00325893 0.010018216 -0.0036019585)
(0.00016118984 0.011091034 -0.0054005825)
(-0.0029171434 0.011497941 -0.0027171991)
(-0.0014140748 0.0078248752 0.0016641842)
(-0.00068463468 0.0081713878 0.0013258747)
(-0.00033473868 0.0076230923 0.00023619595)
(0.0014260551 0.0078318062 -0.00019445992)
(0.0021436087 0.0065071474 -0.00029948938)
(0.0052430789 0.0095797624 -0.0014352392)
(-0.0023680436 0.0093797245 0.0013553735)
(0.0015984398 -0.0046978719 -1.2160046e-05)
(-0.0016398479 0.00070681146 0.0018430156)
(0.00093308423 0.010760452 0.0043067617)
(-0.0040551781 0.010365643 0.00059956466)
(-0.00057099764 0.0094773862 0.0007048793)
(0.002246017 -0.00056480001 -0.00055433794)
(0.004486924 -0.0061987205 -0.0010442505)
(0.0064750232 -0.0091502598 -0.0015269796)
(0.0064530478 -0.0095933938 -0.0019908546)
(0.00083653376 -0.0098991599 -0.001245243)
(-0.0041619399 -0.010175065 0.0010889829)
(-0.0044145304 -0.0098026863 0.0029526501)
(-0.003474081 -0.0086997531 0.0023213021)
(-0.0024092918 -0.0044464518 0.0027480755)
(0.0020162508 -0.0013582505 0.0030823649)
(0.0044884323 -0.0055668864 0.0019649289)
(0.005038426 -0.0084975349 0.0023649606)
(0.00155072 -0.0093000657 0.0026153697)
(-0.0047788156 -0.0094729768 0.0036341185)
(-0.006098644 -0.009632519 0.0038957782)
(-0.0059554378 -0.0098906989 0.0026987623)
(-0.0039884844 -0.010022515 0.0009408069)
(-0.002830285 -0.0058202317 -0.00071886303)
(-0.0015022544 -0.0034718772 0.0004415776)
(-0.00066993203 -0.00075455242 -0.00084622564)
(0.000763023 -0.00084207737 -0.0013177735)
(0.0013183213 -0.0012240329 -0.0022704084)
(0.0019996884 -0.0025680847 -0.0020995594)
(0.0037473659 -0.0054649728 -0.000861684)
(0.0052189919 -0.0088724374 -0.0014714066)
(0.0038685832 -0.010480942 -0.0014138438)
(-0.0056603186 -0.009830248 -0.00015688361)
(-0.0043288484 -0.0060142555 -0.0011652587)
(-0.0037025115 -0.0028081601 -0.00069361513)
(-0.00098532387 -0.0004759359 -0.0010871332)
(2.4030825e-05 -0.01612439 0.0023122917)
(-0.0021238853 -0.014987564 0.0028027806)
(-0.0025331774 -0.0156835 0.0037215319)
(-0.002138799 -0.012211986 0.0031555829)
(-0.001064709 -0.011580141 0.002912157)
(0.0020605434 -0.010860058 0.0023050633)
(0.0024905662 -0.012505043 0.0032688994)
(0.00038811895 -0.016113046 0.0018964344)
(-0.0025826653 -0.016215467 0.00088151518)
(-0.0012231328 -0.011053099 -0.0012708683)
(0.0020917552 -0.012515225 -0.00029193004)
(0.0024249954 -0.016464826 0.002096135)
(-7.8659658e-05 -0.01586526 0.0031434442)
(-0.00093880733 -0.015551036 -0.002502663)
(-0.0034754443 -0.013180555 -0.0026141465)
(-0.0016892876 -0.011310067 -0.0025241985)
(-0.0010090829 -0.016455832 -0.0014682822)
(-0.0032440565 -0.01716671 -0.0012532904)
(-0.0042799588 -0.015757272 -0.00065867955)
(-0.0051615491 -0.01498041 0.00036080302)
(-0.0043916898 -0.013971887 0.00040155731)
(-0.0024954389 -0.012541419 0.00010262936)
(0.00022802933 -0.011574804 0.00039378633)
(0.0023499668 -0.014945684 -0.0020988181)
(0.0027915676 -0.016014762 -0.0021479203)
(0.00084441616 -0.017324241 -0.0015964455)
(-0.0030103531 0.01795219 0.0023303165)
(-0.0063177341 0.017573068 0.0028167147)
(-0.0066674247 0.015467201 0.0031355362)
(-0.0040138174 0.0062500324 0.0021700692)
(-0.0014365684 0.0018751402 0.0012504016)
(0.00034508765 0.0017120595 0.0013535095)
(0.0046855222 0.013384411 0.0040325343)
(-0.00014640488 0.018104542 0.001619303)
(-0.0053960521 0.01633524 -0.0012016422)
(0.00054936496 0.00040050378 -0.0012433012)
(0.00066459874 0.0018684164 -7.6564529e-06)
(0.0044471644 0.016768787 0.0022676302)
(0.00078894776 0.016395681 0.0044975007)
(-0.002497192 0.017584556 -0.0035057711)
(-0.0026930909 0.014219469 -0.0038255186)
(0.0010077889 0.0031394941 -0.0014442771)
(0.0036246764 0.016900847 -0.0021669408)
(-0.0024054089 0.018820367 0.0011850151)
(-0.0058461015 0.017688998 0.0029130673)
(-0.0079735834 0.015680022 0.0037288258)
(-0.004839953 0.0080059386 0.001310015)
(-0.0022545739 0.0042797959 0.00052802401)
(0.0014544288 -0.00042741571 0.0016702509)
(0.0047975178 0.0098150279 -0.0013075816)
(0.0060616562 0.01691217 -0.0030483817)
(0.0029822633 0.01904561 -0.0042105526)
(0.00054275361 0.0044428126 -0.0003333787)
(-0.00054748899 0.0014889037 -0.00058813658)
(0.0023612423 -0.015902208 -0.0053445028)
(-0.0010091048 -0.01428497 -0.0029102591)
(-0.0005474539 -0.013901903 -0.0017284296)
(-0.0036589756 -0.013920301 -0.0020665444)
(-0.0042548142 -0.008847707 -0.0019931049)
(-0.0030233879 0.0014759309 0.00036737521)
(0.0024121512 -0.012602717 0.00012091593)
(0.004845184 -0.013230909 0.0016810672)
(-0.0018731874 -0.01518206 0.0027294544)
(-0.0053881211 -0.013367571 0.0011214146)
(-0.0013408993 -0.0053143471 0.0013451974)
(-0.000130479 -0.0018991091 -0.0032940534)
(0.005452422 -0.014756904 -0.0019565767)
(-0.0015144466 -0.013817657 0.0022182124)
(-0.0030676864 -0.0010342966 0.00056659868)
(-0.0022743599 0.0049161674 0.0011788664)
(-0.002014392 0.002941984 0.00020854207)
(0.00052793055 -0.0058596555 0.0020908295)
(0.002299847 -0.015300107 -0.00027888528)
(-0.0020233242 -0.013622377 0.0023207484)
(-9.8748636e-05 -0.01453423 0.004047691)
(-0.0011255771 -0.015848472 0.0022132394)
(-0.00056470446 -0.000460335 -0.00074438605)
(0.0005618198 0.0067164369 -0.002442105)
(0.0015994702 0.0093607045 -0.00023370913)
(0.0038642815 0.0073358838 -0.0014373986)
(0.003258223 0.010783076 -0.0014597122)
(-0.0017785126 0.0031073705 -0.0016693134)
(-0.0011159185 -0.0010457994 -0.00058311931)
(-0.0023154132 0.0063519707 0.00018887601)
(-0.0034014664 0.0052811307 -0.0025845963)
(-0.0008880231 0.0023826631 -0.0031273139)
(0.0023743105 0.00062209815 -0.0013293296)