/*--------------------------------*- C++ -*----------------------------------*\
| =========                 |                                                 |
| \\      /  F ield         | OpenFOAM: The Open Source CFD Toolbox           |
|  \\    /   O peration     | Version:  v2012                                 |
|   \\  /    A nd           | Website:  www.openfoam.com                      |
|    \\/     M anipulation  |                                                 |
\*---------------------------------------------------------------------------*/
FoamFile
{
    version     2.0;
    format      ascii;
    class       volScalarField;
    location    "240/rightSolid";
    object      T;
}
// * * * * * * * * * * * * * * * * * * * * * * * * * * * * * * * * * * * * * //

dimensions      [0 0 0 1 0 0 0];


internalField   nonuniform List<scalar> 
130
(
709.18631
716.09805
723.2883
730.43294
737.19535
743.36289
748.82523
753.51953
757.42219
760.53767
762.88055
764.44791
765.23667
704.19474
712.27294
720.47753
728.42755
735.7807
742.37722
748.14104
753.05138
757.09448
760.2995
762.69754
764.29794
765.10172
694.04921
704.82269
715.21519
724.78775
733.2941
740.6871
746.99295
752.26624
756.55161
759.91123
762.40207
764.05205
764.87627
678.73202
694.61351
708.54916
720.43812
730.46395
738.83224
745.76016
751.43084
755.97691
759.50511
762.09508
763.79824
764.64335
660.44697
684.75187
702.92229
717.07007
728.3796
737.49703
744.8786
750.82621
755.54908
759.19089
761.85059
763.59238
764.45227
660.29418
684.55824
702.70964
716.85498
728.17737
737.30372
744.69708
750.66178
755.40861
759.07223
761.74857
763.50248
764.36958
678.40032
694.15568
708.02414
719.87668
729.90565
738.29174
745.25164
750.96568
755.57388
759.15947
761.79553
763.52959
764.38714
693.71095
704.35067
714.62854
724.08178
732.52979
739.91498
746.24033
751.55679
755.91975
759.37178
761.93141
763.62543
764.46635
703.92397
711.86864
719.9396
727.72215
734.95793
741.49851
747.2704
752.22095
756.34787
759.64759
762.12176
763.76397
764.58101
708.99543
715.77729
722.82885
729.7894
736.397
742.47529
747.91801
752.65367
756.63552
759.84449
762.25625
763.86193
764.66388
)
;

boundaryField
{
    maxX
    {
        type            zeroGradient;
    }
    minZ
    {
        type            zeroGradient;
    }
    maxZ
    {
        type            zeroGradient;
    }
    rightSolid_to_bottomWater
    {
        type            compressible::turbulentTemperatureCoupledBaffleMixed;
        refValue        nonuniform List<scalar> 
130
(
958.72951
961.44091
960.29303
969.64851
974.16636
975.13554
976.01155
975.98853
975.40597
974.73957
976.05367
977.15336
978.44793
961.13731
963.33991
962.32834
972.58019
974.30425
975.33661
975.33007
977.54509
976.44231
975.16409
975.95191
977.36815
978.72916
960.95293
964.14974
964.04342
972.46526
973.85214
974.59373
975.2027
977.18887
976.8993
975.30129
975.48895
976.18344
976.73912
959.09447
965.80719
965.75766
968.15183
972.83397
973.7244
973.39495
974.14006
974.16908
973.9162
973.66474
973.55376
973.33715
946.39486
956.62608
960.53267
963.85885
971.81348
972.39018
972.65759
972.1044
971.57268
971.05076
970.71213
970.57264
969.65493
936.71595
948.52236
953.30701
957.96577
969.3983
969.73839
969.84844
969.31577
970.28707
970.35899
970.08971
970.19493
969.82493
946.51037
947.30453
949.41836
952.60765
962.2223
964.79995
966.24526
967.40841
970.63569
970.8231
971.17732
971.66407
970.92357
952.69344
955.19101
955.3283
955.38243
957.73781
961.74127
962.61747
963.58157
965.21277
968.8103
970.05077
971.57761
971.41375
956.04546
957.27291
957.86829
957.66288
957.52558
957.79635
961.68118
962.48853
964.79772
966.45318
969.4202
970.30724
970.0087
957.91697
959.17463
960.2785
960.38862
960.17062
959.54328
960.25882
962.40052
963.67576
966.42612
967.98909
968.42786
968.56414
)
;
        refGradient     uniform 0;
        valueFraction   nonuniform List<scalar> 
130
(
0.0075140686
0.0075140686
0.0075140686
0.0075140686
0.0075140686
0.0075140686
0.0075140686
0.0075140686
0.0075140686
0.0075140686
0.0075140686
0.0075140686
0.0075140686
0.0075140686
0.0075140686
0.0075140686
0.0075140686
0.0075140686
0.0075140686
0.0075140686
0.0075140686
0.0075140686
0.0075140686
0.0075140686
0.0075140686
0.0075140686
0.0075140686
0.0075140686
0.0075140686
0.0075140686
0.0075140686
0.0075140686
0.0075140686
0.0075140686
0.0075140686
0.0075140686
0.0075140686
0.0075140686
0.0075140686
0.0075140686
0.0075140686
0.0075140686
0.0075140686
0.0075140686
0.0075140686
0.0075140686
0.0075140686
0.0075140686
0.0075140686
0.0075140686
0.0075140686
0.0075140686
0.0075140686
0.0075140686
0.0075140686
0.0075140686
0.0075140686
0.0075140686
0.0075140686
0.0075140686
0.0075140686
0.0075140686
0.0075140686
0.0075140686
0.0075140686
0.0075140686
0.0075140686
0.0075140686
0.0075140686
0.0075140686
0.0075140686
0.0075140686
0.0075140686
0.0075140686
0.0075140686
0.0075140686
0.0075140686
0.0075140686
0.0075140686
0.0075140686
0.0075140686
0.0075140686
0.0075140686
0.0075140686
0.0075140686
0.0075140686
0.0075140686
0.0075140686
0.0075140686
0.0075140686
0.0075140686
0.0075140686
0.0075140686
0.0075140686
0.0075140686
0.0075140686
0.0075140686
0.0075140686
0.0075140686
0.0075140686
0.0075140686
0.0075140686
0.0075140686
0.0075140686
0.0075140686
0.0075140686
0.0075140686
0.0075140686
0.0075140686
0.0075140686
0.0075140686
0.0075140686
0.0075140686
0.0075140686
0.0075140686
0.0075140686
0.0075140686
0.0075140686
0.0075140686
0.0075140686
0.0075140686
0.0075140686
0.0075140686
0.0075140686
0.0075140686
0.0075140686
0.0075140686
0.0075140686
0.0075140686
0.0075140686
)
;
        value           nonuniform List<scalar> 
130
(
711.05392
717.93387
725.0612
732.22217
738.96754
745.09585
750.52358
755.18228
759.0511
762.13806
764.47313
766.03692
766.82944
706.11813
714.15193
722.28697
730.25399
737.56464
744.11915
749.83945
754.72937
758.73366
761.9049
764.29076
765.88972
766.69765
696.04775
706.764
717.07726
726.64085
735.09344
742.43623
748.69907
753.94748
758.19832
761.52061
763.99409
765.63683
766.459
680.83205
696.64423
710.47439
722.29161
732.27698
740.58883
747.46201
753.0955
757.60748
761.10717
763.67571
765.3652
766.20232
662.58939
686.78795
704.85069
718.91669
730.20069
739.25367
746.58157
752.48015
757.16339
760.77381
763.41091
765.13852
765.98504
662.36506
686.53493
704.58539
718.65899
729.98187
739.04193
746.38035
752.29606
757.01436
760.65089
763.30504
765.04652
765.9043
680.4084
696.05095
709.83071
721.61779
731.64331
739.98549
746.90374
752.5834
757.18109
760.74107
763.35992
765.08456
765.93008
695.6502
706.22845
716.42983
725.81216
734.21412
741.57366
747.85786
753.14146
757.48377
760.93681
763.48646
765.17917
766.01251
705.81149
713.70547
721.72004
729.44233
736.62248
743.11574
748.87327
753.79254
757.90568
761.19297
763.67077
765.30725
766.11588
710.85882
717.59898
724.60567
731.51454
738.07064
744.09836
749.50539
754.22142
758.18282
761.38826
763.79357
765.39043
766.18735
)
;
        Tnbr            T;
        thicknessLayers List<scalar> 0();
        kappaLayers     List<scalar> 0();
        kappaMethod     solidThermo;
        kappa           none;
        alphaAni        none;
        alpha           none;
        field           T;
    }
    rightSolid_to_topAir
    {
        type            compressible::turbulentTemperatureCoupledBaffleMixed;
        refValue        nonuniform List<scalar> 
130
(
470.1612
465.73874
461.5136
457.82172
454.80719
452.51284
450.95301
450.14982
450.15036
451.06395
453.14991
456.97655
463.28064
427.62985
422.85365
419.43805
417.05758
415.38933
414.2611
413.66245
413.67432
414.40693
416.04731
419.05633
424.50631
433.07376
431.92982
422.76687
415.03119
408.85434
404.13699
400.78277
398.77678
398.11634
398.72684
400.52027
403.62203
409.0729
420.95806
471.27707
471.59711
471.72543
471.12984
469.65731
467.42325
464.77298
462.06236
459.6755
458.83843
462.16017
469.87382
479.26183
474.10726
478.49479
483.05423
487.54328
491.73002
495.39691
498.37241
500.57732
502.10997
503.41338
505.46013
509.59058
517.60301
473.60851
478.07677
482.72796
487.33306
491.66917
495.51326
498.671
501.04524
502.73466
504.20731
506.44097
510.74163
518.96123
470.87992
471.37078
471.76274
471.5202
470.44713
468.55202
466.06045
463.30582
460.83951
460.16839
463.79526
471.04108
480.41475
431.71874
422.69712
415.11363
409.07015
404.43446
401.07113
398.94278
398.0649
398.41806
399.96708
402.85681
408.13348
419.78245
427.27545
422.42771
419.0032
416.67535
415.10237
414.07615
413.54659
413.56867
414.24846
415.78628
418.65112
423.90691
432.37178
469.98332
465.50876
461.24577
457.53951
454.5363
452.27078
450.74142
449.95406
449.94617
450.82613
452.85398
456.59586
462.81321
)
;
        refGradient     uniform 0;
        valueFraction   nonuniform List<scalar> 
130
(
0.00032132529
0.00032132529
0.00032132529
0.00032132529
0.00032132529
0.00032132529
0.00032132529
0.00032132529
0.00032132529
0.00032132529
0.00032132529
0.00032132529
0.00032132529
0.00032132529
0.00032132529
0.00032132529
0.00032132529
0.00032132529
0.00032132529
0.00032132529
0.00032132529
0.00032132529
0.00032132529
0.00032132529
0.00032132529
0.00032132529
0.00032132529
0.00032132529
0.00032132529
0.00032132529
0.00032132529
0.00032132529
0.00032132529
0.00032132529
0.00032132529
0.00032132529
0.00032132529
0.00032132529
0.00032132529
0.00032132529
0.00032132529
0.00032132529
0.00032132529
0.00032132529
0.00032132529
0.00032132529
0.00032132529
0.00032132529
0.00032132529
0.00032132529
0.00032132529
0.00032132529
0.00032132529
0.00032132529
0.00032132529
0.00032132529
0.00032132529
0.00032132529
0.00032132529
0.00032132529
0.00032132529
0.00032132529
0.00032132529
0.00032132529
0.00032132529
0.00032132529
0.00032132529
0.00032132529
0.00032132529
0.00032132529
0.00032132529
0.00032132529
0.00032132529
0.00032132529
0.00032132529
0.00032132529
0.00032132529
0.00032132529
0.00032132529
0.00032132529
0.00032132529
0.00032132529
0.00032132529
0.00032132529
0.00032132529
0.00032132529
0.00032132529
0.00032132529
0.00032132529
0.00032132529
0.00032132529
0.00032132529
0.00032132529
0.00032132529
0.00032132529
0.00032132529
0.00032132529
0.00032132529
0.00032132529
0.00032132529
0.00032132529
0.00032132529
0.00032132529
0.00032132529
0.00032132529
0.00032132529
0.00032132529
0.00032132529
0.00032132529
0.00032132529
0.00032132529
0.00032132529
0.00032132529
0.00032132529
0.00032132529
0.00032132529
0.00032132529
0.00032132529
0.00032132529
0.00032132529
0.00032132529
0.00032132529
0.00032132529
0.00032132529
0.00032132529
0.00032132529
0.00032132529
0.00032132529
0.00032132529
0.00032132529
)
;
        value           nonuniform List<scalar> 
130
(
709.10197
716.00985
723.19616
730.33703
737.09613
743.26078
748.72071
753.41308
757.31435
760.42902
762.77174
764.33977
765.13027
704.09853
712.17234
720.3729
728.3193
735.66934
742.26319
748.02479
752.93339
756.97529
760.17971
762.57787
764.17945
764.98569
693.95794
704.72471
715.11104
724.67821
733.18005
740.56936
746.87233
752.14354
756.42757
759.78661
762.27759
763.92873
764.75647
678.65868
694.53476
708.46555
720.35011
730.37194
738.73656
745.6612
751.329
755.87269
759.39939
761.98952
763.69457
764.54241
660.38083
684.67874
702.84429
716.98849
728.29541
737.41081
744.79075
750.73698
755.45867
759.09963
761.75906
763.50158
764.36374
660.22798
684.48509
702.63164
716.77346
728.09326
737.21765
744.60943
750.5728
755.31849
758.9813
761.65744
763.41213
764.28157
678.32707
694.07714
707.94088
719.78917
729.81424
738.19676
745.15341
750.86454
755.47033
759.05448
761.69079
763.42658
764.28684
693.61995
704.25307
714.5249
723.97287
732.41641
739.7979
746.12033
751.43464
755.79619
759.24753
761.8072
763.50231
764.34667
703.82808
711.76843
719.83547
727.61453
734.84726
741.38519
747.15488
752.1037
756.22939
759.52846
762.00268
763.646
764.46547
708.91156
715.68961
722.73735
729.69427
736.29857
742.37399
747.81429
752.54804
756.52849
759.73664
762.1482
763.75451
764.55817
)
;
        Tnbr            T;
        thicknessLayers List<scalar> 0();
        kappaLayers     List<scalar> 0();
        kappaMethod     solidThermo;
        kappa           none;
        alphaAni        none;
        alpha           none;
        field           T;
    }
    rightSolid_to_heater
    {
        type            compressible::turbulentTemperatureCoupledBaffleMixed;
        refValue        nonuniform List<scalar> 10(702.99288 696.82197 683.83874 662.2208 626.01101 625.93624 662.05106 683.65275 696.68213 702.91203);
        refGradient     uniform 0;
        valueFraction   nonuniform List<scalar> 10(0.50000003 0.50000003 0.50000003 0.50000003 0.50000003 0.50000003 0.50000003 0.50000003 0.50000003 0.50000003);
        value           nonuniform List<scalar> 10(706.08583 700.50468 688.94045 670.47307 643.22586 643.1121 670.2224 688.67844 700.29955 705.9502);
        Tnbr            T;
        thicknessLayers List<scalar> 0();
        kappaLayers     List<scalar> 0();
        kappaMethod     solidThermo;
        kappa           none;
        alphaAni        none;
        alpha           none;
        field           T;
    }
}


// ************************************************************************* //
