/*--------------------------------*- C++ -*----------------------------------*\
| =========                 |                                                 |
| \\      /  F ield         | OpenFOAM: The Open Source CFD Toolbox           |
|  \\    /   O peration     | Version:  v2012                                 |
|   \\  /    A nd           | Website:  www.openfoam.com                      |
|    \\/     M anipulation  |                                                 |
\*---------------------------------------------------------------------------*/
FoamFile
{
    version     2.0;
    format      ascii;
    class       volScalarField;
    location    "440/leftSolid";
    object      T;
}
// * * * * * * * * * * * * * * * * * * * * * * * * * * * * * * * * * * * * * //

dimensions      [0 0 0 1 0 0 0];


internalField   nonuniform List<scalar> 
130
(
893.70711
893.65547
893.55833
893.43301
893.28531
893.12412
892.95663
892.77955
892.59179
892.39495
892.19956
892.04421
891.95136
893.74579
893.69517
893.59266
893.43959
893.26714
893.08465
892.89648
892.70026
892.49625
892.29322
892.10196
891.9448
891.84705
893.81078
893.75795
893.64759
893.47638
893.25131
893.01931
892.79281
892.56678
892.33825
892.11862
891.9147
891.74338
891.62961
893.88632
893.83004
893.70993
893.52417
893.2713
892.96858
892.67897
892.398
892.12099
891.86256
891.62493
891.42072
891.25717
893.97755
893.9123
893.77693
893.57233
893.30467
892.98199
892.647
892.29843
891.9228
891.59464
891.3066
891.07311
890.90505
894.06969
893.99502
893.84749
893.62519
893.36011
893.05337
892.70192
892.31472
891.8786
891.50993
891.19976
890.96368
890.80129
894.14701
894.07583
893.93193
893.71207
893.4574
893.16426
892.82759
892.44311
891.99398
891.62727
891.3223
891.10164
890.9785
894.22271
894.16696
894.05097
893.8724
893.62917
893.35613
893.05839
892.71873
892.32906
891.98894
891.7133
891.50005
891.38284
894.28626
894.24128
894.14583
893.99593
893.7892
893.52446
893.24368
892.93746
892.60635
892.29843
892.0512
891.86623
891.76163
894.32529
894.28479
894.19927
894.06493
893.87892
893.64248
893.36204
893.06387
892.76585
892.48014
892.23804
892.04892
891.94183
)
;

boundaryField
{
    minX
    {
        type            zeroGradient;
    }
    minZ
    {
        type            zeroGradient;
    }
    maxZ
    {
        type            zeroGradient;
    }
    leftSolid_to_bottomWater
    {
        type            compressible::turbulentTemperatureCoupledBaffleMixed;
        refValue        nonuniform List<scalar> 
130
(
974.20859
972.73985
970.55267
969.42296
967.90869
967.2957
967.85156
968.38037
968.89388
968.6965
964.96102
963.02846
961.0448
973.54029
972.85643
972.10315
967.7353
966.41344
966.08127
966.24215
966.22445
965.7913
965.62133
964.8854
963.88989
962.28434
972.97961
972.73225
972.53696
971.19514
964.14577
962.32064
962.84777
963.55252
963.27574
963.9129
964.00708
963.67766
962.11096
972.17759
972.41127
972.2795
972.04949
969.10069
959.7908
958.28766
957.90045
957.09902
958.05053
958.46208
959.10654
948.65712
973.75017
973.57553
972.83481
971.45262
968.92641
962.62661
960.53826
958.63653
947.02685
945.25321
942.46506
940.24945
931.14148
976.55862
975.09719
973.75009
968.80375
967.27969
966.76008
963.50536
960.70375
945.04515
942.45133
938.91374
937.6336
928.58263
976.12259
974.83603
972.9574
966.10083
965.32689
964.71885
963.1314
961.34282
941.56267
940.18315
935.81945
934.24703
933.6291
974.9666
974.65944
974.15081
973.77594
968.31488
967.17991
968.53865
968.36331
956.18474
951.88458
951.45616
946.54258
944.87086
974.56441
974.34579
974.12645
973.77361
973.29442
967.08215
967.33163
966.91726
961.5793
957.87321
957.36981
955.67427
954.23697
974.65103
974.25014
974.02188
973.84581
973.35121
972.61227
968.53656
965.6931
964.75303
962.27395
959.68649
954.29965
951.99299
)
;
        refGradient     uniform 0;
        valueFraction   nonuniform List<scalar> 
130
(
0.0075140686
0.0075140686
0.0075140686
0.0075140686
0.0075140686
0.0075140686
0.0075140686
0.0075140686
0.0075140686
0.0075140686
0.0075140686
0.0075140686
0.0075140686
0.0075140686
0.0075140686
0.0075140686
0.0075140686
0.0075140686
0.0075140686
0.0075140686
0.0075140686
0.0075140686
0.0075140686
0.0075140686
0.0075140686
0.0075140686
0.0075140686
0.0075140686
0.0075140686
0.0075140686
0.0075140686
0.0075140686
0.0075140686
0.0075140686
0.0075140686
0.0075140686
0.0075140686
0.0075140686
0.0075140686
0.0075140686
0.0075140686
0.0075140686
0.0075140686
0.0075140686
0.0075140686
0.0075140686
0.0075140686
0.0075140686
0.0075140686
0.0075140686
0.0075140686
0.0075140686
0.0075140686
0.0075140686
0.0075140686
0.0075140686
0.0075140686
0.0075140686
0.0075140686
0.0075140686
0.0075140686
0.0075140686
0.0075140686
0.0075140686
0.0075140686
0.0075140686
0.0075140686
0.0075140686
0.0075140686
0.0075140686
0.0075140686
0.0075140686
0.0075140686
0.0075140686
0.0075140686
0.0075140686
0.0075140686
0.0075140686
0.0075140686
0.0075140686
0.0075140686
0.0075140686
0.0075140686
0.0075140686
0.0075140686
0.0075140686
0.0075140686
0.0075140686
0.0075140686
0.0075140686
0.0075140686
0.0075140686
0.0075140686
0.0075140686
0.0075140686
0.0075140686
0.0075140686
0.0075140686
0.0075140686
0.0075140686
0.0075140686
0.0075140686
0.0075140686
0.0075140686
0.0075140686
0.0075140686
0.0075140686
0.0075140686
0.0075140686
0.0075140686
0.0075140686
0.0075140686
0.0075140686
0.0075140686
0.0075140686
0.0075140686
0.0075140686
0.0075140686
0.0075140686
0.0075140686
0.0075140686
0.0075140686
0.0075140686
0.0075140686
0.0075140686
0.0075140686
0.0075140686
0.0075140686
0.0075140686
0.0075140686
)
;
        value           nonuniform List<scalar> 
130
(
894.30849
894.24618
894.13333
894.00052
893.8426
893.67801
893.51594
893.34414
893.1616
892.96466
892.74261
892.57386
892.46678
894.34193
894.28654
894.17913
893.9944
893.81336
893.62976
893.44421
893.24932
893.04353
892.84067
892.64524
892.4817
892.37254
894.40232
894.34802
894.23699
894.05696
893.78064
893.53672
893.31588
893.09683
892.8679
892.65465
892.45286
892.28024
892.15542
894.47133
894.41721
894.29699
894.11086
893.83772
893.46733
893.16862
892.88688
892.60597
892.35659
892.12372
891.92576
891.68472
894.57369
894.5076
894.36765
894.15419
893.86955
893.50194
893.15377
892.7936
892.33368
891.99468
891.68782
891.43939
891.20412
894.68617
894.60106
894.4445
894.18671
893.91218
893.60383
893.23057
892.82531
892.27491
891.88956
891.55515
891.31121
891.08201
894.7596
894.67929
894.52237
894.25265
893.99409
893.69856
893.35249
892.9575
892.36322
891.989
891.65355
891.42273
891.29587
894.82606
894.76842
894.64948
894.46945
894.18702
893.90752
893.62224
893.28385
892.80571
892.43595
892.15916
891.91061
891.7817
894.88611
894.83983
894.74346
894.59204
894.38329
894.07389
893.79712
893.49013
893.12146
892.78798
892.53888
892.34262
892.22802
894.92551
894.8823
894.79572
894.66107
894.47277
894.23258
893.92365
893.60639
893.30356
893.00134
892.7417
892.51364
892.39002
)
;
        Tnbr            T;
        thicknessLayers List<scalar> 0();
        kappaLayers     List<scalar> 0();
        kappaMethod     solidThermo;
        kappa           none;
        alphaAni        none;
        alpha           none;
        field           T;
    }
    leftSolid_to_heater
    {
        type            compressible::turbulentTemperatureCoupledBaffleMixed;
        refValue        nonuniform List<scalar> 10(733.55667 724.10263 704.20986 671.89171 624.84192 624.65936 671.23836 703.15472 722.80188 732.18559);
        refGradient     uniform 0;
        valueFraction   nonuniform List<scalar> 10(2.08329e-05 2.08329e-05 2.08329e-05 2.08329e-05 2.08329e-05 2.08329e-05 2.08329e-05 2.08329e-05 2.08329e-05 2.08329e-05);
        value           nonuniform List<scalar> 10(891.94427 891.83975 891.62188 891.24882 890.89621 890.79255 890.97079 891.37584 891.75503 891.93544);
        Tnbr            T;
        thicknessLayers List<scalar> 1(0.001);
        kappaLayers     List<scalar> 1(0.0005);
        kappaMethod     solidThermo;
        kappa           none;
        alphaAni        none;
        alpha           none;
        field           T;
    }
    leftSolid_to_topAir
    {
        type            compressible::turbulentTemperatureCoupledBaffleMixed;
        refValue        nonuniform List<scalar> 
130
(
324.15284
346.49315
366.7074
385.3696
402.95938
419.76788
435.90911
451.25587
465.49608
478.59767
490.44698
500.83174
509.28332
324.14837
346.25041
365.99689
383.96214
400.59221
416.11991
430.60535
443.99561
456.09938
466.60152
475.05531
480.92436
483.50648
324.14791
346.29165
366.09636
384.13403
400.85607
416.50802
431.20344
444.96786
457.74058
469.35168
479.47846
487.57669
492.63307
324.15081
346.31208
366.15643
384.26238
401.0994
416.94366
431.95461
446.22741
459.80223
472.64667
484.59164
495.1823
503.35817
324.15356
346.32194
366.17801
384.29974
401.15775
417.03177
432.08105
446.39678
460.00816
472.85025
484.65859
494.7721
502.00861
324.15723
346.32886
366.1878
384.31212
401.17358
417.05188
432.1057
446.42686
460.04967
472.92744
484.83828
495.19188
502.68779
324.16096
346.33147
366.18381
384.29639
401.14005
416.99221
432.00962
446.2842
459.85228
472.68623
484.63235
495.27147
503.51848
324.16411
346.32362
366.14408
384.19832
400.93841
416.60936
431.31681
445.09505
457.88043
469.49532
479.61134
487.6916
492.72261
324.16946
346.29152
366.05794
384.04396
400.69475
416.24412
430.7592
444.17628
456.29893
466.80527
475.23459
481.03924
483.53682
324.17709
346.54164
366.78092
385.46939
403.08713
419.92435
436.09824
451.49069
465.77295
478.90888
490.77846
501.15896
509.56906
)
;
        refGradient     uniform 0;
        valueFraction   nonuniform List<scalar> 
130
(
0.00032132529
0.00032132529
0.00032132529
0.00032132529
0.00032132529
0.00032132529
0.00032132529
0.00032132529
0.00032132529
0.00032132529
0.00032132529
0.00032132529
0.00032132529
0.00032132529
0.00032132529
0.00032132529
0.00032132529
0.00032132529
0.00032132529
0.00032132529
0.00032132529
0.00032132529
0.00032132529
0.00032132529
0.00032132529
0.00032132529
0.00032132529
0.00032132529
0.00032132529
0.00032132529
0.00032132529
0.00032132529
0.00032132529
0.00032132529
0.00032132529
0.00032132529
0.00032132529
0.00032132529
0.00032132529
0.00032132529
0.00032132529
0.00032132529
0.00032132529
0.00032132529
0.00032132529
0.00032132529
0.00032132529
0.00032132529
0.00032132529
0.00032132529
0.00032132529
0.00032132529
0.00032132529
0.00032132529
0.00032132529
0.00032132529
0.00032132529
0.00032132529
0.00032132529
0.00032132529
0.00032132529
0.00032132529
0.00032132529
0.00032132529
0.00032132529
0.00032132529
0.00032132529
0.00032132529
0.00032132529
0.00032132529
0.00032132529
0.00032132529
0.00032132529
0.00032132529
0.00032132529
0.00032132529
0.00032132529
0.00032132529
0.00032132529
0.00032132529
0.00032132529
0.00032132529
0.00032132529
0.00032132529
0.00032132529
0.00032132529
0.00032132529
0.00032132529
0.00032132529
0.00032132529
0.00032132529
0.00032132529
0.00032132529
0.00032132529
0.00032132529
0.00032132529
0.00032132529
0.00032132529
0.00032132529
0.00032132529
0.00032132529
0.00032132529
0.00032132529
0.00032132529
0.00032132529
0.00032132529
0.00032132529
0.00032132529
0.00032132529
0.00032132529
0.00032132529
0.00032132529
0.00032132529
0.00032132529
0.00032132529
0.00032132529
0.00032132529
0.00032132529
0.00032132529
0.00032132529
0.00032132529
0.00032132529
0.00032132529
0.00032132529
0.00032132529
0.00032132529
0.00032132529
0.00032132529
0.00032132529
0.00032132529
)
;
        value           nonuniform List<scalar> 
130
(
893.52055
893.4761
893.38547
893.26625
893.1243
892.96856
892.80629
892.63417
892.451
892.25834
892.06676
891.91475
891.82461
893.5593
893.51579
893.41964
893.2724
893.1054
892.92798
892.74452
892.55265
892.35254
892.15287
891.9643
891.809
891.71203
893.62437
893.57866
893.47467
893.30929
893.08969
892.86284
892.64114
892.41959
892.1952
891.97931
891.77861
891.60982
891.49758
893.69995
893.65079
893.53707
893.35716
893.10976
892.81224
892.52756
892.2513
891.97878
891.72452
891.49069
891.28981
891.12875
893.79115
893.73303
893.60405
893.40532
893.14316
892.82567
892.49562
892.15183
891.78082
891.45691
891.17272
890.94251
890.77679
893.88319
893.81565
893.67453
893.45813
893.19856
892.89702
892.55052
892.16814
891.73663
891.37226
891.06602
890.83333
890.67339
893.96046
893.89643
893.75896
893.545
893.29583
893.00787
892.67613
892.2964
891.85188
891.48951
891.18849
890.97132
890.85087
894.03615
893.98754
893.87795
893.70526
893.46749
893.19959
892.90668
892.57159
892.18628
891.85011
891.57781
891.36724
891.25166
894.09968
894.06183
893.97277
893.8287
893.62741
893.36778
893.09179
892.79002
892.46297
892.15851
891.91412
891.73113
891.62738
894.13871
894.10541
894.02643
893.89814
893.71788
893.48695
893.21183
892.91874
892.62542
892.344
892.10586
891.92026
891.8159
)
;
        Tnbr            T;
        thicknessLayers List<scalar> 0();
        kappaLayers     List<scalar> 0();
        kappaMethod     solidThermo;
        kappa           none;
        alphaAni        none;
        alpha           none;
        field           T;
    }
}


// ************************************************************************* //
