/*--------------------------------*- C++ -*----------------------------------*\
| =========                 |                                                 |
| \\      /  F ield         | OpenFOAM: The Open Source CFD Toolbox           |
|  \\    /   O peration     | Version:  v2012                                 |
|   \\  /    A nd           | Website:  www.openfoam.com                      |
|    \\/     M anipulation  |                                                 |
\*---------------------------------------------------------------------------*/
FoamFile
{
    version     2.0;
    format      ascii;
    class       volScalarField;
    location    "6";
    object      p;
}
// * * * * * * * * * * * * * * * * * * * * * * * * * * * * * * * * * * * * * //

dimensions      [0 2 -2 0 0 0 0];


internalField   nonuniform List<scalar> 
64000
(
3.6164e-21
2.06099e-21
-2.04353e-21
-2.24058e-21
-3.95409e-21
-3.22718e-21
-6.57891e-22
-2.73304e-22
1.3372e-22
8.7995e-22
-9.37852e-22
-4.20412e-22
-8.68934e-22
-2.1753e-21
-1.24028e-21
-1.80982e-21
-1.73511e-21
5.64773e-22
2.79545e-21
2.96394e-21
-6.19764e-22
-4.86126e-21
-1.70788e-21
-5.51073e-22
-4.09009e-21
-2.31428e-21
-6.06032e-22
-3.25425e-22
-1.47351e-22
-1.72936e-21
-1.53666e-21
-3.18389e-22
-4.6201e-22
-3.02938e-22
-4.55502e-22
-3.63472e-22
6.01376e-24
1.0211e-21
1.27791e-21
9.71099e-22
6.93292e-22
-9.97843e-22
-2.25898e-21
-1.77584e-21
-6.38321e-21
-5.54773e-21
-2.2587e-21
-5.7421e-22
-3.33602e-22
-1.89976e-21
-7.3862e-22
-2.79333e-21
-4.50971e-22
-2.63072e-24
-2.13521e-21
-3.08956e-21
-2.18013e-21
1.97207e-21
2.05998e-21
2.61735e-21
2.54806e-21
-9.67726e-22
-3.90635e-21
-7.80425e-21
-5.56404e-21
-1.36312e-21
-1.18576e-22
-1.16037e-21
-9.23029e-22
2.64399e-22
1.63456e-21
4.9867e-22
1.08239e-22
1.52e-22
-9.63114e-22
-6.66066e-22
1.50778e-22
-1.42358e-22
1.06443e-21
1.1584e-21
3.57327e-22
-1.00744e-21
-4.33772e-21
-3.24627e-21
-4.21438e-21
-5.59359e-21
-2.85558e-21
-2.64677e-21
-8.55799e-22
-9.53721e-23
-1.09334e-21
-2.02897e-21
-1.33876e-21
-9.64449e-22
-8.69484e-22
-8.67754e-23
-3.57289e-21
-7.42494e-22
-1.2701e-22
1.66994e-21
3.21321e-21
2.37551e-21
-3.09524e-21
-8.4126e-21
-2.92365e-21
-1.27831e-21
-1.70244e-21
-1.81323e-21
-7.6732e-22
1.13051e-21
8.7557e-22
7.23445e-23
1.66872e-21
-1.88183e-22
4.24533e-22
1.96516e-21
-2.03186e-21
-1.91485e-21
-5.17065e-22
7.21116e-22
-4.75427e-21
-6.22778e-21
-3.71266e-21
-5.28762e-21
-3.19421e-21
-4.69082e-21
-3.19683e-21
-2.62486e-21
-2.50784e-21
-1.53835e-21
-2.46932e-22
-2.28447e-21
-2.75595e-21
-9.34485e-22
-1.37437e-21
-2.71176e-21
-2.16348e-21
-1.39113e-21
7.47104e-22
3.14798e-21
2.90178e-21
3.35106e-21
-3.79926e-21
-8.79846e-21
-3.33986e-21
-1.12932e-21
-1.15087e-21
-1.02626e-22
3.64997e-22
4.62371e-22
-5.90704e-22
-3.86467e-23
2.18223e-22
1.65703e-21
2.07827e-21
3.77858e-22
-1.35549e-21
-1.91161e-21
-2.19636e-21
-8.80283e-23
-8.6121e-21
-6.58514e-21
-4.77652e-21
-3.36165e-21
-3.75883e-21
-3.58124e-21
-2.83632e-21
-1.92553e-21
-2.80734e-21
-3.76001e-21
-2.21342e-21
-2.54964e-21
-1.46169e-23
2.67834e-22
-3.61063e-21
-6.36698e-21
-4.5536e-21
8.73841e-22
4.11711e-21
3.27136e-21
2.76855e-21
-2.45048e-22
-4.379e-21
-5.81403e-21
-1.43904e-21
-4.26441e-22
-2.09097e-22
-3.02293e-21
-5.58449e-23
1.68041e-21
-1.42334e-22
-2.68827e-22
2.62129e-22
6.23863e-22
-4.40011e-22
3.61581e-22
-1.11842e-21
2.44606e-22
-1.426e-21
6.215e-22
-4.45059e-21
-4.53913e-21
-3.28248e-21
-3.58763e-21
-3.91626e-21
-3.773e-21
-3.2263e-21
-3.13548e-21
-3.35061e-21
-2.47916e-21
-1.18912e-21
-2.606e-21
-1.01451e-21
6.35363e-22
-2.95877e-21
-7.57711e-21
-4.14568e-21
9.55565e-22
4.65503e-21
4.74669e-21
3.51758e-21
-8.06949e-22
-8.69606e-21
-4.8168e-21
-1.87884e-21
-7.53044e-23
-2.00895e-21
-1.92884e-21
6.80927e-22
8.2498e-22
1.77972e-22
-3.24529e-22
3.89635e-22
6.13418e-22
-7.12972e-22
2.46279e-22
-4.92786e-22
-2.59895e-21
-1.35264e-21
6.39589e-22
-3.59091e-21
-5.46316e-21
-3.41708e-21
-4.98559e-21
-4.04241e-21
-4.17664e-21
-3.06795e-21
-2.82571e-21
-4.64152e-21
-2.80443e-21
-1.27235e-21
-1.97691e-21
-1.75006e-21
-1.69045e-21
-2.56174e-21
-3.50093e-21
-1.35863e-21
1.29363e-21
5.03309e-21
3.30121e-21
2.18109e-21
-1.58198e-21
-7.90473e-21
-4.93955e-21
-2.8473e-21
-1.11173e-21
-1.45146e-21
-6.23736e-23
4.67636e-22
-3.60924e-22
-2.17946e-21
2.05909e-22
1.73105e-21
8.28974e-22
1.2808e-21
2.99749e-22
-1.02896e-22
-4.01967e-21
-4.17462e-21
-5.33202e-22
-3.52685e-21
-5.46515e-21
-6.10811e-21
-5.61399e-21
-4.74079e-21
-1.8976e-21
-1.27219e-21
-6.96472e-21
-3.69405e-21
-2.11771e-21
-2.65792e-21
-2.94422e-21
-3.49433e-21
-2.60081e-21
-2.23255e-21
-3.43177e-21
-9.49601e-22
2.33041e-21
3.84053e-21
5.22539e-21
4.7237e-22
-3.69572e-21
-6.24271e-21
-4.30361e-21
-2.40846e-21
-7.67439e-22
-3.20385e-23
3.44674e-22
1.09138e-21
-8.56651e-22
-3.00054e-21
-7.44509e-22
1.5653e-21
-2.21874e-22
1.29137e-21
4.5476e-22
-1.97761e-21
-4.05743e-21
-2.68039e-21
-3.15234e-22
-1.17412e-20
-8.39538e-21
-4.15225e-21
-6.59904e-21
-5.534e-21
-1.99495e-21
-2.33051e-21
-4.17521e-21
-3.28962e-21
-5.01653e-21
-3.76393e-21
-4.51679e-21
-1.00173e-21
-6.6871e-22
-3.11413e-21
-5.44401e-21
-2.4002e-21
3.79273e-21
3.04237e-21
3.33431e-21
1.39418e-21
-5.10173e-21
-5.78203e-21
-5.58317e-21
-1.08583e-21
2.85785e-22
1.22465e-21
1.75581e-21
-1.652e-22
-1.64578e-21
-2.4479e-22
-1.31584e-21
-2.53544e-21
1.64804e-22
1.59752e-21
2.1769e-22
-4.63085e-22
-3.01676e-21
-6.06852e-22
5.55989e-22
-4.73246e-21
-6.50618e-21
-7.37442e-21
-7.00921e-21
-5.17633e-21
-4.72421e-21
-2.80212e-21
-4.24384e-21
-2.73375e-21
-1.37029e-21
-2.80546e-21
-4.003e-21
-1.78338e-21
-9.3598e-23
-3.87336e-21
-4.27232e-21
-2.49332e-21
7.06081e-22
3.13482e-21
4.55604e-21
2.77578e-21
-4.01847e-21
-7.70496e-21
-3.14157e-21
-2.07952e-21
-2.20926e-22
8.35062e-22
2.55299e-21
-2.61517e-21
-1.4076e-21
-8.30729e-22
-1.2138e-21
-9.74479e-22
-6.75456e-22
7.83537e-22
1.75732e-22
-2.83882e-21
-1.29358e-21
-5.83462e-22
-8.8239e-22
-4.98238e-21
-7.5711e-21
-8.14776e-21
-8.56381e-21
-5.87666e-21
-5.49981e-21
-5.49387e-21
-1.7889e-21
-2.95661e-21
-3.0903e-21
-2.61433e-21
-2.54759e-21
-1.65982e-21
-4.11406e-22
-3.1127e-21
-3.84986e-21
-3.43585e-22
1.39285e-21
4.52153e-21
3.17452e-21
-1.70532e-21
-7.65293e-21
-4.74696e-21
-3.57798e-21
-3.01211e-21
-1.67319e-21
6.66796e-22
3.04881e-21
-2.08821e-22
-1.58329e-21
2.48855e-22
-3.20105e-21
-6.6544e-22
9.96823e-22
-7.82248e-22
-9.45017e-22
-9.09643e-22
-5.98074e-22
-9.28958e-23
1.05683e-21
-6.18427e-21
-9.99613e-21
-9.40596e-21
-7.42748e-21
-3.77804e-21
-5.5388e-21
-5.89023e-21
-3.98712e-21
-1.45166e-21
-1.40044e-21
-2.39455e-21
-3.70724e-21
-3.66374e-21
-1.95743e-21
-2.37649e-21
-2.21149e-21
-1.44424e-21
7.61259e-22
2.26667e-21
5.0628e-21
-2.37307e-21
-7.10342e-21
-5.16681e-21
-5.7536e-21
-2.19788e-22
-7.97331e-22
8.25745e-22
3.05303e-21
5.11481e-22
-5.53389e-22
-3.31672e-22
-2.18828e-21
-1.10929e-21
2.10077e-21
-1.41333e-21
-2.30945e-21
7.18831e-22
1.66823e-21
5.36037e-22
-2.28717e-21
-9.47299e-21
-1.07468e-20
-9.44192e-21
-6.61317e-21
-5.68598e-21
-5.23553e-21
-4.77271e-21
-3.23311e-21
-2.06258e-21
-2.59616e-21
-2.68443e-21
-2.13784e-21
-2.90959e-21
-3.2221e-21
-3.65466e-21
-1.3828e-21
-6.2044e-22
6.73189e-22
1.57887e-21
1.7191e-21
-1.64818e-21
-4.88356e-21
-3.15351e-21
-2.54114e-21
-1.79583e-21
1.30608e-21
1.83334e-21
1.05139e-21
5.80074e-23
-1.941e-22
-1.6396e-21
-6.21713e-22
1.76435e-21
1.67797e-21
-8.73854e-22
-7.34369e-22
-2.628e-22
-1.59185e-21
-1.39499e-21
-7.15749e-22
-1.03875e-20
-1.12036e-20
-1.02095e-20
-7.34355e-21
-5.76463e-21
-4.45534e-21
-4.46299e-21
-1.85992e-21
-4.64403e-21
-6.90688e-21
-2.71954e-21
-6.90358e-22
-3.28096e-21
-6.06693e-21
-2.31523e-21
-9.42563e-22
1.10635e-22
1.82046e-21
3.0278e-21
3.28942e-21
-3.26257e-21
-6.48896e-21
-4.34581e-21
-3.76901e-21
-1.27273e-22
1.72489e-21
1.75831e-21
2.93468e-22
-8.08837e-22
5.0226e-22
-1.10175e-21
1.37369e-21
1.90386e-21
3.51154e-22
-2.5261e-21
4.73223e-22
2.7222e-22
5.38995e-23
-1.59893e-21
6.36709e-22
-7.56425e-21
-1.17416e-20
-1.1521e-20
-6.9594e-21
-3.46249e-21
-5.3094e-21
-5.22353e-21
-4.81969e-21
-4.29449e-21
-4.30712e-21
-3.46145e-21
-2.28401e-21
-2.33534e-21
-2.75453e-21
-2.3048e-21
-2.16665e-21
1.07193e-21
5.54719e-22
-5.32677e-22
2.77177e-21
-3.24652e-21
-4.01635e-21
-2.99744e-21
-2.71006e-21
6.59947e-22
1.18676e-21
2.18124e-22
-6.40799e-22
-1.01117e-21
-1.78196e-22
-1.42695e-21
1.19872e-21
2.6292e-21
8.36146e-22
-2.7821e-22
-1.86295e-21
5.13416e-22
1.43248e-21
-2.03832e-22
2.02226e-21
-9.32977e-21
-1.20748e-20
-1.00775e-20
-6.36497e-21
-6.08109e-21
-4.28975e-21
-4.55421e-21
-5.51851e-21
-4.14322e-21
-2.12772e-21
-4.71778e-21
-2.74324e-21
-2.41617e-21
-8.66606e-22
-1.14897e-21
-1.82354e-21
-9.2987e-23
1.62678e-21
4.20135e-21
8.12168e-22
-4.68135e-21
-5.98165e-21
-3.55963e-21
4.68869e-22
-2.6167e-22
-6.66688e-22
-1.28461e-24
-1.21813e-21
-1.09403e-21
9.9108e-22
-2.27473e-22
5.48237e-22
1.76593e-21
6.65945e-22
-3.36389e-22
-6.62489e-22
-7.54696e-22
-1.44189e-21
-7.94385e-24
1.50273e-21
-8.73067e-21
-1.07321e-20
-1.19098e-20
-5.37598e-21
-2.97469e-21
-4.29275e-21
-6.30304e-21
-7.05887e-21
-3.39525e-21
-2.77965e-21
-4.28943e-21
-4.58935e-22
-1.01093e-21
-9.26557e-22
-9.44272e-22
-2.97719e-22
-6.49102e-22
1.002e-21
-2.48318e-23
-9.88239e-22
-4.94257e-21
-3.36038e-21
-1.02723e-21
-1.32084e-22
-1.02254e-21
1.14963e-21
2.41457e-22
-2.37955e-22
8.57633e-22
-1.72859e-21
-1.87416e-21
5.57142e-22
2.96882e-21
1.56376e-21
-7.98857e-22
-2.15206e-22
-1.47855e-21
-1.0313e-21
4.10057e-22
-5.76451e-22
-6.32807e-21
-9.78902e-21
-1.3415e-20
-7.23792e-21
-4.12574e-21
-1.78753e-21
-5.98004e-21
-7.33941e-21
-3.52282e-21
-2.60829e-21
-2.94491e-21
-1.03547e-21
6.5784e-22
-9.323e-22
-3.1107e-21
-9.50481e-23
3.62472e-22
3.35307e-22
1.62822e-21
-1.3274e-21
-6.06645e-21
-6.84525e-21
-5.45425e-22
3.76931e-22
4.21956e-22
2.26976e-22
1.8334e-21
7.58212e-22
-1.48011e-21
-2.12298e-22
9.51595e-22
-2.64745e-23
1.24107e-21
2.5212e-22
-1.49059e-21
-1.85682e-21
-4.28659e-22
-3.86965e-22
-1.07523e-22
-4.22811e-22
-4.7915e-21
-7.49477e-21
-9.33752e-21
-7.66172e-21
-7.1745e-21
-4.15088e-21
-4.39157e-21
-3.38834e-21
-2.61616e-21
-3.62945e-21
-3.22108e-21
-2.03143e-21
1.82569e-21
8.3339e-22
-2.41009e-21
-1.50066e-21
-3.49025e-22
-3.28543e-21
-3.12885e-21
-2.91113e-21
-2.84964e-21
-2.10494e-21
-1.85106e-21
-7.09963e-22
9.03979e-22
2.30163e-22
1.93691e-21
3.10658e-21
1.34608e-21
-7.72697e-22
-1.78454e-21
-3.68306e-22
2.02053e-21
1.84076e-22
-3.61504e-21
-7.86331e-22
5.96535e-22
-2.62488e-22
-1.03208e-21
-1.04516e-21
-3.59682e-21
-7.72537e-21
-9.67999e-21
-6.86585e-21
-5.3608e-21
-4.03512e-21
-4.1333e-21
-4.75337e-21
-1.99922e-21
-2.28973e-21
-2.83785e-21
-9.81405e-22
-1.06639e-21
-1.55299e-21
-6.81791e-22
-3.66927e-22
-3.80907e-22
-2.04948e-21
-5.48001e-21
-1.81159e-21
-3.2004e-21
-3.8301e-21
-2.20889e-21
-5.81527e-22
1.259e-21
9.81558e-22
-1.61928e-21
1.95781e-21
2.3339e-21
1.72175e-22
6.60842e-22
5.44664e-22
1.41311e-21
-1.15813e-21
-4.85035e-21
-4.57655e-22
-1.07687e-21
3.74994e-22
-1.06494e-21
-1.58834e-21
-6.03227e-21
-8.50118e-21
-9.43825e-21
-5.17886e-21
-5.12322e-21
-4.79327e-21
-3.67537e-21
-1.38427e-21
-1.32389e-22
-4.1715e-21
-6.21914e-21
-3.62898e-21
-5.9704e-22
-1.85282e-21
-1.27586e-21
2.69114e-22
-8.28963e-22
-8.12636e-23
-4.76118e-21
-1.13962e-21
-2.74091e-21
-3.82708e-21
-1.15886e-21
-1.83289e-21
-2.08441e-21
1.02106e-21
2.58298e-22
1.25174e-21
1.48164e-21
-7.87015e-22
-1.54057e-23
1.74468e-21
-2.21672e-22
4.25793e-22
-1.8469e-21
-3.26042e-21
-2.44003e-21
-6.69979e-22
-5.77818e-22
-1.47171e-21
-1.01281e-20
-9.86831e-21
-7.96877e-21
-4.26792e-21
-4.6568e-21
-4.14779e-21
-3.66097e-21
-2.98429e-21
-3.94802e-22
-4.66396e-21
-5.54947e-21
-5.47827e-21
-7.96989e-22
-4.31836e-21
-1.25125e-22
2.70968e-21
-1.61015e-21
-7.70355e-22
-1.79128e-21
-4.48198e-22
-3.81347e-21
-3.86934e-21
-1.06596e-21
-1.49049e-21
-1.06251e-21
9.65478e-22
1.76082e-21
-2.18023e-21
-7.46139e-22
-7.12317e-22
-8.20727e-22
3.27602e-21
1.97085e-22
-1.39864e-21
-2.76637e-21
-4.41038e-21
-1.15655e-21
6.78235e-22
1.09831e-21
-2.09432e-22
-1.09034e-20
-8.7981e-21
-7.30372e-21
-4.6186e-21
-3.62482e-21
-6.1144e-21
-3.38854e-21
-3.20091e-21
-4.94663e-21
-6.28946e-21
-5.32078e-21
-3.24642e-21
-2.06673e-21
-1.0039e-21
2.05964e-21
3.23605e-22
-6.95987e-22
2.38589e-22
1.49414e-21
-1.34712e-21
-4.00522e-21
-2.89834e-21
-3.75019e-21
-6.14341e-21
-2.75541e-21
-1.26317e-22
2.09984e-21
9.72792e-23
-4.67156e-22
-8.65387e-22
-2.4605e-21
-5.84989e-22
2.15881e-22
-4.67618e-22
9.7892e-22
-3.08929e-21
-1.1317e-21
2.30024e-21
9.90421e-23
-1.21678e-21
-6.40398e-21
-6.56022e-21
-8.14508e-21
-4.99604e-21
-2.31599e-21
-5.21613e-21
-5.80006e-21
-7.63694e-21
-3.24863e-21
-4.27826e-21
-5.58427e-21
-3.12757e-21
4.30494e-22
-1.48551e-21
-1.1281e-21
-1.86468e-22
-8.48605e-22
-2.30144e-22
1.00206e-21
-4.04894e-23
-4.11626e-21
-2.65506e-21
-2.1988e-21
-3.65213e-21
-3.73955e-21
-1.81525e-21
1.31119e-21
1.3492e-21
1.53417e-21
-3.91882e-21
-1.2192e-21
5.86345e-22
-1.60497e-21
-1.47285e-21
3.51368e-22
-5.66137e-22
-3.59836e-22
1.58924e-21
1.79814e-22
-1.19701e-21
-6.04994e-22
-4.23029e-21
-6.71266e-21
-6.71793e-21
-4.43838e-21
-4.26162e-21
-4.74836e-21
-5.79257e-21
-2.65178e-21
-3.93733e-21
-7.73701e-21
-3.78102e-21
-8.37065e-22
-2.58711e-21
-2.77814e-21
-5.51643e-22
1.94943e-22
-4.40327e-23
2.22409e-21
2.31118e-21
-2.19055e-21
-3.34696e-21
-7.91674e-22
-5.9267e-21
-4.68525e-21
-2.46227e-21
-1.51891e-21
1.41969e-21
-3.93671e-22
-8.99159e-22
1.59743e-21
1.06984e-21
-2.37116e-21
-1.25501e-21
-1.96266e-21
-9.2332e-22
1.56613e-21
7.87939e-22
-4.24654e-22
4.63181e-22
-3.66411e-21
-4.54291e-21
-5.50766e-21
-5.53027e-21
-4.99233e-21
-2.48266e-21
-3.38735e-21
-5.09099e-21
-2.06299e-21
-1.42351e-21
-7.36074e-21
-4.87059e-21
-3.21902e-21
-6.01e-21
1.47356e-22
8.97473e-22
7.42776e-22
-9.32359e-23
2.5878e-21
2.29529e-21
-1.71576e-23
-2.32776e-21
-4.3966e-21
-6.3816e-21
-4.40139e-21
-4.29117e-21
-1.86319e-22
1.06875e-21
-9.22283e-22
4.19958e-22
1.57604e-21
-6.09392e-22
-2.25583e-21
3.59316e-22
6.84469e-22
-6.56464e-22
5.51232e-22
-1.20005e-21
3.06387e-22
1.85641e-21
9.67967e-23
-1.87366e-21
-4.98845e-21
-6.86635e-21
-3.62418e-21
-4.07871e-21
-2.48548e-21
-4.18127e-21
-1.95174e-21
-2.63469e-21
-3.4831e-21
-3.20347e-21
-4.2371e-21
-5.09701e-21
-4.00941e-21
-8.00414e-22
-3.36133e-22
4.63768e-22
5.53119e-21
5.58126e-21
-1.86636e-21
-6.10057e-21
-3.86672e-21
-3.31876e-21
-3.8681e-21
-4.0242e-21
1.93074e-21
1.25974e-21
-3.03181e-21
-1.87481e-21
2.5737e-21
5.4302e-22
-4.20036e-22
-6.4172e-22
-1.30144e-22
-4.7751e-22
-7.42726e-22
-1.1666e-21
1.03972e-22
1.45748e-21
-2.03495e-21
-4.82928e-21
-5.15191e-21
-5.65958e-21
-1.70918e-21
-1.88151e-21
-2.25469e-21
-5.24034e-21
-3.38461e-21
-2.44373e-21
-2.501e-21
-2.77978e-21
-1.44983e-21
-3.38054e-21
-5.21333e-21
-1.32501e-21
-9.16175e-22
1.17565e-21
4.83497e-21
5.1681e-21
-2.65067e-21
-4.71842e-21
-3.15674e-21
-5.2189e-21
-2.62859e-21
-9.88049e-22
8.46886e-22
-1.49928e-21
-2.39048e-21
-1.26292e-21
1.56404e-21
1.00793e-21
-4.38522e-22
9.5738e-24
-1.10741e-21
-2.39076e-21
-1.0574e-21
-3.31178e-22
2.05329e-22
5.95081e-22
-3.28555e-21
-6.50722e-21
-6.03169e-21
-3.9277e-21
-2.25604e-21
-3.54253e-21
-4.12824e-21
-3.12917e-21
-3.00812e-21
-1.89868e-21
-2.62735e-21
-1.96443e-21
-1.70518e-21
-3.27457e-21
-2.85627e-21
-1.18357e-21
1.06803e-21
3.13269e-21
2.42668e-21
2.70028e-21
-2.70936e-21
-6.55293e-21
-3.71873e-21
-2.87071e-21
-1.77129e-21
-1.18376e-21
-6.87467e-22
-3.36285e-21
-5.61969e-22
-1.40167e-21
2.00264e-21
6.33563e-22
9.06261e-22
3.01521e-22
-1.53356e-21
-3.07059e-21
-6.1687e-22
7.70857e-22
6.53651e-22
1.0816e-21
-3.91223e-21
-5.41738e-21
-4.91911e-21
-5.24451e-21
-4.38244e-21
-2.32423e-21
-3.31482e-21
-2.80029e-21
-1.91167e-21
-2.6532e-21
-3.6648e-21
-1.10261e-21
-2.19687e-22
-1.18825e-21
-3.04388e-21
-4.40736e-21
-2.35095e-21
7.47701e-22
4.97226e-21
4.78642e-21
-6.82804e-22
-6.78612e-21
-3.58091e-21
-2.77233e-21
-3.9093e-21
-3.11254e-21
-4.78009e-22
2.29936e-21
-4.89004e-22
8.01843e-22
4.12968e-22
-8.34071e-22
-3.09042e-22
5.88587e-22
-6.48262e-22
-1.77386e-21
-1.07294e-21
-2.13036e-21
1.35221e-21
8.86774e-22
-6.70044e-21
-4.96426e-21
-3.3973e-21
-4.8019e-21
-4.82724e-21
-3.28428e-21
-1.50881e-21
-3.17658e-21
-1.72082e-21
2.50024e-22
-6.22598e-22
-1.2868e-21
-2.25027e-21
-2.2306e-23
-3.29838e-22
-6.49611e-21
-3.68149e-21
7.59247e-22
3.08766e-21
2.52743e-21
1.60837e-21
-3.05741e-21
-3.58872e-21
-2.38428e-21
-3.64229e-21
-2.61522e-21
-1.40085e-21
6.20698e-22
2.85592e-22
1.64541e-22
-7.50318e-22
-6.76529e-23
9.31916e-22
3.33086e-23
-1.01541e-21
-8.52562e-22
-6.56311e-22
-1.28718e-21
-4.62754e-22
9.57187e-23
-9.66663e-21
-7.19359e-21
-3.77549e-21
-4.43368e-21
-3.8169e-21
-2.2553e-21
-2.07038e-21
-3.35189e-21
-1.19168e-21
1.20137e-21
1.97115e-21
-4.45294e-21
-4.83438e-23
1.11213e-21
-2.54627e-21
-5.68577e-21
-1.4107e-21
1.764e-21
1.61526e-21
1.40567e-23
1.04841e-21
-9.71127e-22
-4.47461e-21
-4.99955e-21
-2.53441e-21
-2.70347e-22
-2.2543e-22
4.75271e-22
9.18489e-22
1.63187e-21
-2.54737e-21
-1.52658e-21
1.53597e-21
-1.62144e-22
-2.21397e-21
-2.35527e-21
-1.49514e-21
3.12791e-22
2.1292e-21
3.9432e-22
-8.05475e-21
-4.71381e-21
-2.45228e-21
-3.63043e-21
-4.64395e-21
-1.7864e-21
-4.19788e-22
-3.94771e-21
-1.29421e-21
1.55562e-21
-1.58507e-21
-8.47663e-22
-9.85035e-22
1.00704e-21
-7.85168e-22
-4.4806e-21
-1.1499e-21
-6.42124e-22
3.49421e-21
1.59667e-21
6.06703e-23
-1.11967e-21
-4.38538e-21
-3.85353e-21
-5.54663e-21
-3.30937e-21
1.47856e-21
1.21798e-21
7.47304e-22
-9.30424e-22
-9.69561e-23
7.88799e-22
1.26645e-21
-5.42682e-22
1.1533e-21
-1.55341e-23
-2.4546e-21
-3.50194e-21
-1.94412e-21
-7.23945e-22
-6.86147e-21
-4.25852e-21
-2.75484e-21
-4.61331e-21
-3.31096e-21
-1.23297e-21
-1.02244e-21
-6.54786e-22
-1.62035e-21
-5.61791e-22
-1.70194e-21
-1.42759e-21
-1.40398e-21
-8.0935e-24
-8.18762e-22
-1.62158e-21
-1.53481e-21
-6.7321e-22
7.98432e-22
2.67944e-21
2.87245e-21
-2.20341e-21
-2.80599e-21
-5.39485e-21
-3.91826e-21
-1.26155e-21
-4.90059e-22
-2.62704e-22
2.76706e-23
-8.47437e-22
-5.74324e-23
2.36638e-21
1.57541e-21
9.57443e-22
9.31952e-22
-2.40407e-21
-2.29254e-21
9.41785e-22
-1.45841e-21
-2.47566e-21
-6.03058e-21
-3.63481e-21
-2.06097e-21
-2.89314e-21
-2.03252e-21
-3.88112e-21
-2.67307e-21
-1.33565e-21
-2.8448e-21
-1.43972e-21
-9.90029e-22
-2.28493e-21
2.37812e-21
3.07487e-21
-1.00733e-21
-4.43806e-21
-4.40812e-21
-5.57795e-22
3.09164e-21
2.75109e-21
2.20642e-21
-3.08103e-21
-3.83226e-21
-3.15039e-21
-1.95086e-21
-8.47561e-22
-1.81701e-21
-3.84667e-21
-6.61652e-22
-1.75696e-22
2.13972e-21
2.72387e-21
7.64296e-22
-7.03319e-22
-8.88309e-22
-3.65628e-21
-7.28696e-22
3.47707e-21
1.36974e-21
-4.56712e-22
-2.79529e-21
-3.02605e-21
-2.32336e-21
-1.5481e-21
-1.82781e-21
-4.64285e-21
-3.11303e-21
-9.76368e-22
-1.58596e-21
-1.59445e-21
-2.00776e-21
-7.72464e-22
1.64793e-22
5.87107e-22
1.94864e-23
-1.8347e-21
-2.61141e-21
9.22084e-22
3.3481e-21
2.42174e-21
1.22879e-21
-5.36373e-21
-3.7058e-21
-1.57322e-21
-2.48526e-23
-4.07902e-22
-7.40585e-22
-1.06385e-21
-1.53771e-21
-5.20839e-22
6.01343e-22
1.82437e-21
-7.6196e-24
2.04564e-22
2.17508e-21
-2.84693e-21
-2.76377e-22
2.30683e-21
1.02987e-21
-2.14023e-21
-3.74826e-21
-3.50825e-21
-2.72727e-22
-3.58177e-21
-1.31631e-21
-4.3697e-21
-2.85494e-21
-2.76859e-21
-1.46099e-21
-8.26076e-22
-1.82542e-21
-1.19148e-21
1.2327e-22
-6.96781e-23
-1.80048e-21
-5.10951e-22
-1.42357e-21
1.96901e-21
3.73641e-21
1.75159e-21
1.51723e-21
-4.167e-21
-2.06122e-21
-1.74495e-21
-1.90824e-21
-1.4326e-21
-1.35539e-21
7.004e-22
9.77428e-22
-1.47994e-21
-1.82485e-21
5.3397e-22
1.46014e-21
1.30454e-21
-2.21729e-22
-1.26279e-21
2.55864e-21
2.81531e-21
-8.44815e-22
-1.55419e-21
-5.87568e-21
-4.23552e-21
-1.68642e-21
-2.09325e-21
-2.63268e-21
-4.31467e-21
-2.67181e-21
-2.01454e-21
-1.24252e-21
-1.85959e-21
-8.62972e-22
-4.80919e-22
9.90411e-22
-3.1001e-22
-6.31854e-22
5.93769e-22
-7.36144e-23
3.37795e-22
3.68569e-21
4.48847e-21
5.6681e-22
-2.80109e-21
-3.24622e-21
-3.80279e-21
-4.74158e-22
3.50185e-22
-2.28961e-21
-6.10517e-22
7.88278e-22
-1.40319e-21
-3.0302e-21
-4.83667e-22
3.2226e-22
1.29481e-21
2.42717e-22
1.97739e-22
1.07906e-21
3.81873e-21
3.56282e-22
-1.98543e-21
-2.85997e-21
-1.29128e-21
-2.25982e-21
-3.69716e-21
-3.02661e-21
-3.61442e-21
-2.17182e-21
-1.30167e-21
-2.63141e-22
-2.0134e-21
-3.49585e-22
2.4418e-21
1.19392e-21
-9.92612e-22
-1.93196e-21
-5.70946e-22
-4.5704e-22
1.45429e-21
1.28698e-21
1.298e-21
2.26966e-21
1.14441e-23
-3.9733e-21
-2.35696e-21
-2.75097e-21
7.65254e-23
6.43465e-22
1.48072e-21
-2.62038e-21
-3.54339e-21
-2.45486e-22
-1.15573e-21
-6.27464e-22
6.62024e-22
1.33605e-21
-1.96413e-22
-4.85244e-22
1.87274e-21
1.34275e-21
-1.27065e-21
-5.59021e-21
-1.54904e-21
-1.66983e-21
9.43059e-22
1.22325e-21
-1.33999e-21
-3.97125e-21
-2.392e-21
-6.79718e-22
-1.58501e-21
-9.25014e-22
1.87649e-21
8.44244e-22
-7.84948e-22
-1.60509e-21
-1.64898e-21
-8.49934e-22
-2.09079e-22
1.76698e-21
1.35523e-21
9.72758e-22
-6.47309e-22
-1.38773e-21
-1.42372e-21
-1.15409e-21
-1.14197e-22
-1.20968e-22
6.70725e-22
-1.2894e-21
4.34379e-23
-4.52216e-22
5.2107e-23
-1.31956e-21
-8.47197e-22
7.54765e-22
-1.30178e-21
-1.39468e-21
-4.03153e-23
9.5609e-22
6.52769e-23
2.24801e-21
6.41007e-22
-5.96983e-21
-4.27767e-21
-1.48185e-21
-4.72509e-21
-1.94725e-21
4.82548e-22
-4.36482e-22
-2.21274e-23
-1.54309e-21
-2.79192e-21
-1.71179e-21
-7.93333e-22
-1.37928e-21
-2.58978e-21
-1.27806e-21
1.19673e-22
3.30223e-21
2.43707e-21
-7.4731e-22
-2.67402e-21
-2.32942e-21
-2.00135e-21
-3.19885e-21
-2.00487e-21
-1.64293e-21
-1.81418e-21
-2.36467e-21
-2.84021e-21
-1.58838e-21
1.34858e-22
-2.99778e-21
2.72327e-21
1.61709e-21
4.49234e-23
6.98999e-22
-3.30682e-22
-8.43351e-22
2.03586e-22
1.42376e-22
-2.49321e-21
-6.11947e-21
-6.1942e-21
-7.23422e-22
-3.15886e-21
-3.22753e-21
-2.11781e-21
-2.33565e-21
-1.42301e-21
-2.43386e-21
-2.6644e-21
-2.57385e-21
-2.92853e-21
-2.4344e-21
-8.34665e-23
7.03643e-22
-1.39183e-21
2.27427e-21
3.37928e-21
8.28466e-22
-2.35369e-21
-3.29515e-21
-4.99897e-21
-3.42627e-21
-2.32037e-21
6.86445e-22
-1.12811e-21
-5.04929e-21
-2.91587e-21
2.3746e-22
1.29862e-21
-2.61386e-21
7.84256e-22
1.88613e-21
-1.94992e-21
4.99425e-22
1.21289e-21
-6.10679e-22
-7.54049e-22
-2.30224e-21
-3.726e-21
-4.90227e-21
-4.27497e-21
-2.92693e-21
-2.3297e-21
-2.89743e-21
-7.39016e-21
-3.32807e-21
3.89349e-22
-1.86193e-21
-2.54721e-21
-1.29744e-21
-1.73683e-21
-1.48489e-21
-1.81113e-21
-1.12485e-21
-8.28466e-22
2.29098e-21
4.15759e-21
6.52613e-23
-6.99069e-22
-2.44888e-21
-4.20553e-21
-4.32816e-21
-5.01694e-22
2.49052e-22
-4.87364e-21
-3.13279e-21
-1.99064e-21
-1.14621e-21
-1.4897e-21
1.07855e-22
1.55331e-21
-1.18514e-21
-4.80778e-22
4.18814e-22
7.76927e-22
-8.10623e-22
-2.60556e-22
-6.71495e-21
-7.78238e-21
-5.22697e-21
-4.80585e-21
-4.26491e-21
-5.11373e-21
-4.83038e-21
-2.89782e-21
-4.78857e-21
-7.76502e-22
-1.96452e-22
-3.28054e-21
-2.12281e-21
-1.27556e-21
-1.68854e-21
-3.00423e-21
-1.74561e-21
-1.9494e-21
3.07813e-21
4.99437e-21
-4.70024e-22
-6.05115e-22
-4.62412e-21
-6.21745e-21
-3.20446e-21
-5.58502e-22
-1.32629e-21
5.00339e-22
-1.34572e-21
-2.87994e-21
-1.43099e-21
-4.80407e-22
1.94188e-22
3.6372e-22
9.4304e-22
-6.77673e-22
-5.15961e-22
-7.78674e-22
-1.66376e-21
-1.63488e-22
-8.34024e-21
-8.54074e-21
-5.83077e-21
-4.43361e-21
-6.27208e-21
-5.24533e-21
-3.43122e-21
-2.73531e-21
-2.85841e-21
-3.62617e-21
-2.65688e-21
-3.76992e-21
-1.16166e-21
-1.37738e-21
-3.32284e-21
-4.90203e-21
-2.25535e-21
-1.52546e-21
4.43997e-21
4.8709e-21
1.45286e-21
-2.04993e-21
-4.01324e-21
-3.82992e-21
-1.63605e-21
1.40621e-22
-2.1945e-21
-2.65626e-21
-1.07194e-21
4.14561e-22
-1.15922e-22
-1.79452e-21
-6.70056e-22
1.16044e-22
3.17046e-22
-4.14206e-23
8.74571e-22
-1.07531e-21
-1.51894e-21
-5.85783e-22
-7.26855e-21
-7.6238e-21
-4.3245e-21
-4.73407e-21
-6.98765e-21
-5.58741e-21
-3.41953e-21
-4.79557e-21
-4.49136e-21
-4.74483e-21
-3.20969e-21
-4.08462e-21
-5.04591e-22
-1.07403e-21
-4.00416e-21
-4.36714e-21
-2.46337e-21
-5.33685e-22
4.29069e-21
4.13639e-21
7.55965e-22
-2.97694e-21
-5.07826e-21
-1.73854e-21
-8.60736e-22
2.88513e-23
-2.72261e-22
-1.86429e-21
-1.77924e-21
-8.83847e-22
-2.82033e-21
-8.72982e-22
1.74799e-22
2.04066e-21
5.10693e-22
-2.96402e-22
-9.19724e-22
-3.60741e-21
-1.90802e-21
-1.79714e-22
-8.358e-21
-9.70413e-21
-4.97549e-21
-7.21496e-21
-7.76075e-21
-3.6894e-21
-4.83399e-21
-4.48163e-21
-5.65961e-21
-6.14457e-21
-4.43447e-21
-1.33228e-21
3.58912e-22
-5.33786e-22
-4.16315e-21
-5.09443e-21
-1.97346e-21
5.72582e-22
3.14782e-21
2.25709e-21
3.03712e-22
-9.9483e-22
-3.36781e-21
-3.95532e-21
-2.13548e-21
3.33114e-22
-1.21229e-21
-2.62335e-21
6.50358e-22
8.89099e-22
-1.91611e-21
-2.35015e-22
8.73532e-22
1.09653e-21
1.6722e-21
-8.43299e-22
-9.57329e-22
-4.54182e-21
-4.45098e-21
1.55586e-22
-6.81324e-21
-9.43979e-21
-7.8729e-21
-9.23374e-21
-7.26584e-21
-4.03061e-21
-5.06189e-21
-6.29049e-21
-4.65378e-21
-2.57339e-21
-5.33297e-21
-4.23311e-21
-2.1403e-21
2.25352e-22
-2.68248e-21
-3.92539e-21
-7.25686e-22
6.78576e-22
2.6093e-21
1.8188e-21
5.45214e-23
-3.77558e-21
-4.82126e-21
-2.86783e-21
-2.2823e-21
1.14655e-21
1.19478e-21
-1.5092e-21
-3.18213e-22
-7.69388e-22
-2.39902e-21
4.42725e-22
8.14312e-22
1.47661e-21
4.67904e-22
-8.44895e-22
-2.36877e-22
-1.80195e-21
-4.18119e-21
-1.73559e-21
-9.04608e-21
-1.05841e-20
-8.07854e-21
-9.68292e-21
-1.04157e-20
-4.87276e-21
-6.75127e-21
-4.05646e-21
-3.52533e-21
-3.82094e-21
-4.75628e-21
-6.24421e-21
-2.36021e-21
-8.98872e-22
-1.54082e-21
-3.53357e-21
-2.27041e-21
1.89579e-22
2.14842e-21
7.87149e-22
1.49894e-21
-2.3212e-21
-4.57088e-21
-7.24581e-21
-1.6619e-21
3.13135e-21
-1.01287e-21
-1.3429e-21
2.47642e-21
-1.15523e-22
-1.28526e-21
-1.38473e-21
-1.72202e-21
2.09989e-21
1.55354e-21
-1.37077e-22
-1.10047e-21
-2.70445e-21
-2.53838e-21
-1.94924e-21
-1.057e-20
-9.57581e-21
-9.99553e-21
-1.09047e-20
-9.39022e-21
-6.34906e-21
-6.68424e-21
-5.72402e-21
-2.40439e-21
-2.9045e-21
-5.02277e-21
-5.40755e-21
-2.6587e-21
5.13592e-22
-4.20968e-21
-2.99404e-21
-1.96706e-21
-4.3131e-22
1.88368e-21
3.37431e-21
-5.52287e-22
-4.48461e-21
-5.48653e-21
-5.81954e-21
-1.70092e-21
1.48983e-21
1.49669e-21
-8.34489e-22
-4.83648e-22
-6.04664e-22
-1.4819e-21
-1.82224e-22
-9.0261e-22
1.54875e-21
1.47763e-21
-1.1187e-21
-1.90022e-21
-3.32602e-21
-2.90082e-21
-1.93223e-21
-1.16019e-20
-1.35727e-20
-1.19417e-20
-1.15001e-20
-9.38332e-21
-4.23331e-21
-9.63781e-21
-5.9445e-21
-4.09375e-21
-3.00738e-21
-4.40565e-21
-3.48318e-21
-3.31172e-21
5.85529e-22
-5.77403e-21
-3.94771e-21
4.5955e-22
-1.02822e-22
1.40296e-21
3.45692e-21
-4.32186e-21
-4.69646e-21
-5.69647e-21
-6.61468e-21
-3.11095e-21
6.0231e-22
1.70901e-21
4.20313e-22
1.21681e-22
-5.93404e-22
-5.672e-22
-7.93953e-22
9.46164e-22
9.62442e-22
1.74677e-21
-5.67196e-22
-2.66631e-21
-2.65592e-21
-3.63705e-21
-1.50774e-21
-1.34713e-20
-1.68399e-20
-1.15317e-20
-1.12061e-20
-8.79885e-21
-5.47534e-21
-8.44045e-21
-4.58289e-21
-3.35033e-21
-4.9341e-21
-4.20245e-21
-3.73698e-21
-3.03552e-21
-1.55136e-21
-5.63766e-21
-3.43377e-21
-2.71792e-22
-3.24913e-22
8.03479e-23
1.43949e-21
-2.95215e-21
-5.57951e-21
-5.55295e-21
-3.48313e-21
-2.74798e-21
-5.11685e-22
1.30173e-21
3.03612e-21
2.57772e-21
-1.96126e-21
1.64211e-21
-1.53026e-22
-1.87802e-21
4.98984e-22
-3.6241e-22
-6.26301e-22
1.11291e-21
-3.0375e-22
-2.70577e-21
-2.48898e-21
-1.5443e-20
-1.46147e-20
-1.18627e-20
-1.17246e-20
-1.06707e-20
-8.44699e-21
-4.09462e-21
-4.03742e-21
-4.38119e-21
-4.51449e-21
-3.81294e-21
-4.07827e-21
-3.57819e-21
-3.27164e-21
-4.26969e-21
-1.02862e-21
6.52121e-22
-8.54232e-22
-3.37434e-21
-1.08294e-21
-3.55951e-21
-3.30975e-21
-3.63202e-21
-2.16619e-21
-7.27362e-22
4.43569e-22
1.69831e-23
1.48863e-21
1.12283e-21
2.01249e-21
-9.94729e-23
8.28723e-22
1.98353e-22
5.51497e-22
-3.01583e-21
-1.28244e-21
2.17277e-21
-7.20134e-22
-5.03695e-21
-2.98645e-22
-1.81599e-20
-1.72711e-20
-1.41294e-20
-1.13344e-20
-9.86054e-21
-7.47208e-21
-5.84009e-21
-2.62308e-21
-5.06084e-21
-6.31858e-21
-5.81788e-21
-2.93371e-21
-4.88378e-21
-4.66558e-21
-3.2927e-21
-2.52771e-21
1.23255e-21
3.69728e-23
1.01906e-22
1.49657e-21
-5.12364e-21
-5.13339e-21
-3.18089e-21
-3.57128e-21
-1.9195e-21
-1.32342e-22
8.84357e-22
1.78745e-21
1.5494e-22
1.80941e-21
7.66512e-22
2.02741e-21
1.01321e-22
-5.80081e-23
-2.44367e-21
7.31885e-23
2.41613e-21
-1.29868e-21
-3.56543e-21
8.264e-22
-1.95134e-20
-1.69761e-20
-1.4034e-20
-1.00042e-20
-8.65773e-21
-7.30118e-21
-6.7463e-21
-4.49941e-21
-5.49806e-21
-5.45598e-21
-5.66252e-21
-3.70896e-21
-5.19163e-21
-4.18161e-21
-3.37559e-21
-7.70077e-22
2.71965e-21
5.21131e-22
-1.42583e-21
-6.67151e-22
-5.26159e-21
-4.97347e-21
-3.48573e-21
-1.18661e-21
-6.51609e-22
-4.8062e-22
3.92306e-22
1.21888e-22
-2.74992e-22
6.26017e-22
-4.83898e-22
1.38553e-21
1.98959e-21
1.14977e-22
-2.74847e-21
-2.98917e-21
4.14417e-22
2.18166e-21
-4.6597e-22
3.58882e-22
-1.74336e-20
-1.59912e-20
-1.3733e-20
-1.29812e-20
-1.01325e-20
-8.75749e-21
-7.2385e-21
-5.71084e-21
-4.28059e-21
-4.48784e-21
-5.78251e-21
-4.16113e-21
-6.77084e-21
-1.92617e-21
-7.12432e-22
-7.438e-22
1.09679e-21
3.42589e-22
1.19147e-21
-5.64931e-22
-6.15158e-21
-5.78171e-21
-4.68804e-21
-8.72254e-22
-2.92835e-22
-8.31329e-22
3.59307e-22
1.41736e-21
-1.1652e-21
6.07333e-22
5.41824e-22
1.33705e-21
2.24085e-21
3.87251e-22
-1.19853e-21
-4.01336e-21
-9.64745e-22
1.83721e-21
6.42874e-23
-8.52865e-23
-1.62319e-20
-1.66701e-20
-1.20664e-20
-1.05447e-20
-9.8773e-21
-8.19551e-21
-8.14248e-21
-7.27587e-21
-4.36135e-21
-3.72047e-21
-5.26269e-21
-3.69187e-21
-5.75341e-21
-3.81308e-21
-1.09656e-21
1.93127e-21
2.22049e-22
1.59563e-23
-2.19593e-21
-2.02664e-21
-5.1555e-21
-2.51954e-21
-1.87092e-21
-2.83373e-21
-7.74462e-22
-5.93159e-22
1.48074e-21
1.49237e-21
-3.10359e-22
-1.47564e-22
-3.21681e-22
3.026e-22
2.44227e-21
1.39393e-21
-2.51614e-21
-3.40011e-21
-4.00052e-22
1.22563e-21
1.59374e-21
8.61697e-22
-1.36849e-20
-1.5675e-20
-1.65218e-20
-1.22973e-20
-8.67405e-21
-8.81381e-21
-7.54468e-21
-5.09286e-21
-5.4451e-21
-7.24055e-21
-5.2283e-21
-2.12999e-21
-4.2721e-21
-3.22168e-21
-2.28405e-21
-1.61596e-22
-1.48276e-21
4.33067e-22
1.80212e-21
-2.40185e-21
-5.84076e-21
-6.12892e-21
-3.36119e-21
-2.41324e-21
-2.33576e-21
1.14948e-23
2.32324e-21
2.26947e-21