/*--------------------------------*- C++ -*----------------------------------*\
| =========                 |                                                 |
| \\      /  F ield         | OpenFOAM: The Open Source CFD Toolbox           |
|  \\    /   O peration     | Version:  v2012                                 |
|   \\  /    A nd           | Website:  www.openfoam.com                      |
|    \\/     M anipulation  |                                                 |
\*---------------------------------------------------------------------------*/
FoamFile
{
    version     2.0;
    format      ascii;
    class       surfaceScalarField;
    location    "6";
    object      phi;
}
// * * * * * * * * * * * * * * * * * * * * * * * * * * * * * * * * * * * * * //

dimensions      [0 3 -1 0 0 0 0];
oriented        oriented;


internalField   nonuniform List<scalar> 
187200
(
1.875e-06
1.48679e-22
6.61551e-23
1.875e-06
1.07628e-22
1.52868e-22
1.875e-06
7.17286e-23
2.01155e-22
1.875e-06
3.57921e-23
1.43782e-22
1.875e-06
1.13903e-22
-1.28516e-23
1.875e-06
1.42542e-22
2.76705e-23
1.875e-06
1.23917e-22
6.99498e-23
1.875e-06
2.49425e-23
-4.26439e-24
1.875e-06
8.72001e-23
9.36623e-23
1.875e-06
1.52688e-22
8.28108e-23
1.875e-06
6.8751e-23
5.71613e-23
1.875e-06
1.11988e-22
8.56934e-23
1.875e-06
-3.86613e-23
-1.14822e-24
1.875e-06
-9.09398e-25
2.15564e-23
1.875e-06
2.08452e-23
7.66485e-23
1.875e-06
4.60275e-23
3.42589e-23
1.875e-06
4.05539e-23
5.05031e-24
1.875e-06
-4.86958e-23
1.95816e-23
1.875e-06
3.70394e-23
-1.41532e-22
1.875e-06
-1.09286e-23
-1.11571e-22
1.875e-06
-2.79305e-22
-1.35382e-22
1.875e-06
-2.11717e-22
-7.82307e-23
1.875e-06
7.14642e-23
3.32239e-23
1.875e-06
2.95418e-22
6.30959e-23
1.875e-06
1.37228e-22
-7.30663e-24
1.875e-06
5.18981e-24
2.10893e-23
1.875e-06
-5.86545e-23
8.23633e-23
1.875e-06
3.96941e-23
1.03244e-22
1.875e-06
4.91205e-23
1.30578e-22
1.875e-06
-1.00927e-22
7.53875e-23
1.875e-06
-2.21446e-22
3.68694e-24
1.875e-06
-1.08638e-22
-1.31468e-23
1.875e-06
-7.19372e-23
1.04113e-22
1.875e-06
-1.34638e-22
-2.20545e-22
1.875e-06
-6.11674e-23
-2.25993e-22
1.875e-06
8.58193e-24
-1.03819e-22
1.875e-06
-6.69657e-24
-7.50113e-23
1.875e-06
1.02153e-23
3.5646e-23
1.875e-06
3.60413e-23
8.82537e-23
-2.53996e-24
8.10669e-23
1.875e-06
1.17421e-22
4.12339e-23
1.875e-06
1.56118e-22
2.44365e-22
1.875e-06
1.45081e-22
2.87725e-22
1.875e-06
7.36229e-23
2.11196e-22
1.875e-06
-6.26151e-23
-4.78865e-23
1.875e-06
1.23415e-23
-6.21307e-23
1.875e-06
8.23496e-23
5.80148e-23
1.875e-06
1.37158e-22
1.5047e-22
1.875e-06
7.72157e-23
2.0592e-22
1.875e-06
-7.69239e-24
1.01275e-22
1.875e-06
4.70151e-23
1.11824e-22
1.875e-06
-2.37949e-23
3.0971e-23
1.875e-06
5.99482e-23
1.57486e-22
1.875e-06
6.05116e-23
1.43948e-22
1.875e-06
-5.69893e-24
1.0149e-22
1.875e-06
-9.10621e-23
-4.79816e-23
1.875e-06
5.86123e-23
-6.36314e-23
1.875e-06
1.43036e-22
1.46924e-22
1.875e-06
1.07988e-22
-1.12723e-22
1.875e-06
4.07076e-23
-1.45365e-22
1.875e-06
-8.13548e-23
-3.89764e-23
1.875e-06
-2.42026e-22
3.79237e-23
1.875e-06
-5.57171e-23
6.28895e-24
1.875e-06
7.55285e-23
1.9728e-23
1.875e-06
-4.59981e-23
-1.52434e-23
1.875e-06
-1.56311e-23
3.33206e-23
1.875e-06
5.59449e-23
4.01306e-23
1.875e-06
1.44497e-23
5.10862e-23
1.875e-06
-4.84366e-23
1.81878e-22
1.875e-06
-2.82016e-23
1.5331e-22
1.875e-06
2.9379e-23
1.28054e-22
1.875e-06
-1.24125e-23
-2.7623e-24
1.875e-06
-1.611e-22
9.72635e-23
1.875e-06
-6.13479e-23
-7.47713e-23
1.875e-06
-1.33054e-22
-2.26291e-22
1.875e-06
-1.26965e-22
-7.04431e-23
1.875e-06
3.05764e-23
-1.89174e-22
1.875e-06
1.08313e-22
-5.01822e-23
1.875e-06
8.77967e-23
1.19886e-22
6.9377e-23
1.63664e-22
1.875e-06
2.33271e-22
1.8946e-22
1.875e-06
2.59487e-22
2.26231e-22
1.875e-06
-7.41829e-24
1.90353e-22
1.875e-06
9.80592e-23
1.77058e-22
1.875e-06
1.80188e-23
6.76612e-23
1.875e-06
2.02956e-24
-7.89156e-23
1.875e-06
4.51705e-23
1.09896e-22
1.875e-06
4.29665e-23
2.83195e-22
1.875e-06
9.9413e-23
2.36227e-22
1.875e-06
1.02013e-22
9.27155e-23
1.875e-06
8.26657e-24
9.04583e-23
1.875e-06
2.55761e-23
7.26966e-23
1.875e-06
9.4394e-23
6.87335e-23
1.875e-06
1.65291e-23
1.16002e-22
1.875e-06
1.14583e-23
1.12657e-22
1.875e-06
1.15451e-22
1.0051e-22
1.875e-06
-6.41843e-24
-1.89193e-23
1.875e-06
4.28805e-23
2.71972e-23
1.875e-06
-3.95995e-23
-1.84939e-22
1.875e-06
-1.02625e-22
-1.79596e-22
1.875e-06
-1.88994e-23
5.89352e-24
1.875e-06
-6.83964e-23
1.45091e-22
1.875e-06
9.13736e-24
6.36986e-23
1.875e-06
3.35093e-23
-6.41867e-23
1.875e-06
3.95013e-23
1.15483e-22
1.875e-06
-2.66378e-23
6.39498e-23
1.875e-06
-2.02433e-23
-4.58856e-23
1.875e-06
-5.9475e-23
1.07922e-22
1.875e-06
-2.5664e-23
1.76808e-22
1.875e-06
-3.63183e-23
1.93005e-22
1.875e-06
4.68257e-24
1.48671e-22
1.875e-06
1.62093e-23
9.08569e-23
1.875e-06
8.82575e-23
1.01069e-22
1.875e-06
-1.34244e-22
-1.14688e-22
1.875e-06
-1.48165e-22
-2.19775e-23
1.875e-06
4.41769e-24
-3.45258e-23
1.875e-06
2.00008e-23
-2.00928e-22
1.875e-06
1.3015e-24
-1.38424e-22
1.875e-06
6.63828e-23
1.02386e-23
8.98036e-23
4.89052e-23
1.875e-06
1.38631e-22
1.03396e-22
1.875e-06
5.17736e-23
2.07165e-22
1.875e-06
9.80583e-23
2.69949e-22
1.875e-06
-5.36069e-23
1.35064e-22
1.875e-06
2.09283e-23
1.33657e-22
1.875e-06
1.4041e-23
1.18421e-22
1.875e-06
9.76022e-24
1.98648e-22
1.875e-06
-7.72071e-25
1.69025e-22
1.875e-06
4.64627e-23
2.4584e-22
1.875e-06
1.18651e-22
1.30468e-22
1.875e-06
9.38947e-23
7.61336e-23
1.875e-06
3.34903e-23
9.06686e-23
1.875e-06
-7.7474e-23
3.94089e-23
1.875e-06
-3.52887e-23
1.35589e-22
1.875e-06
1.09161e-22
1.4638e-22
1.875e-06
1.85095e-22
7.53945e-23
1.875e-06
6.65814e-23
2.23087e-23
1.875e-06
-9.87138e-23
2.60898e-23
1.875e-06
-2.17642e-22
-2.2952e-22
1.875e-06
-8.16007e-23
-1.90684e-22
1.875e-06
-4.96066e-24
6.02459e-23
1.875e-06
1.50121e-22
2.72648e-22
1.875e-06
6.72135e-23
9.8492e-23
1.875e-06
-8.43803e-23
3.96716e-23
1.875e-06
-7.54408e-23
9.62847e-23
1.875e-06
-3.05343e-23
5.90792e-23
1.875e-06
-2.09628e-23
3.39278e-23
1.875e-06
1.2942e-22
3.54269e-23
1.875e-06
4.57263e-23
1.3142e-22
1.875e-06
-7.10018e-23
1.92831e-22
1.875e-06
8.97206e-24
7.61495e-23
1.875e-06
2.43747e-24
-1.66661e-23
1.875e-06
-4.2003e-23
6.79145e-24
1.875e-06
-7.62304e-24
-1.47281e-23
1.875e-06
5.35844e-23
-3.08974e-23
1.875e-06
-1.17062e-23
-5.52896e-23
1.875e-06
-3.18234e-23
-1.57202e-22
1.875e-06
-5.46762e-23
-9.36875e-24
1.875e-06
-1.88162e-23
-2.7041e-23
-9.99312e-24
-2.06448e-23
1.875e-06
-1.00503e-22
7.22045e-23
1.875e-06
-4.81669e-23
2.49807e-22
1.875e-06
-3.23032e-23
2.47174e-22
1.875e-06
4.43927e-23
2.11872e-22
1.875e-06
4.34487e-23
2.17197e-22
1.875e-06
-7.02064e-24
1.57264e-22
1.875e-06
2.38051e-23
1.89929e-22
1.875e-06
7.94717e-23
2.32982e-22
1.875e-06
5.50038e-23
1.98275e-22
1.875e-06
2.15548e-23
1.69665e-22
1.875e-06
1.29961e-23
1.43601e-22
1.875e-06
2.90473e-23
1.57828e-22
1.875e-06
4.23872e-23
1.31548e-22
1.875e-06
1.38281e-24
1.89326e-22
1.875e-06
-5.27498e-24
1.0862e-22
1.875e-06
2.03955e-23
-3.13116e-23
1.875e-06
-1.25361e-23
-3.85895e-23
1.875e-06
-4.84472e-23
9.38406e-23
1.875e-06
-9.45745e-23
-5.8056e-23
1.875e-06
-1.26245e-22
-1.74407e-22
1.875e-06
-6.7052e-23
-2.96302e-23
1.875e-06
4.79123e-23
1.18794e-22
1.875e-06
1.64859e-22
1.01807e-22
1.875e-06
-3.74359e-23
1.05002e-23
1.875e-06
-3.01007e-23
1.24529e-22
1.875e-06
3.2427e-24
6.3795e-23
1.875e-06
1.04058e-22
1.1231e-22
1.875e-06
-1.44906e-23
-3.67239e-25
1.875e-06
-1.55271e-23
7.27365e-23
1.875e-06
7.48862e-23
1.01785e-22
1.875e-06
2.58615e-23
3.29853e-23
1.875e-06
1.43657e-23
8.1781e-23
1.875e-06
-4.67064e-23
3.59377e-24
1.875e-06
-6.04271e-23
-1.0016e-22
1.875e-06
-2.43607e-23
-1.65969e-22
1.875e-06
-4.10118e-23
-1.29218e-22
1.875e-06
-8.11259e-23
-1.77755e-22
1.875e-06
1.20809e-22
4.88562e-23
1.875e-06
5.03682e-23
4.72451e-23
2.52903e-23
-1.49093e-23
1.875e-06
-4.86115e-23
1.77989e-22
1.875e-06
5.23422e-23
2.80912e-22
1.875e-06
3.69608e-23
2.03517e-22
1.875e-06
8.25807e-23
2.35591e-22
1.875e-06
3.97323e-23
2.85048e-22
1.875e-06
2.71196e-23
2.2082e-22
1.875e-06
3.45897e-24
2.2398e-22
1.875e-06
2.10773e-23
3.01503e-22
1.875e-06
6.72246e-23
2.53922e-22
1.875e-06
2.10062e-23
1.944e-22
1.875e-06
3.00955e-23
1.96363e-22
1.875e-06
2.78366e-23
1.77954e-22
1.875e-06
6.71276e-23
1.14604e-22
1.875e-06
1.22487e-22
1.99383e-22
1.875e-06
1.11879e-23
1.51552e-22
1.875e-06
-1.53008e-22
-4.30472e-23
1.875e-06
-1.0308e-22
-2.32827e-23
1.875e-06
-6.59695e-23
2.13983e-23
1.875e-06
-5.97151e-23
-6.58029e-23
1.875e-06
5.14191e-23
-4.51089e-23
1.875e-06
5.11874e-23
7.22384e-23
1.875e-06
4.6366e-23
1.44523e-22
1.875e-06
-1.58137e-23
3.15892e-24
1.875e-06
8.1091e-24
-5.76819e-23
1.875e-06
3.69996e-23
2.30401e-23
1.875e-06
4.3142e-23
6.25855e-23
1.875e-06
-1.48129e-23
-3.94272e-24
1.875e-06
-8.69128e-23
-1.14354e-23
1.875e-06
-2.33286e-23
1.44059e-22
1.875e-06
4.18304e-23
1.31485e-22
1.875e-06
8.12923e-23
1.49432e-22
1.875e-06
4.93867e-23
6.54419e-23
1.875e-06
-3.01916e-23
-4.0319e-23
1.875e-06
-3.27059e-23
-1.66195e-22
1.875e-06
-1.02347e-22
-2.07313e-22
1.875e-06
-5.67358e-23
-1.34618e-22
1.875e-06
-3.19167e-23
-8.86524e-23
1.875e-06
6.11695e-23
3.94667e-24
1.875e-06
1.07709e-22
-2.09244e-23
7.21033e-23
-1.72187e-23
1.875e-06
2.43955e-23
2.86917e-22
1.875e-06
7.29259e-23
2.94212e-22
1.875e-06
1.6942e-22
2.70328e-22
1.875e-06
1.33421e-22
3.12719e-22
1.875e-06
1.08179e-22
3.00212e-22
1.875e-06
-4.04084e-23
1.98911e-22
1.875e-06
-4.37084e-23
2.74947e-22
1.875e-06
1.30155e-22
3.05006e-22
1.875e-06
-2.29183e-23
2.64308e-22
1.875e-06
-2.41007e-23
2.33442e-22
1.875e-06
8.59631e-23
2.28093e-22
1.875e-06
7.75928e-23
1.13506e-22
1.875e-06
8.5914e-23
5.77465e-23
1.875e-06
4.97891e-23
1.09997e-22
1.875e-06
1.66537e-23
1.79282e-22
1.875e-06
1.22341e-23
1.66021e-22
1.875e-06
-3.8178e-23
1.83804e-23
1.875e-06
-9.6951e-23
-2.74673e-23
1.875e-06
1.59729e-23
1.67839e-23
1.875e-06
-6.16297e-23
5.74658e-24
1.875e-06
1.11305e-22
9.77196e-23
1.875e-06
1.30822e-22
4.16376e-23
1.875e-06
-2.48632e-23
-4.49047e-23
1.875e-06
-5.58732e-23
7.12331e-23
1.875e-06
-4.31654e-23
5.61362e-23
1.875e-06
-8.32914e-24
-3.28117e-23
1.875e-06
-1.06914e-22
-4.60874e-23
1.875e-06
-1.09526e-22
1.14154e-22
1.875e-06
-4.9212e-23
8.03779e-23
1.875e-06
7.54614e-23
8.2711e-23
1.875e-06
1.17105e-22
-2.7905e-23
1.875e-06
6.03972e-23
8.15458e-24
1.875e-06
6.72112e-23
-3.06595e-23
1.875e-06
9.92604e-23
-6.02887e-23
1.875e-06
2.3533e-23
-1.22494e-22
1.875e-06
-2.4223e-23
-1.32034e-22
1.875e-06
2.37206e-23
-1.63233e-22
1.875e-06
-3.64217e-23
-4.90433e-23
1.875e-06
-8.00305e-23
-5.46074e-23
-7.32927e-23
-6.09006e-23
1.875e-06
2.43267e-22
2.22374e-22
1.875e-06
1.30015e-22
2.98486e-22
1.875e-06
6.90131e-23
2.84281e-22
1.875e-06
1.38291e-22
3.82274e-22
1.875e-06
8.94494e-23
3.69166e-22
1.875e-06
4.03151e-23
3.14366e-22
1.875e-06
6.33815e-23
3.34363e-22
1.875e-06
-8.94149e-23
2.67973e-22
1.875e-06
-9.73815e-24
2.10483e-22
1.875e-06
1.05044e-22
1.34715e-22
1.875e-06
7.78504e-23
1.9626e-22
1.875e-06
8.75649e-23
1.77482e-22
1.875e-06
-8.37047e-23
1.2512e-22
1.875e-06
-1.42229e-23
9.04302e-23
1.875e-06
1.95535e-23
1.19525e-22
1.875e-06
7.96763e-23
5.73231e-23
1.875e-06
3.72967e-23
-2.09125e-23
1.875e-06
-5.38168e-23
4.6529e-23
1.875e-06
4.75474e-23
7.4465e-23
1.875e-06
5.39463e-23
1.31905e-22
1.875e-06
-2.03922e-23
7.62809e-23
1.875e-06
6.26127e-23
4.41944e-23
1.875e-06
-1.71343e-23
4.62756e-24
1.875e-06
9.82485e-23
4.51818e-23
1.875e-06
-1.94421e-23
1.17915e-22
1.875e-06
-1.14783e-22
-1.1036e-23
1.875e-06
-7.81016e-23
-4.01377e-23
1.875e-06
-1.47913e-22
1.0859e-22
1.875e-06
-1.05545e-23
9.47745e-23
1.875e-06
6.22164e-23
4.34712e-23
1.875e-06
-7.03595e-23
-1.72567e-23
1.875e-06
4.898e-23
-6.85536e-24
1.875e-06
2.54024e-22
-2.06723e-23
1.875e-06
1.12211e-22
-1.56176e-22
1.875e-06
1.93414e-23
-1.07853e-22
1.875e-06
-1.3141e-23
-1.78103e-22
1.875e-06
-1.01898e-22
-2.63108e-22
1.875e-06
-6.05257e-23
-1.10978e-22
1.875e-06
-1.45139e-22
-2.97816e-23
-1.6538e-22
-9.76656e-24
1.875e-06
-1.4637e-22
4.98299e-23
1.875e-06
1.71623e-23
2.80969e-22
1.875e-06
1.44318e-22
3.0218e-22
1.875e-06
9.10342e-23
3.9359e-22
1.875e-06
8.05201e-23
4.41985e-22
1.875e-06
1.75268e-22
3.76022e-22
1.875e-06
6.35729e-23
4.43919e-22
1.875e-06
1.11902e-23
2.78613e-22
1.875e-06
-2.85789e-23
2.03444e-22
1.875e-06
-9.46335e-23
6.76591e-23
1.875e-06
-4.89083e-23
1.08485e-22
1.875e-06
-4.97749e-23
1.73491e-22
1.875e-06
2.08474e-23
2.19514e-22
1.875e-06
-3.74895e-23
1.32095e-22
1.875e-06
6.01016e-23
5.63101e-23
1.875e-06
3.20155e-24
3.21053e-23
1.875e-06
5.29242e-23
4.17484e-23
1.875e-06
1.06503e-22
1.26605e-22
1.875e-06
1.23984e-24
6.14475e-23
1.875e-06
-4.00996e-23
1.44514e-22
1.875e-06
-1.44044e-23
2.59073e-23
1.875e-06
1.12258e-23
-6.65537e-24
1.875e-06
9.2042e-23
4.14856e-23
1.875e-06
-7.98345e-23
1.04755e-22
1.875e-06
5.25059e-24
1.01344e-22
1.875e-06
7.35752e-23
1.61477e-24
1.875e-06
-5.10513e-23
8.07353e-23
1.875e-06
-1.12219e-22
1.20674e-22
1.875e-06
5.35847e-23
-4.35009e-23
1.875e-06
-3.64745e-24
3.19793e-24
1.875e-06
1.85357e-23
4.45927e-23
1.875e-06
3.54473e-23
-2.9003e-23
1.875e-06
8.99586e-24
-6.25902e-23
1.875e-06
7.42606e-23
-2.15181e-22
1.875e-06
7.37202e-23
-1.55757e-22
1.875e-06
5.00138e-24
-1.90576e-22
1.875e-06
8.60376e-23
-1.84272e-22
1.875e-06
-1.63087e-22
-8.1007e-23
1.875e-06
-1.18771e-22
4.79969e-23
-1.88701e-23
1.08864e-22
1.875e-06
5.7703e-23
3.0989e-22
1.875e-06
9.50891e-23
3.19509e-22
1.875e-06
1.33191e-22
3.93613e-22
1.875e-06
1.23623e-22
4.63086e-22
1.875e-06
8.30274e-23
4.23897e-22
1.875e-06
4.01164e-23
3.19428e-22
1.875e-06
1.45444e-22
4.42682e-22
1.875e-06
-1.35713e-24
3.57118e-22
1.875e-06
1.3451e-24
1.77897e-22
1.875e-06
1.68735e-23
1.40454e-22
1.875e-06
-2.68128e-23
1.83982e-22
1.875e-06
-5.70849e-23
1.70059e-22
1.875e-06
1.00333e-23
1.925e-22
1.875e-06
2.84385e-23
1.49795e-22
1.875e-06
-6.52034e-24
1.33277e-22
1.875e-06
-2.25225e-23
4.91728e-23
1.875e-06
-5.59471e-23
1.47189e-23
1.875e-06
-1.01366e-23
7.37132e-23
1.875e-06
-4.65605e-23
8.48599e-23
1.875e-06
7.90409e-23
1.03899e-22
1.875e-06
2.17315e-22
1.67794e-22
1.875e-06
1.53361e-22
6.91395e-23
1.875e-06
-6.69096e-23
5.42243e-23
1.875e-06
-2.48446e-23
1.54587e-22
1.875e-06
3.25587e-23
1.08764e-22
1.875e-06
5.13482e-23
-2.98761e-23
1.875e-06
-5.65578e-24
-1.15139e-23
1.875e-06
-3.67242e-23
1.59703e-23
1.875e-06
-7.8825e-23
-2.53385e-23
1.875e-06
-1.07651e-23
4.43706e-23
1.875e-06
-2.70871e-23
7.30578e-23
1.875e-06
7.78545e-23
-3.39288e-23
1.875e-06
-4.98463e-24
-7.91594e-23
1.875e-06
-4.80235e-23
-1.6465e-22
1.875e-06
9.40452e-23
-2.24254e-22
1.875e-06
1.28651e-22
-1.71448e-22
1.875e-06
-9.69293e-23
-2.86507e-22
1.875e-06
-9.09828e-23
-5.34373e-23
1.875e-06
-1.39405e-22
4.97156e-23
-1.41768e-22
4.0228e-23
1.875e-06
8.56503e-23
3.82285e-22
1.875e-06
1.58019e-22
4.30708e-22
1.875e-06
1.11162e-22
4.85437e-22
1.875e-06
1.75833e-23
4.27729e-22
1.875e-06
-3.77432e-23
4.08093e-22
1.875e-06
5.4272e-23
3.17229e-22
1.875e-06
8.53842e-23
4.2629e-22
1.875e-06
1.04818e-22
4.05055e-22
1.875e-06
-1.91272e-23
2.44504e-22
1.875e-06
-6.28475e-23
1.00702e-22
1.875e-06
-2.19069e-23
1.65895e-22
1.875e-06
2.02594e-23
1.61686e-22
1.875e-06
5.8332e-23
1.65151e-22
1.875e-06
5.88486e-23
1.4126e-22
1.875e-06
-1.12296e-24
2.54295e-22
1.875e-06
-5.74577e-23
1.44122e-22
1.875e-06
6.8061e-24
3.21921e-23
1.875e-06
3.66548e-23
9.30721e-23
1.875e-06
1.06798e-22
1.59501e-22
1.875e-06
-2.15112e-23
5.66424e-23
1.875e-06
5.42135e-23
1.1143e-22
1.875e-06
1.14805e-23
1.0363e-24
1.875e-06
1.4811e-23
1.20348e-22
1.875e-06
2.29252e-23
2.1847e-22
1.875e-06
-1.05795e-22
8.74553e-23
1.875e-06
-1.35802e-23
-1.03816e-22
1.875e-06
-8.14261e-24
-6.10623e-23
1.875e-06
-1.22728e-23
6.27993e-23
1.875e-06
-2.38178e-23
-1.47959e-23
1.875e-06
-6.47147e-23
5.14802e-23
1.875e-06
-8.28174e-24
1.1819e-22
1.875e-06
-5.08738e-23
-6.0204e-23
1.875e-06
1.34042e-23
-1.62379e-22
1.875e-06
-1.78115e-23
-1.46151e-22
1.875e-06
6.70206e-23
-3.21203e-22
1.875e-06
1.11131e-22
-2.39669e-22
1.875e-06
-9.02685e-23
-1.24942e-22
1.875e-06
-1.23548e-22
-5.66717e-23
1.875e-06
-4.15704e-23
7.87616e-23
1.25924e-22
1.04288e-22
1.875e-06
1.1471e-22
4.22876e-22
1.875e-06
9.7348e-23
5.10291e-22
1.875e-06
7.73254e-23
4.25665e-22
1.875e-06
2.63325e-23
4.64077e-22
1.875e-06
1.01627e-22
5.47821e-22
1.875e-06
6.60627e-23
3.85169e-22
1.875e-06
-2.02929e-23
3.52959e-22
1.875e-06
-3.6034e-23
2.79673e-22
1.875e-06
4.05447e-23
2.61321e-22
1.875e-06
8.69129e-23
1.86123e-22
1.875e-06
-9.69802e-25
1.71694e-22
1.875e-06
-6.70296e-23
1.25595e-22
1.875e-06
-1.55755e-23
1.39514e-22
1.875e-06
8.63681e-23
1.75976e-22
1.875e-06
3.65367e-23
2.5513e-22
1.875e-06
-4.86226e-23
1.5926e-22
1.875e-06
-6.94119e-23
5.8201e-23
1.875e-06
-2.01476e-23
1.09968e-22
1.875e-06
1.47227e-23
1.45637e-22
1.875e-06
1.63767e-22
1.40292e-22
1.875e-06
9.91911e-24
7.33342e-23
1.875e-06
-4.82094e-23
5.08117e-23
1.875e-06
-6.68779e-23
1.09511e-22
1.875e-06
-1.15825e-22
2.8286e-23
1.875e-06
1.80668e-23
1.73029e-22
1.875e-06
-1.6113e-22
-4.46363e-23
1.875e-06
-7.02108e-23
-8.89508e-23
1.875e-06
1.64452e-22
3.73093e-24
1.875e-06
6.30639e-23
-4.4293e-23
1.875e-06
-2.47476e-23
8.14558e-23
1.875e-06
2.24052e-23
-3.59233e-24
1.875e-06
-9.16915e-23
-6.21337e-23
1.875e-06
-1.99119e-22
-4.36005e-23
1.875e-06
1.64478e-23
-9.63143e-23
1.875e-06
3.02789e-23
-1.61002e-22
1.875e-06
-8.86408e-24
-2.43914e-22
1.875e-06
7.36909e-23
-2.43549e-22
1.875e-06
1.01499e-22
-6.73252e-23
1.875e-06
5.54854e-23
2.18284e-23
-1.12289e-22
-9.94465e-23
1.875e-06
9.46133e-23
4.02957e-22
1.875e-06
9.26398e-23
4.33585e-22
1.875e-06
7.92303e-23
4.28996e-22
1.875e-06
5.47366e-23
5.61776e-22
1.875e-06
1.58604e-24
5.78873e-22
1.875e-06
5.92188e-24
4.45447e-22
1.875e-06
-2.17823e-23
2.8012e-22
1.875e-06
-3.19665e-23
2.77725e-22
1.875e-06
1.23147e-22
2.7171e-22
1.875e-06
1.60174e-22
1.73032e-22
1.875e-06
1.83816e-24
1.83673e-22
1.875e-06
-9.50413e-24
2.09305e-22
1.875e-06
3.21265e-23
1.93529e-22
1.875e-06
9.88387e-23
1.78822e-22
1.875e-06
-5.43915e-23
1.94947e-22
1.875e-06
-2.91057e-23
8.6786e-23
1.875e-06
-6.18977e-23
5.82122e-23
1.875e-06
-6.94548e-23
1.34206e-22
1.875e-06
-7.31949e-23
2.99363e-22
1.875e-06
-1.77093e-23
9.43079e-23
1.875e-06
7.42462e-23
1.26043e-22
1.875e-06
2.75893e-23
5.94615e-23
1.875e-06
3.60061e-23
1.10176e-22
1.875e-06
1.59298e-23
7.94773e-23
1.875e-06
-1.17393e-22
3.67043e-24
1.875e-06
-8.46525e-23
5.60389e-23
1.875e-06
3.8679e-23
9.65524e-23
1.875e-06
8.31628e-23
-7.35057e-24
1.875e-06
9.27515e-23
-2.73611e-23
1.875e-06
-1.62811e-23
-3.98978e-23
1.875e-06
-2.93011e-23
-2.7291e-23
1.875e-06
-1.2777e-22
-6.24421e-23
1.875e-06
-1.30201e-22
1.64012e-23
1.875e-06
-3.85845e-23
-8.92897e-23
1.875e-06
1.0768e-22
-6.62235e-24
1.875e-06
-2.65838e-23
-1.23055e-22
1.875e-06
2.5013e-23
-2.89109e-22
1.875e-06
-7.06383e-23
-1.98245e-22
1.875e-06
-9.03388e-24
3.70264e-23
-7.93343e-23
-9.50077e-23
1.875e-06
-9.58734e-23
4.31001e-22
1.875e-06
7.68143e-23
5.0516e-22
1.875e-06
7.60027e-23
5.15942e-22
1.875e-06
-7.72988e-24
5.66218e-22
1.875e-06
-7.09212e-23
5.46249e-22
1.875e-06
-2.04766e-23
4.62257e-22
1.875e-06
5.94173e-23
3.28236e-22
1.875e-06
1.45749e-22
2.71442e-22
1.875e-06
1.09424e-23
2.06496e-22
1.875e-06
-6.72339e-23
1.68739e-22
1.875e-06
9.23545e-23
3.04743e-22
1.875e-06
5.61355e-23
1.83625e-22
1.875e-06
-6.19623e-23
1.86995e-22
1.875e-06
-1.44084e-22
1.40475e-22
1.875e-06
-4.18021e-23
2.17171e-22
1.875e-06
-1.0015e-23
1.24725e-22
1.875e-06
-1.02266e-22
1.52907e-23
1.875e-06
-1.24478e-23
1.19746e-22
1.875e-06
1.50623e-22
1.84198e-22
1.875e-06
7.06263e-23
6.24717e-23
1.875e-06
8.80819e-23
9.99305e-23
1.875e-06
-3.25483e-23
1.25809e-22
1.875e-06
-5.18013e-23
1.01898e-22
1.875e-06
-1.10443e-22
9.97577e-23
1.875e-06
-7.28121e-23
1.20374e-22
1.875e-06
5.44989e-23
1.22657e-22
1.875e-06
9.32394e-23
3.66448e-23
1.875e-06
6.77925e-23
2.856e-23
1.875e-06
1.96479e-23
-3.96425e-23
1.875e-06
3.25241e-23
-4.97702e-23
1.875e-06
-1.64769e-23
-7.28153e-23
1.875e-06
-6.82879e-23
-9.82643e-23
1.875e-06
-1.23555e-22
1.17333e-23
1.875e-06
-8.58336e-23
-4.01794e-23
1.875e-06
-1.32069e-22
-7.57616e-23
1.875e-06
1.08033e-22
-8.31436e-23
1.875e-06
8.32823e-23
-2.46575e-22
1.875e-06
8.76814e-24
-1.35077e-22
1.875e-06
-6.11632e-23
-5.45524e-23
-8.64665e-23
-1.45215e-22
1.875e-06
6.33959e-24
5.63723e-22
1.875e-06
-5.99511e-23
4.79408e-22
1.875e-06
-3.06092e-23
5.28846e-22
1.875e-06
1.2314e-23
5.2108e-22
1.875e-06
1.07387e-22
5.50356e-22
1.875e-06
-4.86924e-23
4.69331e-22
1.875e-06
-4.30591e-23
3.27766e-22
1.875e-06
5.9046e-23
2.12949e-22
1.875e-06
-3.25378e-24
2.20674e-22
1.875e-06
-3.49456e-23
2.47656e-22
1.875e-06
4.69231e-23
2.82859e-22
1.875e-06
2.08694e-23
2.16171e-22
1.875e-06
-4.62273e-23
2.39218e-22
1.875e-06
-1.11092e-22
2.07618e-22
1.875e-06
-9.15048e-23
1.95914e-22
1.875e-06
-7.78004e-23
-1.31178e-23
1.875e-06
4.53697e-23
3.1123e-24
1.875e-06
1.40656e-23
1.34487e-23
1.875e-06
-9.73414e-23
7.16004e-23
1.875e-06
1.68477e-22
1.31818e-22
1.875e-06
1.01513e-22
1.45368e-22
1.875e-06
1.0297e-22
1.67831e-22
1.875e-06
-2.25088e-23
1.84903e-22
1.875e-06
-1.45445e-22
9.67177e-23
1.875e-06
-5.848e-23
1.54931e-22
1.875e-06
-8.94741e-24
1.21333e-22
1.875e-06
5.05485e-23
9.33983e-24
1.875e-06
1.19734e-23
3.82221e-23
1.875e-06
1.91805e-23
-1.6301e-23
1.875e-06
-4.14856e-23
-1.15897e-22
1.875e-06
-8.9908e-23
-1.51652e-22
1.875e-06
-3.37189e-23
-1.35511e-22
1.875e-06
3.21786e-23
-7.34534e-23
1.875e-06
-4.89744e-23
-1.68695e-23
1.875e-06
-3.03052e-23
9.17688e-23
1.875e-06
-1.77579e-23
1.37413e-23
1.875e-06
7.35139e-23
-1.33358e-22
1.875e-06
1.61325e-22
-2.41999e-22
1.875e-06
5.16357e-23
-1.82222e-22
7.60611e-23
-9.55672e-23
1.875e-06
-4.74818e-23
4.68646e-22
1.875e-06
-1.024e-22
5.07012e-22
1.875e-06
1.18892e-23
5.61424e-22
1.875e-06
2.27069e-23
6.68651e-22
1.875e-06
-1.21684e-22
5.1635e-22
1.875e-06
-7.82787e-24
5.15207e-22
1.875e-06
9.84976e-23
3.88982e-22
1.875e-06
6.33684e-23
2.22382e-22
1.875e-06
-3.90291e-23
2.21359e-22
1.875e-06
1.65632e-23
2.6146e-22
1.875e-06
-6.22908e-24
2.66118e-22
1.875e-06
-1.27663e-22
2.56738e-22
1.875e-06
-1.01537e-22
3.53987e-22
1.875e-06
-1.8282e-23
2.11789e-22
1.875e-06
-6.60283e-23
1.20392e-22
1.875e-06
-7.80397e-23
1.95952e-23
1.875e-06
2.00183e-23
-5.40192e-23
1.875e-06
3.62589e-23
4.41503e-23
1.875e-06
2.14624e-22
1.69233e-22
1.875e-06
1.48518e-22
1.45619e-22
1.875e-06
7.86578e-23
5.43547e-23
1.875e-06
-4.83732e-23
1.0002e-22
1.875e-06
-1.08344e-22
1.9999e-22
1.875e-06
-6.48491e-23
1.62333e-22
1.875e-06
5.32585e-24
9.6368e-23
1.875e-06
-4.53248e-23
1.25537e-22
1.875e-06
-7.82092e-23
2.67523e-23
1.875e-06
-6.19396e-23
-2.33108e-23
1.875e-06
-1.0303e-22
-1.06607e-24
1.875e-06
7.51434e-23
-3.37025e-23
1.875e-06
6.64861e-23
-2.12568e-22
1.875e-06
-2.16907e-23
-2.05909e-22
1.875e-06
-1.03974e-22
-1.89244e-22
1.875e-06
-6.88898e-23
-8.92888e-23
1.875e-06
6.52862e-23
4.34096e-23
1.875e-06
-6.61652e-24
5.72509e-23
1.875e-06
4.39624e-23
-1.08655e-22
1.875e-06
-1.4204e-23
-2.87608e-22
1.875e-06
-1.36607e-24
-1.88709e-22
8.65145e-23
-1.27946e-22
1.875e-06
-1.01308e-22
4.70636e-22
1.875e-06
-7.68321e-23
6.22309e-22
1.875e-06
4.92509e-23
5.0479e-22
1.875e-06
2.04757e-23
6.08693e-22
1.875e-06
2.45468e-23
6.20028e-22
1.875e-06
-4.43356e-23
4.6745e-22
1.875e-06
-2.28038e-23
3.13694e-22
1.875e-06
-6.30323e-23
2.29073e-22
1.875e-06
4.47531e-23
3.31261e-22
1.875e-06
-9.73761e-24
2.38629e-22
1.875e-06
-6.70193e-23
2.59384e-22
1.875e-06
1.61137e-23
3.72354e-22
1.875e-06
-7.51659e-23
3.47525e-22
1.875e-06
-5.23293e-23
3.05318e-22
1.875e-06
8.18951e-24
1.55207e-22
1.875e-06
-1.55367e-23
-1.70281e-23
1.875e-06
-7.93689e-24
-3.47885e-23
1.875e-06
9.22098e-23
6.73057e-23
1.875e-06
5.20985e-23
1.56754e-22
1.875e-06
1.25395e-22
8.43228e-23
1.875e-06
8.61245e-23
4.39291e-23
1.875e-06
8.16355e-23
9.23205e-23
1.875e-06
-4.51668e-23
1.49755e-22
1.875e-06
-1.92867e-23
2.29187e-22
1.875e-06
-1.09675e-22
1.09138e-22
1.875e-06
1.37751e-23
1.60747e-22
1.875e-06
-1.46857e-22
1.2121e-23
1.875e-06
-7.39233e-23
-2.81758e-23
1.875e-06
-1.20764e-23
4.63253e-23
1.875e-06
-9.06154e-23
-8.19515e-23
1.875e-06
-8.71783e-23
-2.33339e-22
1.875e-06
-3.48339e-23
-1.41024e-22
1.875e-06
6.43083e-23
-1.73858e-22
1.875e-06
5.99293e-23
-1.34419e-22
1.875e-06
4.83754e-23
-4.63784e-23
1.875e-06
3.89943e-23
7.11584e-23
1.875e-06
-3.77135e-23
-1.22287e-22
1.875e-06
-6.83103e-24
-1.67577e-22
1.875e-06
5.05093e-23
-2.19021e-22
2.33725e-23
-2.25987e-22
1.875e-06
-6.71212e-23
4.70213e-22
1.875e-06
-1.0337e-22
6.43378e-22
1.875e-06
-1.68834e-22
6.10315e-22
1.875e-06
-2.15345e-23
6.45393e-22
1.875e-06
1.15653e-22
5.61476e-22
1.875e-06
6.3546e-23
5.32757e-22
1.875e-06
-9.79344e-23
3.59947e-22
1.875e-06
-1.06701e-22
2.89544e-22
1.875e-06
-6.23911e-23
3.33388e-22
1.875e-06
-3.31895e-24
3.96455e-22
1.875e-06
-1.54484e-24
3.15261e-22
1.875e-06
2.88661e-23
2.51904e-22
1.875e-06
-3.43569e-23
3.89849e-22
1.875e-06
-5.79152e-23
2.79759e-22
1.875e-06
1.1441e-23
1.6732e-22
1.875e-06
-2.9184e-23
5.81887e-23
1.875e-06
4.45225e-23
3.758e-23
1.875e-06
1.31679e-22
1.40985e-23
1.875e-06
2.56237e-22
5.24019e-23
1.875e-06
1.52235e-22
2.5342e-23
1.875e-06
-6.69662e-23
3.477e-23
1.875e-06
-1.40543e-22
1.37132e-22
1.875e-06
1.50613e-23
2.26525e-22
1.875e-06
1.32471e-23
1.7765e-22
1.875e-06
-3.10185e-24
2.05741e-22
1.875e-06
-9.53806e-23
5.6334e-23
1.875e-06
1.05552e-23
8.3717e-23
1.875e-06
-1.4555e-22
-3.08097e-23
1.875e-06
-1.65624e-22
-2.59832e-23
1.875e-06
-2.03095e-23
-4.63043e-23
1.875e-06
3.31546e-24
-1.60606e-22
1.875e-06
-4.39661e-23
-1.90749e-22
1.875e-06
-4.77185e-23
-1.93422e-22
1.875e-06
3.19831e-23
-1.26807e-22
1.875e-06
7.35036e-23
-1.12144e-22
1.875e-06
2.16531e-23
-7.28907e-23
1.875e-06
-5.26485e-23
-1.21293e-22
1.875e-06
-9.31334e-24
-1.92706e-22
1.875e-06
4.48799e-23
-2.98324e-22
6.19015e-23
-1.92345e-22
1.875e-06
-3.40023e-23
4.9678e-22
1.875e-06
9.97155e-24
7.17208e-22
1.875e-06
-2.56017e-23
7.09088e-22
1.875e-06
-7.86654e-23
6.86367e-22
1.875e-06
-9.15694e-23
5.23121e-22
1.875e-06
-3.46158e-23
4.78604e-22
1.875e-06
-3.52764e-23
4.10203e-22
1.875e-06
-4.41942e-24
2.67126e-22
1.875e-06
-3.95723e-23
4.31005e-22
1.875e-06
-5.33695e-23
4.18966e-22
1.875e-06
-1.60317e-24
3.32968e-22
1.875e-06
2.60866e-23
2.93117e-22
1.875e-06
1.39525e-22
4.19597e-22
1.875e-06
6.66517e-23
2.49628e-22
1.875e-06
-4.12134e-23
1.14102e-22
1.875e-06
2.68332e-24
1.44236e-22
1.875e-06
-8.43428e-23
7.68352e-23
1.875e-06
-7.1534e-23
-1.02261e-22
1.875e-06
9.95236e-23
-1.31364e-22
1.875e-06
-2.35541e-24
-4.51817e-23
1.875e-06
8.56204e-24
5.62524e-23
1.875e-06
4.30715e-23
2.38061e-22
1.875e-06
1.42726e-23
2.40415e-22
1.875e-06
-1.68206e-23
1.92849e-22
1.875e-06
1.19944e-23
1.54116e-22
1.875e-06
1.93755e-23
5.1811e-23
1.875e-06
7.73435e-23
1.02309e-22
1.875e-06
-6.44394e-24
3.85808e-23
1.875e-06
-1.19518e-22
3.79281e-23
1.875e-06
-1.06238e-22
1.97255e-23
1.875e-06
-1.13882e-22
-1.60758e-22
1.875e-06
-9.05441e-23
-3.04264e-22
1.875e-06
-5.87128e-23
-3.32119e-22
1.875e-06
8.81178e-23
-1.33163e-22
1.875e-06
7.63548e-23
-4.14354e-23
1.875e-06
3.12988e-23
-9.21505e-23
1.875e-06
9.07523e-23
-9.9509e-23
1.875e-06
8.99085e-24
-2.16742e-22
1.875e-06
-1.25613e-23
-3.44607e-22
1.43154e-23
-2.36574e-22
1.875e-06
8.86783e-23
5.76786e-22
1.875e-06
5.69799e-23
6.47623e-22
1.875e-06
-1.70708e-23
6.24144e-22
1.875e-06
-8.33224e-23
6.07227e-22
1.875e-06
-5.37907e-23
5.66667e-22
1.875e-06
8.58245e-25
5.60582e-22
1.875e-06
-3.3933e-23
4.0789e-22
1.875e-06
-1.64605e-22
2.70912e-22
1.875e-06
-1.12699e-22
3.65142e-22
1.875e-06
8.71606e-23
5.19639e-22
1.875e-06
-2.00443e-22
3.14958e-22
1.875e-06
4.65373e-22
3.39139e-22
1.875e-06
3.71304e-23
2.89893e-22
1.875e-06
5.17846e-23
2.52577e-22
1.875e-06
-1.06808e-23
2.67848e-22
1.875e-06
-4.66067e-23
1.80995e-22
1.875e-06
-2.56406e-23
5.53639e-23
1.875e-06
-1.15302e-22
-2.14495e-22
1.875e-06
-1.02937e-22
-1.51968e-22
1.875e-06
-6.66045e-23
-4.14888e-23
1.875e-06
-4.87275e-23
4.72772e-24
1.875e-06
3.51683e-24
1.3591e-22
1.875e-06
-9.32707e-24
2.75204e-22
1.875e-06
7.9465e-23
1.75699e-22
1.875e-06
1.40827e-22
1.87279e-22
1.875e-06
3.30803e-23
1.12369e-22
1.875e-06
-3.21589e-23
9.46558e-23
1.875e-06
2.75452e-23
7.23495e-23
1.875e-06
-1.08924e-22
1.05061e-22
1.875e-06
2.39307e-22
-5.61609e-23
1.875e-06
-9.50868e-23
-1.27082e-22
1.875e-06
-8.859e-23
-2.87515e-22
1.875e-06
5.76136e-23
-3.1185e-22
1.875e-06
-1.73204e-22
-1.82076e-22
1.875e-06
-1.04963e-22
-1.12663e-22
1.875e-06
1.415e-22
-9.13125e-23
1.875e-06
7.8097e-23
-2.1685e-22
1.875e-06
1.1432e-22
-2.59027e-22
1.875e-06
-1.91128e-23
-3.47886e-22
-1.38121e-23
-1.9207e-22
1.875e-06
1.27259e-22
5.10294e-22
1.875e-06
6.80427e-23
6.10677e-22
1.875e-06
-8.2768e-23
6.47879e-22
1.875e-06
-6.5092e-23
5.56598e-22
1.875e-06
-1.3384e-23
5.88785e-22
1.875e-06
-7.92398e-23
5.1371e-22
1.875e-06
-4.58337e-24
4.0755e-22
1.875e-06
3.37306e-23
2.61618e-22
1.875e-06
1.66892e-23
3.83659e-22
1.875e-06
5.95703e-23
4.64461e-22
1.875e-06
3.63617e-23
3.86829e-22
1.875e-06
7.52205e-23
3.74453e-22
1.875e-06
4.11547e-23
3.92264e-22
1.875e-06
6.33325e-23
2.41427e-22
1.875e-06
-7.46931e-23
2.55283e-22
1.875e-06
-1.28009e-22
1.43179e-22
1.875e-06
-5.47135e-23
-6.69524e-23
1.875e-06
-9.48667e-23
-1.65334e-22
1.875e-06
-1.65554e-22
-1.15916e-22
1.875e-06
-1.13111e-22
1.76396e-24
1.875e-06
1.61268e-23
3.62904e-23
1.875e-06
-1.15984e-23
9.22782e-23
1.875e-06
1.99874e-23
2.56491e-22
1.875e-06
8.08904e-23
1.52987e-22
1.875e-06
3.05918e-23
4.22442e-23
1.875e-06
2.18095e-23
1.75468e-22
1.875e-06
-4.7583e-23
1.52708e-22
1.875e-06
1.33877e-22
1.1081e-23
1.875e-06
1.5394e-22
1.08537e-22
1.875e-06
5.39023e-24
-1.50211e-22
1.875e-06
8.22326e-23
-1.21155e-22
1.875e-06
-2.77978e-23
-2.99439e-22
1.875e-06
3.27645e-23
-2.67205e-22
1.875e-06
3.39069e-23
-4.69426e-23
1.875e-06
1.40391e-23
-2.49093e-23
1.875e-06
1.56994e-23
-1.49731e-22
1.875e-06
-3.81801e-23
-9.13029e-23
1.875e-06
-9.56816e-23
-2.53449e-22
1.875e-06
-9.43312e-23
-3.90412e-22
-1.00791e-22
-2.68704e-22
1.875e-06
3.99666e-23
4.50025e-22
1.875e-06
-9.34256e-23
6.02254e-22
1.875e-06
-7.32032e-23
6.24315e-22
1.875e-06
-3.27126e-23
4.63759e-22
1.875e-06
-8.4188e-23
3.80149e-22
1.875e-06
5.92224e-23
5.22642e-22
1.875e-06
8.24334e-24
4.47352e-22
1.875e-06
3.62229e-23
3.57142e-22