/*--------------------------------*- C++ -*----------------------------------*\
| =========                 |                                                 |
| \\      /  F ield         | OpenFOAM: The Open Source CFD Toolbox           |
|  \\    /   O peration     | Version:  v2012                                 |
|   \\  /    A nd           | Website:  www.openfoam.com                      |
|    \\/     M anipulation  |                                                 |
\*---------------------------------------------------------------------------*/
FoamFile
{
    version     2.0;
    format      ascii;
    class       volVectorField;
    location    "6";
    object      U;
}
// * * * * * * * * * * * * * * * * * * * * * * * * * * * * * * * * * * * * * //

dimensions      [0 1 -1 0 0 0 0];


internalField   nonuniform List<vector> 
64000
(
(0.003 8.82417e-20 -8.85113e-21)
(0.003 1.39897e-19 9.61577e-20)
(0.003 6.30415e-20 1.35271e-19)
(0.003 5.3417e-20 1.88536e-19)
(0.003 2.25101e-19 1.73928e-19)
(0.003 2.6864e-19 1.38347e-19)
(0.003 1.15095e-19 9.66741e-20)
(0.003 7.15217e-21 3.68697e-20)
(0.003 8.12723e-20 1.34257e-20)
(0.003 1.2573e-19 -6.87662e-20)
(0.003 1.17142e-19 6.12034e-20)
(0.003 1.01757e-19 1.64223e-19)
(0.003 -5.73137e-21 6.89476e-20)
(0.003 1.61833e-20 2.02043e-20)
(0.003 7.30217e-20 1.06398e-19)
(0.003 9.12759e-20 1.12592e-19)
(0.003 2.6235e-20 8.57096e-20)
(0.003 -6.25419e-20 3.38686e-20)
(0.003 -1.22456e-19 -3.26087e-19)
(0.003 -3.01076e-19 -4.21113e-19)
(0.003 -4.10953e-19 -2.5837e-19)
(0.003 -4.28532e-20 1.19776e-20)
(0.003 1.46869e-19 7.24634e-20)
(0.003 2.93653e-19 7.24096e-20)
(0.003 2.91572e-19 1.3654e-19)
(0.003 7.49658e-20 1.29068e-19)
(0.003 -7.59371e-20 1.01703e-19)
(0.003 2.18474e-20 9.42044e-20)
(0.003 6.81129e-20 8.10334e-20)
(0.003 -6.52686e-20 1.3472e-19)
(0.003 -1.89454e-19 7.21483e-20)
(0.003 -1.47078e-19 2.01034e-20)
(0.003 -9.31653e-20 7.1214e-20)
(0.003 -1.80086e-19 -2.07111e-19)
(0.003 -1.53277e-20 -3.05219e-19)
(0.003 7.8615e-20 -1.30991e-19)
(0.003 -6.92681e-20 -1.12273e-19)
(0.003 -8.90451e-20 -2.66093e-20)
(0.003 -5.17683e-20 7.75917e-20)
(0.003 -1.04961e-19 5.37614e-20)
(0.003 1.67035e-19 4.46968e-20)
(0.003 1.73093e-19 2.49748e-19)
(0.003 7.66069e-20 2.83055e-19)
(0.003 4.07878e-20 2.36347e-19)
(0.003 5.54111e-20 1.94725e-19)
(0.003 1.19119e-19 2.04113e-19)
(0.003 1.51338e-19 1.54836e-19)
(0.003 1.34137e-19 1.15394e-19)
(0.003 9.65944e-20 1.47381e-19)
(0.003 6.85491e-20 1.42144e-19)
(0.003 8.28235e-20 1.26172e-19)
(0.003 1.01345e-19 1.36023e-19)
(0.003 3.52341e-20 9.92746e-20)
(0.003 -6.30936e-21 9.91697e-20)
(0.003 -2.25124e-20 1.43145e-19)
(0.003 3.76737e-21 1.12801e-19)
(0.003 6.25361e-20 2.9069e-20)
(0.003 1.11119e-19 7.15879e-20)
(0.003 1.48499e-19 -1.81754e-19)
(0.003 6.10709e-21 -4.13041e-19)
(0.003 -2.47686e-19 -2.34938e-19)
(0.003 -3.41071e-19 3.26348e-20)
(0.003 -1.03683e-21 9.83743e-20)
(0.003 1.9616e-19 2.55522e-19)
(0.003 7.52918e-20 2.35349e-19)
(0.003 -2.83065e-20 3.54656e-20)
(0.003 -2.44157e-20 -1.9765e-20)
(0.003 1.26314e-20 1.43132e-19)
(0.003 1.18063e-20 1.63976e-19)
(0.003 -6.01825e-20 9.35743e-20)
(0.003 -1.31062e-19 1.01342e-20)
(0.003 -1.11183e-19 -9.81661e-21)
(0.003 -1.83044e-19 5.06385e-20)
(0.003 -1.65512e-19 -1.38748e-19)
(0.003 -9.80934e-20 -1.81084e-19)
(0.003 -7.17771e-20 -1.18526e-19)
(0.003 -3.48774e-20 -1.65957e-19)
(0.003 7.82804e-20 -1.23315e-19)
(0.003 1.17418e-19 1.9615e-20)
(0.003 6.57338e-20 8.77851e-20)
(0.003 1.80818e-19 1.09839e-19)
(0.003 2.21413e-19 1.84309e-19)
(0.003 1.92332e-19 2.90102e-19)
(0.003 1.4512e-19 2.99513e-19)
(0.003 -4.25409e-20 2.09207e-19)
(0.003 -3.42724e-20 1.90356e-19)
(0.003 8.65918e-20 2.09311e-19)
(0.003 1.72054e-19 2.63924e-19)
(0.003 1.26039e-19 2.07637e-19)
(0.003 1.58727e-20 5.13239e-20)
(0.003 -1.46016e-20 8.20386e-20)
(0.003 2.6103e-20 1.55966e-19)
(0.003 1.38405e-19 9.05435e-20)
(0.003 8.77375e-20 9.04831e-20)
(0.003 1.10794e-20 1.3102e-19)
(0.003 6.71981e-21 1.23538e-19)
(0.003 2.00986e-20 1.47442e-19)
(0.003 1.15762e-19 7.11306e-20)
(0.003 1.40619e-19 -2.07505e-19)
(0.003 1.68859e-20 -4.15604e-19)
(0.003 -1.58518e-19 -1.61251e-19)
(0.003 -2.56899e-19 2.54959e-20)
(0.003 -4.42984e-20 1.27861e-19)
(0.003 6.37366e-20 2.97594e-19)
(0.003 -2.8714e-20 2.19933e-19)
(0.003 -3.36753e-20 2.29706e-20)
(0.003 2.74978e-20 -2.71979e-21)
(0.003 -2.43624e-20 1.76363e-19)
(0.003 -6.58091e-20 1.09923e-19)
(0.003 -5.36587e-20 1.07601e-19)
(0.003 6.28632e-20 1.60068e-19)
(0.003 5.58171e-20 8.34366e-20)
(0.003 -7.23268e-20 2.01513e-20)
(0.003 -1.35585e-19 -1.1056e-19)
(0.003 -1.89514e-19 -1.36452e-19)
(0.003 -2.02606e-19 -1.45675e-19)
(0.003 -2.7752e-20 -2.05376e-19)
(0.003 5.76556e-20 -1.293e-19)
(0.003 1.14268e-19 3.49194e-20)
(0.003 1.67892e-19 2.80103e-21)
(0.003 2.71169e-19 1.95563e-19)
(0.003 2.30952e-19 3.66828e-19)
(0.003 1.10838e-19 3.05156e-19)
(0.003 9.87931e-20 3.29785e-19)
(0.003 3.17586e-20 2.66395e-19)
(0.003 -5.78611e-21 2.68662e-19)
(0.003 8.30029e-21 2.24042e-19)
(0.003 1.17325e-20 2.06785e-19)
(0.003 8.40617e-20 2.69428e-19)
(0.003 1.7106e-19 1.18505e-19)
(0.003 1.02748e-19 6.68879e-20)
(0.003 5.52127e-20 1.69928e-19)
(0.003 2.36329e-20 1.8128e-19)
(0.003 -4.24801e-20 1.48155e-19)
(0.003 8.09166e-20 1.65016e-19)
(0.003 2.06553e-19 1.39865e-19)
(0.003 8.5535e-20 1.15613e-19)
(0.003 -1.86114e-20 8.2741e-20)
(0.003 -1.59934e-19 -2.70363e-19)
(0.003 -1.01724e-19 -4.76814e-19)
(0.003 -1.82233e-20 -7.09821e-20)
(0.003 2.17549e-20 1.4241e-19)
(0.003 5.57101e-20 1.94413e-19)
(0.003 -3.50492e-20 3.79561e-19)
(0.003 -7.41533e-20 2.29709e-19)
(0.003 -6.36547e-20 4.99167e-20)
(0.003 2.1025e-21 5.18085e-21)
(0.003 7.34845e-20 1.6927e-20)
(0.003 7.12606e-21 5.78369e-20)
(0.003 -5.88825e-20 6.24725e-20)
(0.003 1.27039e-20 1.12374e-19)
(0.003 -3.10434e-21 1.96055e-20)
(0.003 1.54205e-21 -1.85612e-20)
(0.003 -6.3683e-20 -6.70955e-20)
(0.003 -8.82237e-20 -1.92551e-19)
(0.003 -2.04503e-20 -1.88518e-19)
(0.003 -2.00481e-20 -1.99771e-19)
(0.003 -4.97369e-20 -3.06073e-20)
(0.003 4.841e-20 5.59332e-20)
(0.003 7.18112e-20 9.31783e-21)
(0.003 -2.34025e-20 2.7133e-19)
(0.003 -3.21099e-20 4.5851e-19)
(0.003 -3.88485e-20 3.5175e-19)
(0.003 -5.3365e-20 2.78733e-19)
(0.003 1.00181e-20 2.99486e-19)
(0.003 -1.62248e-20 2.7428e-19)
(0.003 3.73542e-20 2.47191e-19)
(0.003 4.23662e-20 2.23921e-19)
(0.003 6.16261e-20 2.19839e-19)
(0.003 1.08196e-19 2.47856e-19)
(0.003 9.26394e-20 2.10622e-19)
(0.003 6.56891e-20 2.02649e-19)
(0.003 -3.48481e-20 1.10941e-19)
(0.003 -4.69779e-20 9.88783e-20)
(0.003 6.03402e-20 2.23244e-19)
(0.003 1.61579e-19 2.31727e-19)
(0.003 9.23451e-20 7.05087e-20)
(0.003 -1.06111e-19 1.01677e-20)
(0.003 -2.70875e-19 -2.06343e-19)
(0.003 -1.51922e-19 -3.66698e-19)
(0.003 -5.03692e-20 -1.71829e-19)
(0.003 1.07327e-19 1.34356e-19)
(0.003 1.62976e-19 2.67147e-19)
(0.003 -5.72295e-20 2.76648e-19)
(0.003 -6.79853e-20 1.90085e-19)
(0.003 -9.88256e-21 5.29e-20)
(0.003 8.44579e-20 4.98388e-20)
(0.003 1.30322e-19 1.04984e-19)
(0.003 5.75772e-20 6.58712e-20)
(0.003 4.83751e-20 -1.06038e-19)
(0.003 9.44664e-21 -4.27847e-20)
(0.003 -5.45478e-20 7.40869e-20)
(0.003 -9.78338e-20 -3.30414e-20)
(0.003 -8.25655e-20 -1.80212e-19)
(0.003 1.50083e-20 -2.04486e-19)
(0.003 -9.62194e-21 -1.84095e-19)
(0.003 -4.26573e-20 -2.27428e-19)
(0.003 4.27234e-20 -3.29499e-20)
(0.003 5.97735e-21 9.92984e-20)
(0.003 -2.92872e-20 8.44186e-21)
(0.003 -1.05426e-19 3.07203e-19)
(0.003 -6.04344e-20 3.78879e-19)
(0.003 -3.3627e-20 2.89577e-19)
(0.003 5.03742e-20 3.09908e-19)
(0.003 8.91245e-20 3.50438e-19)
(0.003 6.0315e-20 2.92737e-19)
(0.003 1.56253e-20 2.54303e-19)
(0.003 6.87045e-20 2.96806e-19)
(0.003 9.34369e-20 2.90609e-19)
(0.003 4.22531e-20 2.18496e-19)
(0.003 2.24801e-20 1.69455e-19)
(0.003 2.42916e-20 2.33181e-19)
(0.003 1.14112e-19 1.57746e-19)
(0.003 1.30696e-19 6.60303e-20)
(0.003 -1.56855e-20 2.19198e-19)
(0.003 -1.20698e-19 3.15096e-19)
(0.003 -1.24227e-19 1.05476e-19)
(0.003 -1.51899e-19 -3.67214e-20)
(0.003 -1.6461e-19 -1.70048e-19)
(0.003 -9.12529e-20 -2.64088e-19)
(0.003 2.46981e-20 -1.62468e-19)
(0.003 9.76789e-20 1.29455e-19)
(0.003 8.71122e-20 3.30035e-19)
(0.003 2.97295e-20 2.29575e-19)
(0.003 8.3585e-20 1.14361e-19)
(0.003 1.50915e-19 6.8061e-20)
(0.003 8.38e-20 5.13928e-20)
(0.003 -9.49035e-20 1.05576e-20)
(0.003 -6.79606e-20 3.45791e-20)
(0.003 8.01449e-20 8.42006e-20)
(0.003 1.26847e-19 1.32861e-19)
(0.003 3.52643e-20 9.01172e-21)
(0.003 -1.28967e-19 -1.36794e-19)
(0.003 -1.16776e-19 -2.38971e-19)
(0.003 -9.72472e-20 -2.89055e-19)
(0.003 -9.9954e-20 -2.34646e-19)
(0.003 -8.48885e-20 -1.59759e-19)
(0.003 1.00008e-19 5.22361e-20)
(0.003 1.35964e-19 8.30812e-20)
(0.003 8.81268e-20 5.48753e-21)
(0.003 6.45127e-21 3.67689e-19)
(0.003 1.04516e-19 4.42987e-19)
(0.003 1.5804e-19 3.26196e-19)
(0.003 1.67449e-19 3.85299e-19)
(0.003 1.25043e-19 3.92023e-19)
(0.003 -2.35613e-20 3.35548e-19)
(0.003 -4.53033e-20 2.91538e-19)
(0.003 8.19969e-20 2.81195e-19)
(0.003 4.30126e-20 3.08696e-19)
(0.003 2.92216e-20 3.03156e-19)
(0.003 8.80446e-20 2.85644e-19)
(0.003 7.04988e-20 1.97858e-19)
(0.003 1.34822e-19 1.16932e-19)
(0.003 1.69721e-19 8.51341e-20)
(0.003 3.33272e-20 1.91912e-19)
(0.003 -1.15392e-19 2.64097e-19)
(0.003 -1.50821e-19 9.44114e-20)
(0.003 -1.50055e-19 -7.74169e-21)
(0.003 -6.17739e-20 -1.38526e-19)
(0.003 1.64414e-21 -1.67911e-19)
(0.003 1.39223e-19 -1.40489e-19)
(0.003 1.05976e-19 4.46278e-20)
(0.003 -3.71838e-20 2.43086e-19)
(0.003 -3.37825e-21 3.08597e-19)
(0.003 3.58792e-20 2.67723e-19)
(0.003 7.65089e-21 8.79869e-20)
(0.003 -1.0594e-19 -3.37599e-20)
(0.003 -1.45778e-19 5.53428e-20)
(0.003 -3.42151e-20 8.77566e-20)
(0.003 7.18316e-20 3.71475e-20)
(0.003 1.47746e-19 7.58574e-20)
(0.003 1.09487e-19 -2.48038e-20)
(0.003 2.1033e-20 -2.22227e-19)
(0.003 6.20033e-20 -2.77119e-19)
(0.003 3.9795e-21 -3.62293e-19)
(0.003 -7.55571e-20 -2.89848e-19)
(0.003 -5.78374e-20 -2.50922e-19)
(0.003 -2.91253e-20 2.4175e-20)
(0.003 7.90777e-21 7.841e-20)
(0.003 2.47103e-20 -7.20331e-20)
(0.003 2.67992e-19 2.83621e-19)
(0.003 2.11835e-19 3.98249e-19)
(0.003 1.55898e-19 4.21259e-19)
(0.003 1.55214e-19 4.86371e-19)
(0.003 9.75297e-20 4.39308e-19)
(0.003 -6.35864e-21 3.40062e-19)
(0.003 7.39091e-21 2.89968e-19)
(0.003 5.06605e-20 3.71495e-19)
(0.003 -9.57251e-21 3.14801e-19)
(0.003 6.01794e-20 2.01746e-19)
(0.003 1.38396e-19 3.12006e-19)
(0.003 1.45735e-19 2.97258e-19)
(0.003 8.80667e-20 2.18288e-19)
(0.003 5.66029e-20 1.1674e-19)
(0.003 4.85196e-20 1.48956e-19)
(0.003 5.32859e-20 1.7735e-19)
(0.003 1.06676e-20 3.67815e-20)
(0.003 -6.15999e-20 -5.45326e-20)
(0.003 4.2804e-20 -9.5078e-20)
(0.003 -4.46935e-21 -7.06502e-20)
(0.003 7.44557e-20 -4.27284e-20)
(0.003 1.34286e-19 1.14194e-19)
(0.003 -6.18277e-21 2.86323e-19)
(0.003 -2.85036e-20 3.1304e-19)
(0.003 -7.25349e-20 2.73809e-19)
(0.003 -7.73183e-20 7.3545e-20)
(0.003 -1.52302e-19 -7.28114e-20)
(0.003 -1.76519e-19 -9.03257e-21)
(0.003 -6.22988e-20 1.84231e-20)
(0.003 5.18342e-20 8.29415e-20)
(0.003 2.36107e-20 1.49251e-19)
(0.003 1.23492e-19 2.01059e-20)
(0.003 3.34539e-19 -1.01006e-19)
(0.003 2.13695e-19 -2.80868e-19)
(0.003 9.11914e-21 -4.26118e-19)
(0.003 -6.57263e-20 -3.39902e-19)
(0.003 -7.96914e-20 -3.73358e-19)
(0.003 -1.10376e-19 -6.72379e-20)
(0.003 -1.70265e-19 6.25553e-20)
(0.003 -1.54203e-19 -4.47323e-20)
(0.003 7.51678e-20 3.53081e-19)
(0.003 1.53403e-19 5.50302e-19)
(0.003 2.00797e-19 3.96269e-19)
(0.003 1.54821e-19 5.00839e-19)
(0.003 9.8506e-20 5.13463e-19)
(0.003 1.66744e-19 4.00198e-19)
(0.003 1.04046e-19 3.84111e-19)
(0.003 -5.12434e-20 3.34193e-19)
(0.003 -2.46575e-20 2.36119e-19)
(0.003 5.25129e-20 2.84628e-19)
(0.003 4.62495e-20 3.5501e-19)
(0.003 6.62621e-21 3.5181e-19)
(0.003 -1.04897e-19 2.12319e-19)
(0.003 -9.08115e-20 1.3449e-19)
(0.003 8.55151e-20 1.56667e-19)
(0.003 1.50121e-19 1.82043e-19)
(0.003 1.1134e-19 6.14351e-20)
(0.003 4.99355e-20 -2.35956e-21)
(0.003 6.66101e-20 1.93346e-20)
(0.003 5.98719e-21 1.31433e-20)
(0.003 -4.39671e-20 1.40771e-20)
(0.003 6.83878e-20 1.43756e-19)
(0.003 8.57278e-20 2.72106e-19)
(0.003 -1.7105e-21 3.94633e-19)
(0.003 -1.49269e-20 2.61735e-19)
(0.003 -3.74157e-20 -5.11649e-20)
(0.003 -1.72868e-19 -1.21369e-19)
(0.003 -2.42182e-19 -2.08566e-21)
(0.003 3.08119e-20 -2.6941e-20)
(0.003 7.5607e-20 2.24092e-20)
(0.003 -3.99549e-20 7.87225e-20)
(0.003 7.18259e-20 5.62243e-20)
(0.003 1.94042e-19 1.0888e-20)
(0.003 1.03462e-19 -3.02989e-19)
(0.003 1.32641e-20 -4.8621e-19)
(0.003 2.34444e-20 -4.28231e-19)
(0.003 1.42134e-20 -3.34393e-19)
(0.003 -1.6351e-19 -1.28028e-19)
(0.003 -2.70239e-19 1.14252e-20)
(0.003 -1.9397e-19 2.92688e-20)
(0.003 -1.30436e-19 3.73741e-19)
(0.003 4.06655e-20 5.05553e-19)
(0.003 2.51864e-19 5.64443e-19)
(0.003 2.1933e-19 5.77137e-19)
(0.003 9.46305e-20 5.38566e-19)
(0.003 1.56496e-19 4.53833e-19)
(0.003 2.09326e-19 4.25948e-19)
(0.003 5.6425e-20 3.6575e-19)
(0.003 1.52946e-20 2.23685e-19)
(0.003 -8.01148e-20 1.95916e-19)
(0.003 -8.5443e-20 2.77591e-19)
(0.003 -5.48659e-20 3.50435e-19)
(0.003 -2.14737e-20 2.33463e-19)
(0.003 5.19169e-21 1.63199e-19)
(0.003 5.13156e-20 2.64707e-19)
(0.003 -1.76147e-20 2.37489e-19)
(0.003 -5.94182e-20 6.92821e-20)
(0.003 1.11506e-20 -3.59542e-20)
(0.003 4.88252e-21 -1.89111e-20)
(0.003 3.79953e-20 1.59726e-20)
(0.003 1.77624e-19 8.68633e-20)
(0.003 1.31559e-19 1.65656e-19)
(0.003 -1.32103e-20 3.50598e-19)
(0.003 -4.63272e-20 3.39416e-19)
(0.003 3.95179e-20 2.44505e-19)
(0.003 4.65009e-20 -2.8346e-20)
(0.003 -3.50431e-20 -2.34177e-19)
(0.003 -1.17827e-19 -1.69986e-19)
(0.003 -1.62594e-20 1.72693e-20)
(0.003 7.06224e-21 1.06773e-19)
(0.003 2.20724e-21 1.06725e-19)
(0.003 8.82704e-20 3.27782e-20)
(0.003 3.97934e-20 -6.31214e-20)
(0.003 3.20078e-21 -3.12747e-19)
(0.003 1.52234e-19 -4.75432e-19)
(0.003 1.48339e-19 -3.9192e-19)
(0.003 1.54187e-21 -3.30772e-19)
(0.003 -1.64918e-19 -1.3594e-19)
(0.003 -2.97592e-19 3.62874e-20)
(0.003 -2.01991e-19 2.16213e-20)
(0.003 9.03866e-20 4.07548e-19)
(0.003 1.83455e-19 6.53108e-19)
(0.003 1.73421e-19 6.50765e-19)
(0.003 1.39174e-19 6.22759e-19)
(0.003 7.45881e-20 5.56742e-19)
(0.003 9.67376e-20 5.03751e-19)
(0.003 1.75347e-19 5.20581e-19)
(0.003 7.9941e-20 3.6901e-19)
(0.003 -2.10163e-20 2.89241e-19)
(0.003 -4.19225e-20 2.23648e-19)
(0.003 -1.83498e-20 2.04124e-19)
(0.003 -3.90593e-20 2.92097e-19)
(0.003 6.77653e-20 2.48133e-19)
(0.003 9.95099e-20 1.06239e-19)
(0.003 -2.73087e-20 3.11119e-19)
(0.003 -4.62982e-20 3.29728e-19)
(0.003 -5.09018e-20 1.08577e-19)
(0.003 -4.78702e-21 7.99291e-20)
(0.003 -1.73617e-20 -1.11192e-20)
(0.003 6.70969e-20 -1.01388e-19)
(0.003 2.48316e-19 7.6537e-20)
(0.003 1.45387e-19 2.82706e-19)
(0.003 -3.14902e-20 3.07382e-19)
(0.003 -1.84699e-20 3.46904e-19)
(0.003 -4.19796e-20 2.27543e-19)
(0.003 -3.12556e-20 -1.02838e-19)
(0.003 3.52759e-20 -2.07438e-19)
(0.003 -4.89066e-21 -1.81728e-19)
(0.003 -7.52714e-20 -1.83946e-20)
(0.003 -6.86889e-20 1.57254e-19)
(0.003 -2.49216e-20 1.38207e-19)
(0.003 3.01279e-20 1.44625e-20)
(0.003 -3.3727e-21 -1.65196e-19)
(0.003 1.9391e-20 -3.34058e-19)
(0.003 1.87941e-19 -4.49589e-19)
(0.003 1.7559e-19 -3.72732e-19)
(0.003 -1.1148e-19 -2.99379e-19)
(0.003 -2.21662e-19 -1.41646e-19)
(0.003 -1.12201e-19 -3.26099e-20)
(0.003 3.97575e-20 -5.9365e-20)
(0.003 1.44093e-19 4.82954e-19)
(0.003 2.00206e-19 7.73909e-19)
(0.003 1.6803e-19 7.65007e-19)
(0.003 8.07109e-20 6.48569e-19)
(0.003 9.4771e-20 5.57798e-19)
(0.003 8.34858e-20 5.37964e-19)
(0.003 -9.77888e-21 4.81939e-19)
(0.003 1.28854e-20 3.61174e-19)
(0.003 -2.06888e-20 2.34313e-19)
(0.003 -4.10033e-20 2.34994e-19)
(0.003 -2.50862e-20 2.70761e-19)
(0.003 3.1467e-20 2.90156e-19)
(0.003 6.79289e-20 2.77985e-19)
(0.003 1.27518e-19 2.13057e-19)
(0.003 1.48503e-20 3.06118e-19)
(0.003 -8.50911e-20 2.83794e-19)
(0.003 -2.06078e-20 1.36643e-19)
(0.003 4.63059e-20 4.61335e-20)
(0.003 8.25044e-20 4.4739e-20)
(0.003 6.5782e-20 -5.78393e-20)
(0.003 4.52228e-20 8.60973e-20)
(0.003 -3.1453e-20 2.73718e-19)
(0.003 -8.57278e-20 2.61165e-19)
(0.003 -8.34069e-20 2.95479e-19)
(0.003 -1.00516e-19 2.44231e-19)
(0.003 -1.33443e-19 -7.95835e-20)
(0.003 -2.5066e-20 -2.64534e-19)
(0.003 1.58368e-19 -1.8457e-19)
(0.003 2.36397e-20 -2.12189e-20)
(0.003 -7.84014e-20 1.25528e-19)
(0.003 4.83919e-21 1.0217e-19)
(0.003 -9.26898e-20 2.63555e-20)
(0.003 -1.52313e-19 -4.02076e-20)
(0.003 -1.56059e-20 -2.93637e-19)
(0.003 6.05773e-20 -2.13353e-19)
(0.003 8.78624e-20 -2.11132e-19)
(0.003 6.26921e-20 -5.08439e-19)
(0.003 9.95126e-21 -2.9322e-19)
(0.003 5.87276e-20 -1.26632e-19)
(0.003 1.69111e-20 -1.44771e-19)
(0.003 1.76731e-19 5.62132e-19)
(0.003 1.61141e-19 7.73094e-19)
(0.003 1.08443e-19 7.60829e-19)
(0.003 7.30253e-20 7.1266e-19)
(0.003 1.1547e-19 6.70925e-19)
(0.003 6.93142e-20 5.66208e-19)
(0.003 -3.54705e-20 4.45945e-19)
(0.003 -4.46805e-20 3.47871e-19)
(0.003 1.15031e-19 2.71476e-19)
(0.003 2.1064e-19 2.39387e-19)
(0.003 3.95318e-20 2.85236e-19)
(0.003 -9.51118e-20 2.50954e-19)
(0.003 -2.26014e-20 2.93085e-19)
(0.003 1.21527e-19 3.1682e-19)
(0.003 5.86315e-20 3.1514e-19)
(0.003 -7.45299e-20 1.72806e-19)
(0.003 -8.99365e-20 7.37995e-20)
(0.003 -1.22767e-19 3.48458e-20)
(0.003 -1.10513e-19 6.34511e-20)
(0.003 7.29888e-20 3.70617e-20)
(0.003 6.29601e-20 1.65038e-19)
(0.003 8.68795e-21 2.66631e-19)
(0.003 -1.30031e-20 2.07508e-19)
(0.003 -1.14932e-19 1.57319e-19)
(0.003 -1.35052e-19 1.07859e-19)
(0.003 -1.264e-19 -4.40414e-21)
(0.003 -4.32463e-20 -8.29086e-20)
(0.003 1.3476e-19 -7.29108e-20)
(0.003 1.03098e-19 -2.73446e-20)
(0.003 -2.66228e-21 4.58892e-21)
(0.003 1.28378e-20 7.96326e-20)
(0.003 -1.91197e-19 1.44347e-20)
(0.003 -2.32209e-19 -1.0537e-19)
(0.003 -1.50587e-20 -1.76475e-19)
(0.003 7.76329e-20 -1.23393e-19)
(0.003 1.25485e-20 -2.17172e-19)
(0.003 3.40417e-20 -4.00904e-19)
(0.003 1.12727e-19 -2.64509e-19)
(0.003 7.87548e-20 -9.31384e-20)
(0.003 -1.27464e-19 -1.49535e-19)
(0.003 1.96347e-20 6.3298e-19)
(0.003 9.6729e-20 8.78415e-19)
(0.003 1.21796e-19 8.80653e-19)
(0.003 4.05681e-21 7.08096e-19)
(0.003 -6.93008e-20 6.65157e-19)
(0.003 8.50838e-21 6.17949e-19)
(0.003 7.63884e-20 4.45096e-19)
(0.003 1.08732e-19 2.74555e-19)
(0.003 1.4464e-19 3.28535e-19)
(0.003 1.07491e-19 4.34793e-19)
(0.003 9.17881e-20 3.43579e-19)
(0.003 2.44125e-20 2.23879e-19)
(0.003 -2.64661e-20 3.31166e-19)
(0.003 -4.6728e-20 3.44195e-19)
(0.003 -6.80222e-20 2.38704e-19)
(0.003 -3.77154e-20 1.17318e-19)
(0.003 -1.33201e-19 -5.38227e-20)
(0.003 -1.01692e-19 2.83017e-20)
(0.003 7.16196e-21 2.19915e-20)
(0.003 -5.98301e-22 -1.18542e-19)
(0.003 5.75421e-20 1.10915e-19)
(0.003 2.63706e-20 2.84242e-19)
(0.003 2.03077e-20 2.39176e-19)
(0.003 -6.79643e-20 1.62921e-19)
(0.003 -1.74294e-19 1.31e-19)
(0.003 -5.5417e-20 2.41128e-20)
(0.003 9.70938e-20 -7.45625e-20)
(0.003 1.21293e-19 4.05596e-20)
(0.003 9.71671e-20 -3.04213e-20)
(0.003 1.71614e-20 -5.77757e-20)
(0.003 -7.87329e-20 -2.60724e-20)
(0.003 -1.64758e-19 -1.22629e-19)
(0.003 -1.48865e-19 -9.27242e-20)
(0.003 -9.38965e-20 -9.46054e-20)
(0.003 -5.71374e-20 -2.20055e-20)
(0.003 7.73104e-20 -1.62851e-19)
(0.003 5.03034e-20 -4.15865e-19)
(0.003 -6.09919e-20 -2.96503e-19)
(0.003 -7.95345e-20 -1.61559e-19)
(0.003 -1.50339e-19 -3.4694e-19)
(0.003 -5.67747e-20 6.5753e-19)
(0.003 2.96253e-20 9.25757e-19)
(0.003 3.22309e-20 9.28476e-19)
(0.003 -2.86318e-20 6.86434e-19)
(0.003 -3.91326e-21 5.72787e-19)
(0.003 -1.25734e-20 6.14541e-19)
(0.003 4.48107e-20 5.26203e-19)
(0.003 1.62757e-19 3.97483e-19)
(0.003 6.40873e-20 3.80664e-19)
(0.003 -5.31667e-20 4.12513e-19)
(0.003 5.99459e-20 3.91688e-19)
(0.003 3.28722e-20 2.77707e-19)
(0.003 -6.97849e-20 3.29863e-19)
(0.003 -1.55572e-19 2.99254e-19)
(0.003 -1.3902e-19 2.04227e-19)
(0.003 -1.07057e-19 7.89349e-20)
(0.003 -4.41789e-20 -1.19221e-19)
(0.003 4.72657e-20 -2.99219e-20)
(0.003 8.10836e-20 2.63148e-21)
(0.003 1.42574e-19 -9.13753e-20)
(0.003 7.49741e-20 1.78387e-19)
(0.003 3.44212e-21 2.51572e-19)
(0.003 -6.8116e-20 2.38992e-19)
(0.003 -1.93455e-19 1.01865e-19)
(0.003 -1.72187e-19 2.48118e-20)
(0.003 -3.42811e-20 6.0913e-20)
(0.003 1.08259e-19 3.94002e-20)
(0.003 1.44509e-19 6.89597e-20)
(0.003 8.04695e-20 -2.94777e-20)
(0.003 -3.48462e-20 -1.3379e-19)
(0.003 -8.57354e-20 -9.48385e-20)
(0.003 -8.19718e-20 -1.89839e-19)
(0.003 -1.57457e-19 -2.31669e-19)
(0.003 -1.26665e-19 -1.48944e-19)
(0.003 -7.32226e-20 7.0286e-20)
(0.003 3.66476e-20 3.83343e-20)
(0.003 1.60358e-19 -2.16639e-19)
(0.003 1.26315e-19 -3.65555e-19)
(0.003 -1.5571e-20 -3.75598e-19)
(0.003 -5.57586e-20 -4.17841e-19)
(0.003 -1.03502e-20 6.61173e-19)
(0.003 -5.44978e-20 9.44174e-19)
(0.003 -3.95203e-21 9.3343e-19)
(0.003 5.9069e-21 7.39337e-19)
(0.003 -3.12149e-20 6.63238e-19)
(0.003 -9.76203e-20 6.41171e-19)
(0.003 1.35281e-20 5.30731e-19)
(0.003 1.45808e-19 4.64654e-19)
(0.003 2.94181e-20 4.02134e-19)
(0.003 -1.30858e-20 3.28526e-19)
(0.003 -2.22092e-20 3.7621e-19)
(0.003 -8.43974e-20 3.48432e-19)
(0.003 -7.65086e-20 4.20596e-19)
(0.003 -1.03809e-19 2.6987e-19)
(0.003 -1.068e-19 1.33001e-19)
(0.003 -9.52334e-20 5.55006e-20)
(0.003 -6.26154e-21 -1.41907e-19)
(0.003 1.36603e-20 -5.58091e-20)
(0.003 1.13189e-19 -4.16816e-21)
(0.003 2.96033e-19 -4.70388e-20)
(0.003 1.74392e-19 1.09272e-19)
(0.003 -1.30446e-20 3.28019e-19)
(0.003 -1.48069e-19 2.74022e-19)
(0.003 -1.6727e-19 8.45565e-20)
(0.003 4.94192e-21 -1.93154e-21)
(0.003 -2.54573e-20 7.94607e-20)
(0.003 -4.85767e-20 1.8585e-20)
(0.003 -2.30003e-20 2.22877e-20)
(0.003 -3.71229e-20 6.30555e-20)
(0.003 9.99337e-21 -4.55216e-20)
(0.003 -7.82755e-21 -2.13348e-19)
(0.003 -3.86767e-20 -3.0859e-19)
(0.003 -7.69384e-20 -2.91066e-19)
(0.003 -1.09928e-19 -2.78302e-19)
(0.003 -2.70496e-20 2.17843e-21)
(0.003 -1.77493e-20 1.08078e-19)
(0.003 1.25669e-19 -1.01551e-19)
(0.003 1.89323e-19 -2.88417e-19)
(0.003 9.42799e-20 -3.85661e-19)
(0.003 1.15493e-19 -4.483e-19)
(0.003 -8.47512e-20 6.14537e-19)
(0.003 -8.26868e-20 9.01273e-19)
(0.003 4.52509e-20 9.20428e-19)
(0.003 1.94552e-20 7.49393e-19)
(0.003 -8.8176e-20 5.94273e-19)
(0.003 -1.09254e-19 5.74172e-19)
(0.003 7.90538e-21 5.8797e-19)
(0.003 4.29561e-20 5.29537e-19)
(0.003 1.92958e-20 4.25139e-19)
(0.003 2.67568e-20 3.86505e-19)
(0.003 -7.70248e-20 4.14471e-19)
(0.003 -8.7423e-20 3.38443e-19)
(0.003 -1.45167e-19 3.34448e-19)
(0.003 -8.03768e-20 2.86491e-19)
(0.003 2.81369e-20 1.41592e-19)
(0.003 -5.79891e-20 1.45429e-20)
(0.003 -4.73086e-20 -6.536e-20)
(0.003 1.44242e-19 4.72867e-20)
(0.003 2.40728e-19 9.41381e-20)
(0.003 2.59677e-19 6.61534e-20)
(0.003 1.6465e-19 1.92755e-19)
(0.003 1.59457e-20 1.8026e-19)
(0.003 -1.67238e-19 1.22814e-19)
(0.003 -1.25674e-19 8.86237e-20)
(0.003 -1.81923e-20 6.06989e-20)
(0.003 -5.01721e-20 9.20949e-20)
(0.003 -1.70964e-19 -9.69833e-21)
(0.003 -1.64446e-19 -2.95978e-20)
(0.003 -1.65219e-19 2.71811e-20)
(0.003 -3.24789e-20 -3.39144e-20)
(0.003 -3.68104e-20 -1.75905e-19)
(0.003 -1.59972e-20 -2.35073e-19)
(0.003 4.88217e-20 -3.09615e-19)
(0.003 1.20841e-20 -2.46553e-19)
(0.003 3.01087e-20 -4.3638e-20)
(0.003 4.43739e-20 5.44603e-20)
(0.003 3.18076e-20 -9.67811e-20)
(0.003 5.40921e-21 -2.61588e-19)
(0.003 6.10209e-20 -3.86859e-19)
(0.003 1.26903e-19 -4.34776e-19)
(0.003 -1.19868e-19 5.21144e-19)
(0.003 -1.48039e-19 9.58634e-19)
(0.003 -8.41227e-20 1.08061e-18)
(0.003 4.26803e-20 8.2732e-19)
(0.003 1.04201e-19 5.7615e-19)
(0.003 3.52787e-20 5.26885e-19)
(0.003 -9.53626e-20 5.84354e-19)
(0.003 -1.83805e-19 5.06629e-19)
(0.003 -9.09956e-20 4.25531e-19)
(0.003 -3.3325e-20 3.90492e-19)
(0.003 -7.4507e-21 3.71994e-19)
(0.003 3.40675e-20 3.18713e-19)
(0.003 -9.22553e-20 2.78103e-19)
(0.003 -1.18543e-19 2.68282e-19)
(0.003 -4.4765e-20 2.5234e-19)
(0.003 1.39876e-20 1.19674e-19)
(0.003 7.91536e-20 6.60183e-20)
(0.003 2.37209e-19 5.06908e-20)
(0.003 3.5498e-19 -1.10075e-21)
(0.003 2.78251e-19 3.48047e-20)
(0.003 1.71489e-20 1.96895e-19)
(0.003 -6.68368e-20 3.1722e-19)
(0.003 8.56867e-21 2.00467e-19)
(0.003 1.67833e-20 1.23664e-19)
(0.003 -1.15145e-19 1.04562e-19)
(0.003 -1.05659e-19 1.07532e-20)
(0.003 -1.47065e-19 -8.24546e-20)
(0.003 -3.09821e-19 -7.16368e-20)
(0.003 -1.60891e-19 1.96071e-20)
(0.003 -1.00408e-19 -3.78939e-20)
(0.003 -8.34135e-20 -2.37406e-19)
(0.003 -5.25167e-20 -3.11174e-19)
(0.003 -1.98707e-20 -2.89241e-19)
(0.003 8.33314e-20 -1.30883e-19)
(0.003 1.27283e-19 -3.05375e-20)
(0.003 6.01815e-20 -7.83692e-20)
(0.003 -8.48641e-20 -1.95387e-19)
(0.003 -2.47775e-20 -3.47992e-19)
(0.003 5.2269e-20 -5.00508e-19)
(0.003 3.70103e-20 -4.44133e-19)
(0.003 -7.19287e-20 5.37935e-19)
(0.003 -1.09908e-19 8.89635e-19)
(0.003 -1.21459e-19 9.74451e-19)
(0.003 -3.29515e-20 8.88813e-19)
(0.003 3.62359e-20 6.97913e-19)
(0.003 -6.90267e-21 5.4375e-19)
(0.003 -8.2469e-20 5.15159e-19)
(0.003 -1.07805e-19 4.01742e-19)
(0.003 -1.11772e-19 4.3541e-19)
(0.003 -8.16006e-20 4.76986e-19)
(0.003 -2.02296e-20 4.03795e-19)
(0.003 2.07214e-20 2.99327e-19)
(0.003 -1.21552e-20 2.28993e-19)
(0.003 -2.8218e-20 2.10204e-19)
(0.003 -3.51064e-20 2.0242e-19)
(0.003 -2.66013e-20 2.01441e-19)
(0.003 -1.54194e-20 1.88936e-19)
(0.003 9.88031e-20 6.61588e-20)
(0.003 2.71726e-19 3.1368e-20)
(0.003 1.05295e-19 6.53321e-20)
(0.003 -3.03176e-20 1.51896e-19)
(0.003 -5.00339e-20 2.72421e-19)
(0.003 3.19913e-20 3.06414e-19)
(0.003 3.5701e-20 1.86389e-19)
(0.003 -3.48807e-20 3.0002e-20)
(0.003 -7.48223e-20 -6.52217e-20)
(0.003 6.66293e-20 -1.21907e-19)
(0.003 -1.40457e-19 -1.26345e-19)
(0.003 -3.01351e-19 -1.49688e-20)
(0.003 -1.65735e-19 -5.19189e-20)
(0.003 -1.8277e-19 -2.08955e-19)
(0.003 -1.9125e-19 -3.55626e-19)
(0.003 -8.23528e-20 -4.26139e-19)
(0.003 1.15841e-19 -2.17585e-19)
(0.003 1.44028e-19 2.25982e-20)
(0.003 -3.50794e-21 -6.75632e-20)
(0.003 -4.99414e-20 -2.05197e-19)
(0.003 -6.18334e-20 -3.8124e-19)
(0.003 2.21839e-21 -5.31537e-19)
(0.003 9.67686e-20 -4.00572e-19)
(0.003 6.18899e-20 5.72422e-19)
(0.003 8.0333e-20 9.06942e-19)
(0.003 1.54323e-20 9.53864e-19)
(0.003 -1.32962e-19 8.17125e-19)
(0.003 -1.14753e-19 6.69693e-19)
(0.003 3.26738e-20 5.65147e-19)
(0.003 -5.13258e-20 5.09077e-19)
(0.003 -1.7023e-19 4.49773e-19)
(0.003 -1.60203e-19 4.16956e-19)
(0.003 -9.82057e-21 4.24998e-19)
(0.003 9.03701e-20 3.65911e-19)
(0.003 1.15801e-19 3.25561e-19)
(0.003 1.77664e-19 2.38608e-19)
(0.003 1.10527e-19 2.59578e-19)
(0.003 -7.15113e-20 2.31857e-19)
(0.003 -8.54676e-20 2.01768e-19)
(0.003 -1.05402e-19 1.06335e-19)
(0.003 -1.44515e-19 -1.94356e-20)
(0.003 -9.36228e-22 5.69927e-20)
(0.003 -1.52891e-20 4.35946e-20)
(0.003 8.29112e-21 1.50282e-19)
(0.003 6.09997e-20 3.05099e-19)
(0.003 1.02597e-20 3.26829e-19)
(0.003 3.92169e-20 1.46758e-19)
(0.003 1.41458e-19 3.7409e-20)
(0.003 3.99848e-20 3.28451e-20)
(0.003 1.16223e-20 -1.19818e-20)
(0.003 9.33962e-20 -5.32178e-20)
(0.003 -2.40514e-20 -5.15125e-20)
(0.003 -1.01439e-19 -2.20802e-19)
(0.003 -1.91592e-19 -2.85981e-19)
(0.003 -2.21613e-19 -3.6105e-19)
(0.003 -6.20507e-20 -4.48305e-19)
(0.003 4.75015e-20 -2.26331e-19)
(0.003 -4.07471e-20 1.88192e-20)
(0.003 1.01977e-19 -7.95494e-20)
(0.003 1.95155e-19 -2.64217e-19)
(0.003 9.82718e-20 -4.50775e-19)
(0.003 -5.4685e-20 -5.13561e-19)
(0.003 -7.54192e-20 -4.01658e-19)
(0.003 2.05365e-19 6.01991e-19)
(0.003 1.47121e-19 9.35336e-19)
(0.003 -6.39855e-20 9.36711e-19)
(0.003 -1.69547e-19 7.56567e-19)
(0.003 -7.53362e-20 7.07327e-19)
(0.003 2.16279e-21 6.20152e-19)
(0.003 -2.98312e-20 4.40593e-19)
(0.003 -1.16124e-19 2.78486e-19)
(0.003 -8.15343e-20 3.44092e-19)
(0.003 9.55382e-20 5.12558e-19)
(0.003 1.61091e-19 5.34382e-19)
(0.003 1.3432e-19 4.61519e-19)
(0.003 1.0636e-19 3.31419e-19)
(0.003 1.17176e-19 2.86013e-19)
(0.003 -7.62878e-20 2.58266e-19)
(0.003 -1.41677e-19 1.50925e-19)
(0.003 -1.07241e-19 3.07424e-20)
(0.003 -1.83797e-19 -7.851e-20)
(0.003 -1.86966e-19 2.67387e-20)
(0.003 -1.25381e-19 7.26727e-20)
(0.003 -7.78813e-21 1.40662e-19)
(0.003 5.25469e-20 2.20867e-19)
(0.003 3.75853e-20 2.58246e-19)
(0.003 8.76698e-20 2.0518e-19)
(0.003 1.34169e-19 1.08548e-19)
(0.003 1.0962e-19 8.77366e-20)
(0.003 -6.47889e-20 4.01245e-20)
(0.003 9.38873e-20 -5.64819e-20)
(0.003 2.01989e-19 -6.2091e-20)
(0.003 7.17784e-20 -3.04392e-19)
(0.003 -4.35576e-21 -3.79596e-19)
(0.003 -9.33989e-20 -4.71342e-19)
(0.003 -5.13844e-20 -4.33063e-19)
(0.003 -7.9201e-20 -2.02356e-19)
(0.003 -1.15184e-19 -1.05209e-20)
(0.003 1.41638e-19 -4.18681e-20)
(0.003 1.13405e-19 -6.47442e-20)
(0.003 -2.62419e-20 -3.52114e-19)
(0.003 -5.69934e-20 -5.97536e-19)
(0.003 -6.60698e-20 -4.83155e-19)
(0.003 1.64153e-19 6.43982e-19)
(0.003 4.26042e-20 9.32915e-19)
(0.003 -8.74209e-20 8.86984e-19)
(0.003 -1.90823e-20 6.61701e-19)
(0.003 -7.48779e-20 5.89792e-19)
(0.003 -4.20513e-20 5.8594e-19)
(0.003 1.38765e-20 5.19818e-19)
(0.003 9.00546e-20 3.97665e-19)
(0.003 1.69149e-19 3.39895e-19)
(0.003 8.96033e-20 4.75981e-19)
(0.003 3.27079e-20 5.00518e-19)
(0.003 6.47641e-21 4.87133e-19)
(0.003 3.66013e-20 3.35655e-19)
(0.003 -3.49514e-20 3.47947e-19)
(0.003 -1.62723e-19 2.69151e-19)
(0.003 -1.24265e-19 7.4614e-20)
(0.003 -5.98711e-20 2.57436e-20)
(0.003 -1.66137e-19 -5.02714e-20)
(0.003 -2.96642e-19 -3.76724e-20)
(0.003 -2.00337e-19 1.44694e-20)
(0.003 -5.45459e-20 2.02448e-19)
(0.003 -1.15095e-20 3.16556e-19)
(0.003 1.03679e-19 2.81534e-19)
(0.003 2.3537e-19 2.04439e-19)
(0.003 1.62452e-19 7.49479e-20)
(0.003 1.05814e-19 5.91579e-20)
(0.003 1.56277e-20 -8.06994e-20)
(0.003 6.33343e-20 -7.13992e-20)
(0.003 1.31427e-19 -4.00502e-20)
(0.003 8.98426e-20 -2.40938e-19)
(0.003 1.53373e-19 -3.58186e-19)
(0.003 1.63243e-19 -3.84952e-19)
(0.003 4.77906e-20 -3.83288e-19)
(0.003 -7.76701e-20 -2.51756e-19)
(0.003 -7.21985e-20 -2.43638e-20)
(0.003 -5.10449e-20 -1.30478e-20)
(0.003 -1.04911e-19 -1.22801e-19)
(0.003 -1.4727e-19 -3.88168e-19)
(0.003 -6.05337e-20 -4.18564e-19)
(0.003 6.83262e-21 -1.87672e-19)
(0.003 -1.30174e-19 6.41658e-19)
(0.003 -1.82673e-19 9.51032e-19)
(0.003 -8.29383e-20 9.05511e-19)
(0.003 9.74924e-21 6.48081e-19)
(0.003 -5.0505e-20 5.45488e-19)
(0.003 2.63916e-20 6.06636e-19)
(0.003 1.20662e-19 5.19119e-19)
(0.003 2.15956e-19 3.31363e-19)
(0.003 1.01256e-19 3.04967e-19)
(0.003 -3.15979e-20 5.05638e-19)
(0.003 -6.41107e-20 5.68208e-19)
(0.003 -6.61696e-20 5.01509e-19)
(0.003 -7.27347e-20 4.38812e-19)
(0.003 -1.15378e-19 2.41755e-19)