/*--------------------------------*- C++ -*----------------------------------*\
| =========                 |                                                 |
| \\      /  F ield         | OpenFOAM: The Open Source CFD Toolbox           |
|  \\    /   O peration     | Version:  v2012                                 |
|   \\  /    A nd           | Website:  www.openfoam.com                      |
|    \\/     M anipulation  |                                                 |
\*---------------------------------------------------------------------------*/
FoamFile
{
    version     2.0;
    format      ascii;
    class       surfaceScalarField;
    location    "720/topAir";
    object      phi;
}
// * * * * * * * * * * * * * * * * * * * * * * * * * * * * * * * * * * * * * //

dimensions      [1 0 -1 0 0 0 0];
oriented        oriented;


internalField   nonuniform List<scalar> 
3140
(
9.506638e-06
-3.0929065e-07
7.1605482e-08
9.6943641e-06
-2.6845939e-07
8.0726509e-08
9.8731832e-06
-2.4782395e-07
6.9017782e-08
1.0017175e-05
-1.9450187e-07
5.0533323e-08
1.0120351e-05
-1.2988473e-07
2.6738546e-08
1.0193463e-05
-7.0829806e-08
-2.2474828e-09
1.0272446e-05
-2.4108323e-08
-5.4837835e-08
1.03763e-05
2.0731108e-08
-1.2453683e-07
1.0516592e-05
8.5636111e-08
-2.2587605e-07
1.0714384e-05
1.7343119e-07
-3.7116928e-07
1.0962991e-05
3.2714493e-07
-5.7569969e-07
1.1231955e-05
5.8316819e-07
-8.5208848e-07
1.1465769e-05
9.6954465e-07
-1.2033322e-06
1.1680171e-05
1.4161719e-06
-1.6305993e-06
1.1848193e-05
1.912638e-06
-2.0807574e-06
1.1956174e-05
2.393851e-06
-2.5020304e-06
1.1992246e-05
2.8171771e-06
-2.85357e-06
1.1954161e-05
3.1581119e-06
-3.120479e-06
1.1859504e-05
3.4010679e-06
-3.3070038e-06
1.1743199e-05
3.5401371e-06
-3.4245824e-06
1.1641148e-05
3.5861502e-06
-3.4850179e-06
1.1576582e-05
3.561688e-06
-3.4982089e-06
1.1558205e-05
3.4888775e-06
-3.4717324e-06
1.1583427e-05
3.3841296e-06
-3.4106983e-06
1.1637866e-05
3.2604032e-06
-3.3162941e-06
1.1684828e-05
3.1339423e-06
-3.1824864e-06
1.1642383e-05
3.0333016e-06
-2.9926333e-06
1.1341675e-05
3.0159119e-06
-2.7172592e-06
1.0434697e-05
3.213545e-06
-2.3090083e-06
3.9590452e-06
-1.7049885e-06
9.1113703e-06
-2.3064361e-07
7.8951447e-08
9.0854709e-06
-3.4463674e-07
1.0207794e-07
9.0929418e-06
-3.6254123e-07
1.0724929e-07
9.1475505e-06
-3.5668544e-07
1.0757945e-07
9.2479462e-06
-3.3278047e-07
1.0250698e-07
9.3884908e-06
-3.0122997e-07
8.9866154e-08
9.5726948e-06
-2.7563599e-07
6.733837e-08
9.8178428e-06
-2.567873e-07
3.234719e-08
1.0148916e-05
-2.2336995e-07
-2.2004131e-08
1.0594766e-05
-1.5681788e-07
-1.152969e-07
1.1182974e-05
-7.6411315e-09
-2.527102e-07
1.1885946e-05
3.3271929e-07
-4.5142147e-07
1.2607431e-05
9.7349735e-07
-7.2400443e-07
1.3238056e-05
1.830958e-06
-1.0438437e-06
1.3714022e-05
2.7914184e-06
-1.3532772e-06
1.3980766e-05
3.7164933e-06
-1.5881872e-06
1.4028766e-05
4.4982399e-06
-1.7282077e-06
1.3894888e-05
5.1042958e-06
-1.8118209e-06
1.3651054e-05
5.5294003e-06
-1.8844185e-06
1.3380915e-05
5.7801125e-06
-1.9701976e-06
1.3143323e-05
5.8776932e-06
-2.0547793e-06
1.296151e-05
5.8566428e-06
-2.1144207e-06
1.2837368e-05
5.7468728e-06
-2.1355145e-06
1.2762298e-05
5.5673611e-06
-2.1101384e-06
1.2719541e-05
5.3289119e-06
-2.028014e-06
1.2671469e-05
5.0498126e-06
-1.8703782e-06
1.2539607e-05
4.7702557e-06
-1.6080578e-06
1.2176393e-05
4.5791742e-06
-1.2034436e-06
1.1341103e-05
4.6595231e-06
-6.1450103e-07
5.2386642e-06
2.3297638e-07
9.1682751e-06
-2.1097804e-07
8.1020045e-08
8.9979971e-06
-2.8063201e-07
1.0627299e-07
8.8145908e-06
-2.9376559e-07
1.1463048e-07
8.6304762e-06
-2.9288785e-07
1.2031695e-07
8.4582215e-06
-2.8491069e-07
1.243852e-07
8.3029438e-06
-2.7235518e-07
1.2640412e-07
8.1608472e-06
-2.6082089e-07
1.27284e-07
8.0303008e-06
-2.5585156e-07
1.2961513e-07
7.92995e-06
-2.5968769e-07
1.3667951e-07
7.9059747e-06
-2.7992515e-07
1.4710846e-07
8.0771474e-06
-3.3158339e-07
1.5282721e-07
8.6103625e-06
-3.3019985e-07
1.3013738e-07
9.5307692e-06
-5.5541974e-09
5.9844642e-08
1.0722061e-05
6.6944896e-07
-2.7893182e-08
1.178056e-05
1.7959581e-06
-6.0752858e-08
1.2570795e-05
2.8986347e-06
3.0089043e-08
1.3007161e-05
3.7340781e-06
3.3008433e-07
1.3140904e-05
4.3269343e-06
6.4549164e-07
1.3079918e-05
4.7196845e-06
8.7203249e-07
1.2943804e-05
4.9420937e-06
9.7487777e-07
1.2813249e-05
5.0142426e-06
9.9417262e-07
1.2705087e-05
4.9539389e-06
1.0105133e-06
1.260974e-05
4.793974e-06
1.0474635e-06
1.2511289e-05
4.5670378e-06
1.0976665e-06
1.2404205e-05
4.2999453e-06
1.1347005e-06
1.2271526e-05
4.009869e-06
1.1710844e-06
1.2080836e-05
3.7262455e-06
1.2329843e-06
1.1790342e-05
3.5209239e-06
1.3468138e-06
1.131072e-05
3.5663499e-06
1.5705006e-06
4.2262664e-06
1.8788164e-06
8.9788398e-06
7.9134681e-08
8.5950243e-06
1.0318318e-07
8.1908372e-06
1.1042135e-07
7.7835082e-06
1.1444084e-07
7.381947e-06
1.1665043e-07
6.9925276e-06
1.1706407e-07
6.614688e-06
1.170188e-07
6.2397558e-06
1.1908107e-07
5.8527121e-06
1.2735739e-07
5.4251857e-06
1.476037e-07
4.9003625e-06
1.9324576e-07
4.28262e-06
2.8757049e-07
3.8218414e-06
4.553837e-07
3.8026682e-06
6.8995846e-07
4.5433925e-06
1.0579343e-06
5.7284505e-06
1.7167005e-06
6.7665903e-06
2.6988032e-06
7.5805673e-06
3.5152547e-06
8.2216007e-06
4.0802729e-06
8.7602158e-06
4.4044361e-06
9.2272344e-06
4.5475937e-06
9.6307783e-06
4.5502725e-06
9.9509299e-06
4.4733064e-06
1.0174985e-05
4.3421666e-06
1.0295201e-05
4.178692e-06
1.032298e-05
3.9808849e-06
1.0291505e-05
3.7563681e-06
1.0302415e-05
3.5084772e-06
1.0652579e-05
3.2142989e-06
2.6735777e-06
9.6186152e-06
-3.0903236e-07
3.0975508e-08
9.9216107e-06
-2.6977689e-07
4.7487488e-08
1.0203726e-05
-2.6187704e-07
4.8766829e-08
1.043827e-05
-2.2622305e-07
4.2201762e-08
1.0618888e-05
-1.8370158e-07
2.9808446e-08
1.0758642e-05
-1.5154444e-07
9.5141823e-09
1.0858719e-05
-1.3824515e-07
-1.6718294e-08
1.0931124e-05
-1.4638845e-07
-5.063536e-08
1.0984544e-05
-1.8163452e-07
-9.7800238e-08
1.1027549e-05
-2.5159996e-07
-1.6278504e-07
1.1068943e-05
-3.6613348e-07
-2.5124439e-07
1.1119475e-05
-5.3501306e-07
-3.6795466e-07
1.1197426e-05
-7.6846192e-07
-5.1318878e-07
1.1386673e-05
-1.1334131e-06
-6.8680119e-07
1.1687768e-05
-1.5228756e-06
-8.5932601e-07
1.2056152e-05
-1.8584685e-06
-1.0123165e-06
1.2400606e-05
-2.0387869e-06
-1.159656e-06
1.2643675e-05
-2.0436854e-06
-1.320355e-06
1.2761034e-05
-1.9300676e-06
-1.494908e-06
1.2781881e-05
-1.7799412e-06
-1.6662639e-06
1.2754881e-05
-1.6464132e-06
-1.8125638e-06
1.2719072e-05
-1.5390708e-06
-1.9244342e-06
1.2695899e-05
-1.4542509e-06
-1.9954631e-06
1.2696923e-05
-1.3899695e-06
-2.0228522e-06
1.2732885e-05
-1.3470684e-06
-2.0062093e-06
1.280954e-05
-1.3164388e-06
-1.9437601e-06
1.2913238e-05
-1.2721781e-06
-1.8254701e-06
1.2991098e-05
-1.1531348e-06
-1.6438125e-06
1.2916172e-05
-8.1565781e-07
-1.4210046e-06
1.4985884e-07
-1.1766498e-06
9.2363784e-06
-2.3222451e-07
3.4733958e-08
9.3574378e-06
-3.4877298e-07
6.0014628e-08
9.5052174e-06
-3.7197486e-07
6.9568261e-08
9.6933403e-06
-3.7684505e-07
7.0079802e-08
9.9178705e-06
-3.6991811e-07
6.4195538e-08
1.0166601e-05
-3.6118795e-07
5.0782864e-08
1.043066e-05
-3.6264556e-07
2.7683749e-08
1.0708689e-05
-3.843629e-07
-7.7028288e-09
1.1003963e-05
-4.3745319e-07
-6.1455372e-08
1.1315494e-05
-5.4101572e-07
-1.3741038e-07
1.165519e-05
-7.1492348e-07
-2.4361299e-07
1.2039854e-05
-9.8602973e-07
-3.8505784e-07
1.2496197e-05
-1.3897306e-06
-5.5904432e-07
1.3010676e-05
-1.9494877e-06
-7.4218672e-07
1.3577876e-05
-2.5431138e-06
-9.0018701e-07
1.4100649e-05
-2.9318097e-06
-1.0376188e-06
1.4465683e-05
-2.9238715e-06
-1.2081925e-06
1.4624663e-05
-2.5872745e-06
-1.4272693e-06
1.4597713e-05
-2.1182868e-06
-1.6693572e-06
1.4460779e-05
-1.7098085e-06
-1.9035959e-06
1.4292036e-05
-1.4285651e-06
-2.1042525e-06
1.411135e-05
-1.2202935e-06
-2.2531021e-06
1.3918853e-05
-1.0670094e-06
-2.3311103e-06
1.3719962e-05
-9.7750232e-07
-2.3248912e-06
1.3548542e-05
-9.7730735e-07
-2.2279044e-06
1.3467288e-05
-1.0660041e-06
-2.0414585e-06
1.3573191e-05
-1.2300259e-06
-1.7582218e-06
1.4100547e-05
-1.4781577e-06
-1.4078786e-06
1.5769184e-05
-1.8757438e-06
-1.2251133e-06
-2.2400684e-06
-1.4064319e-06
9.2957391e-06
-2.1339416e-07
3.5411313e-08
9.2757409e-06
-2.8439441e-07
6.189231e-08
9.2442213e-06
-2.9941833e-07
7.3593165e-08
9.2134315e-06
-3.028017e-07
7.7063244e-08
9.1942827e-06
-3.0159398e-07
7.5209961e-08
9.1902026e-06
-2.981947e-07
6.7491716e-08
9.200767e-06
-2.9868233e-07
5.2758013e-08
9.2256622e-06
-3.1019801e-07
3.0558518e-08
9.2633546e-06
-3.4131796e-07
2.8581359e-09
9.3268219e-06
-4.0703973e-07
-5.0324481e-08
9.4246269e-06
-5.3608578e-07
-1.2379941e-07
9.5713111e-06
-7.7126318e-07
-2.3127986e-07
9.7868325e-06
-1.1702806e-06
-3.7507445e-07
1.0093942e-05
-1.7612408e-06
-5.2320504e-07
1.0466017e-05
-2.3719294e-06
-6.0400735e-07
1.0797072e-05
-2.6624835e-06
-5.7029888e-07
1.1085289e-05
-2.4082957e-06
-4.7360326e-07
1.1258638e-05
-1.7717757e-06
-3.4318161e-07
1.1308426e-05
-1.0266011e-06
-2.6946122e-07
1.1263188e-05
-3.5851605e-07
-3.3158336e-07
1.1197097e-05
4.3856144e-08
-4.135418e-07
1.1150964e-05
2.2354044e-07
-3.8952972e-07
1.1106228e-05
2.5837346e-07
-2.3616576e-07
1.1059151e-05
2.1242655e-07
-4.8301769e-08
1.0960509e-05
7.1407924e-08
1.8157289e-07
1.0820949e-05
-1.4030346e-07
3.8201258e-07
1.0694916e-05
-4.7212221e-07
5.9807969e-07
1.0705518e-05
-8.5244647e-07
7.0737067e-07
1.1307903e-05
-1.2547789e-06
3.4412848e-07
-1.6162972e-06
-7.7573517e-07
9.1002888e-06
3.4404123e-08
8.8593695e-06
5.9707889e-08
8.5998509e-06
7.0521378e-08
8.3382739e-06
7.3215912e-08
8.082759e-06
7.0571138e-08
7.8395264e-06
6.2101816e-08
7.6110134e-06
4.684953e-08
7.3953533e-06
2.4543443e-08
7.1854874e-06
-4.0938363e-09
6.9830527e-06
-5.6999696e-08
6.7661295e-06
-1.2591373e-07
6.5089398e-06
-2.2649655e-07
6.1851763e-06
-3.9112079e-07
5.7781556e-06
-6.6424914e-07
5.3931838e-06
-9.2899034e-07
5.2051924e-06
-7.5686967e-07
5.260063e-06
2.3721129e-07
5.3735459e-06
1.6313256e-06
5.5145963e-06
2.9130652e-06
5.847475e-06
3.7126287e-06
6.2903664e-06
4.1479239e-06
6.7339331e-06
4.3293203e-06
7.1036733e-06
4.3608151e-06
7.3800144e-06
4.277064e-06
7.5542716e-06
4.0745239e-06
7.6720167e-06
3.7212006e-06
7.7325195e-06
3.2219564e-06
7.8021835e-06
2.5844307e-06
8.5163813e-06
1.2431494e-06
-9.84056e-07
9.5958048e-06
-3.1099872e-07
1.5123588e-08
9.8893621e-06
-2.7051634e-07
2.44366e-08
1.017025e-05
-2.5916483e-07
2.7049604e-08
1.0406601e-05
-2.1917789e-07
2.5043885e-08
1.0588728e-05
-1.7228696e-07
1.9989463e-08
1.0721492e-05
-1.3564596e-07
1.2423486e-08
1.0815537e-05
-1.1277882e-07
2.0377241e-09
1.0878894e-05
-1.040506e-07
-9.9142737e-09
1.0917641e-05
-1.1174436e-07
-2.4770791e-08
1.0937917e-05
-1.4095736e-07
-4.2069129e-08
1.0947999e-05
-2.0103529e-07
-6.0244792e-08
1.0962422e-05
-3.0731722e-07
-7.4966144e-08
1.1009241e-05
-4.8401646e-07
-7.5780358e-08
1.1184089e-05
-8.1201071e-07
-4.9428568e-08
1.1458468e-05
-1.152117e-06
1.8269835e-08
1.1723607e-05
-1.4249944e-06
1.4675309e-07
1.1921453e-05
-1.6222825e-06
2.6340729e-07
1.2044488e-05
-1.7924778e-06
3.4734834e-07
1.2101747e-05
-1.9518175e-06
3.9770427e-07
1.2109018e-05
-2.1035852e-06
4.2798817e-07
1.2091303e-05
-2.2543382e-06
4.5740646e-07
1.2062632e-05
-2.3996803e-06
5.0194398e-07
1.202237e-05
-2.5242535e-06
5.6733181e-07
1.1965544e-05
-2.6150978e-06
6.4768557e-07
1.1896113e-05
-2.6717365e-06
7.3386206e-07
1.184589e-05
-2.713112e-06
8.1862533e-07
1.1887298e-05
-2.7523533e-06
8.8443759e-07
1.2129072e-05
-2.7510759e-06
8.6409883e-07
1.2507404e-05
-2.3853651e-06
5.8369846e-07
-1.1514785e-06
-1.1649623e-07
9.2081425e-06
-2.3210688e-07
1.666838e-08
9.3161492e-06
-3.4801603e-07
2.9508363e-08
9.4607681e-06
-3.692077e-07
3.4994127e-08
9.6482369e-06
-3.7057789e-07
3.4013881e-08
9.8711866e-06
-3.5864326e-07
2.7606698e-08
1.0114096e-05
-3.4307954e-07
1.5314691e-08
1.0367155e-05
-3.3391004e-07
-4.2314862e-09
1.0625719e-05
-3.3858457e-07
-3.1713479e-08
1.0888963e-05
-3.656832e-07
-7.0733561e-08
1.1160405e-05
-4.2674348e-07
-1.2302715e-07
1.1451688e-05
-5.4663627e-07
-1.8922967e-07
1.1789883e-05
-7.6664802e-07
-2.6380513e-07
1.2223365e-05
-1.1496703e-06
-3.2667622e-07
1.272154e-05
-1.7149776e-06
-3.3725718e-07
1.3182393e-05
-2.2180171e-06
-2.9534455e-07
1.3427752e-05
-2.4162831e-06
-2.9214726e-07
1.3440162e-05
-2.449188e-06
-3.9414829e-07
1.3300847e-05
-2.4814457e-06
-5.9929678e-07
1.3052127e-05
-2.4988822e-06
-8.7376344e-07
1.2729142e-05
-2.5169931e-06
-1.1673333e-06
1.2361242e-05
-2.5697154e-06
-1.4211418e-06
1.1952728e-05
-2.6534288e-06
-1.5911577e-06
1.149298e-05
-2.733731e-06
-1.6624231e-06
1.0975793e-05
-2.7845108e-06
-1.6390925e-06
1.040947e-05
-2.8176786e-06
-1.5168309e-06
9.8674216e-06
-2.9107878e-06
-1.3034567e-06
9.5880707e-06
-3.1465203e-06
-1.0869585e-06
1.0016105e-05
-3.5475938e-06
-1.0418519e-06
1.156847e-05
-3.6907268e-06
-1.4762212e-06
-2.9980504e-06
-2.3648485e-06
9.2685001e-06
-2.1310607e-07
1.6871168e-08
9.2361683e-06
-2.8382095e-07
3.0028704e-08
9.2021474e-06
-2.9783125e-07
3.6237349e-08
9.1723022e-06
-2.9971785e-07
3.6048221e-08
9.155231e-06
-2.9648764e-07
3.0125631e-08
9.1522537e-06
-2.9021891e-07
1.7609005e-08
9.1606259e-06
-2.8612406e-07
-3.3988116e-09
9.1774759e-06
-2.9020571e-07
-3.466754e-08
9.2050009e-06
-3.0935084e-07
-8.0994736e-08
9.2336043e-06
-3.5745686e-07
-1.4820636e-07
9.264761e-06
-4.6149573e-07
-2.4008173e-07
9.301933e-06
-6.7643368e-07
-3.5863862e-07
9.3783141e-06
-1.1113823e-06
-4.8972454e-07
9.5182295e-06
-1.813466e-06
-5.6493084e-07
9.5080371e-06
-2.298027e-06
-5.1458539e-07
9.1094564e-06
-2.1105739e-06
-4.7761865e-07
8.5443821e-06
-1.7532434e-06
-6.0363336e-07
8.1259777e-06
-1.600975e-06
-8.0388344e-07
7.7256772e-06
-1.2785136e-06
-1.0882871e-06
7.2699079e-06
-9.9314898e-07
-1.3985377e-06
6.7476098e-06
-8.3991172e-07
-1.6199327e-06
6.1899485e-06
-8.2967731e-07
-1.6544162e-06
5.6368417e-06
-9.2077741e-07
-1.4947053e-06
5.1080164e-06
-1.09045e-06
-1.2124767e-06
4.6377039e-06
-1.315245e-06
-8.5052391e-07
4.2883164e-06
-1.642155e-06
-5.3861635e-07
4.3128337e-06
-2.1052147e-06
-4.7007261e-07
4.8922077e-06
-2.7702718e-06
-6.5160708e-07
6.1329396e-06
-3.0773124e-06
-1.5122842e-06
-2.1722686e-06
-3.145733e-06
9.0737918e-06
1.6458657e-08
8.8205758e-06
2.9102695e-08
8.5584193e-06
3.4846388e-08
8.2976963e-06
3.4220858e-08
8.0439835e-06
2.7796102e-08
7.8013521e-06
1.4514151e-08
7.569515e-06
-7.4374989e-09
7.3448716e-06
-4.1018768e-08
7.1241403e-06
-9.2712988e-08
6.8826094e-06
-1.7292482e-07
6.5912938e-06
-2.9609307e-07
6.1823281e-06
-4.9397205e-07
5.5135503e-06
-8.3386569e-07
4.4113629e-06
-1.3769222e-06
3.0439067e-06
-1.862576e-06
2.036278e-06
-1.8601254e-06
1.9822357e-06
-1.4589228e-06
2.2138732e-06
-1.9762269e-07
2.5356382e-06
1.3128064e-06
2.9373302e-06
2.3155569e-06
3.3799524e-06
2.8624156e-06
3.769279e-06
3.1072715e-06
4.0381164e-06
3.1683063e-06
4.1124245e-06
3.1096369e-06
3.940646e-06
2.9285248e-06
3.6121848e-06
2.4050484e-06
3.2192271e-06
1.5072864e-06
2.8218581e-06
2.0891783e-07
2.5493453e-06
-1.5620674e-06
-3.9869202e-06
9.5901047e-06
-3.1128882e-07
5.2615759e-09
9.8760169e-06
-2.702141e-07
8.7272528e-09
1.0150663e-05
-2.5719812e-07
9.6042829e-09
1.0381744e-05
-2.1432377e-07
8.2970076e-09
1.0559018e-05
-1.6257395e-07
5.3038349e-09
1.0688573e-05
-1.1810877e-07
9.9771245e-10
1.077985e-05
-8.3818263e-08
-5.402795e-09
1.0841678e-05
-5.8537713e-08
-1.3195126e-08
1.0881736e-05
-4.2049028e-08
-2.2776438e-08
1.0910526e-05
-3.6930981e-08
-3.3916279e-08
1.0946465e-05
-5.1030181e-08
-4.5099456e-08
1.1026076e-05
-1.0296317e-07
-5.1444386e-08
1.1210526e-05
-2.1975307e-07
-4.0108095e-08
1.1561525e-05
-4.0970527e-07
9.5420239e-09
1.1930816e-05
-4.3875418e-07
8.7437341e-08
1.2205495e-05
-3.0641759e-07
1.7743688e-07
1.2366566e-05
-1.644626e-07
2.6509224e-07
1.246455e-05
-1.1144382e-07
3.5856694e-07
1.2542246e-05
-1.4990511e-07
4.6706955e-07
1.2628199e-05
-2.5975406e-07
5.9810608e-07
1.2731719e-05
-4.1347749e-07
7.6246101e-07
1.2835485e-05
-5.7808937e-07
9.697838e-07
1.2914771e-05
-7.3483064e-07
1.2146793e-06
1.2963851e-05
-8.8716477e-07
1.4760107e-06
1.2996717e-05
-1.0295659e-06
1.7193852e-06
1.301024e-05
-1.1026359e-06
1.8950305e-06
1.2911499e-05
-9.7408174e-07
1.9422282e-06
1.2489267e-05
-5.2759511e-07
1.7961708e-06
1.1222645e-05
4.5300437e-07
1.3826728e-06
2.6402723e-06
6.5328169e-07
9.2005472e-06
-2.3195866e-07
5.7598409e-09
9.2968606e-06
-3.4754027e-07
1.0521822e-08
9.4301629e-06
-3.6774661e-07
1.2242027e-08
9.6062744e-06
-3.6705521e-07
1.0636189e-08
9.8166936e-06
-3.512814e-07
5.8979526e-09
1.0045349e-05
-3.2914037e-07
-2.3055208e-09
1.0281877e-05
-3.093537e-07
-1.5218055e-08
1.0522169e-05
-2.9769686e-07
-3.2835966e-08
1.076692e-05
-3.0095427e-07
-5.6560814e-08
1.1026375e-05
-3.3267449e-07
-8.6699699e-08
1.1329382e-05
-4.2254298e-07
-1.2064068e-07
1.1740095e-05
-6.2905231e-07
-1.4825423e-07
1.2364433e-05
-1.0272818e-06
-1.4320276e-07
1.3122724e-05
-1.4379361e-06
-6.7282017e-08
1.3748492e-05
-1.3823049e-06
2.2125491e-08
1.412682e-05
-1.0284082e-06
5.1056318e-08
1.4313008e-05
-7.7265823e-07
2.7350962e-08
1.4366925e-05
-7.2464158e-07
-4.0660717e-08
1.4306127e-05
-8.3304627e-07
-1.3070922e-07
1.4167316e-05
-1.0396186e-06
-2.5005292e-07
1.3964301e-05
-1.2677643e-06
-3.6613783e-07
1.3679167e-05
-1.4559222e-06
-4.3154008e-07
1.3283892e-05
-1.5858105e-06
-4.2005649e-07
1.2796539e-05
-1.7098494e-06
-3.3273946e-07
1.2321168e-05
-1.8631439e-06
-2.1079055e-07
1.2051764e-05
-1.994597e-06
-1.4401438e-07
1.2071382e-05
-1.8505233e-06
-2.3118445e-07
1.2200603e-05
-1.1465823e-06
-5.5219226e-07
1.2071192e-05
2.0186705e-07
-1.1157346e-06
2.0886004e-06
-1.863696e-06
9.2612413e-06
-2.1311425e-07
5.7461653e-09
9.2171002e-06
-2.8388513e-07
1.0514405e-08
9.1708717e-06
-2.9759606e-07
1.231494e-08
9.1278594e-06
-2.9866465e-07
1.0669827e-08
9.095133e-06
-2.9393836e-07
5.5088492e-09
9.0729907e-06
-2.8521562e-07
-4.1732443e-09
9.0575253e-06
-2.7731368e-07
-1.9972738e-08
9.0441573e-06
-2.7596067e-07
-4.3033986e-08
9.0276612e-06
-2.8901752e-07
-7.6431712e-08
9.0036201e-06
-3.3308981e-07
-1.2374188e-07
8.9756141e-06
-4.4657884e-07
-1.8802219e-07
8.9768109e-06
-7.2361906e-07
-2.6523465e-07
9.1502477e-06
-1.3659653e-06
-3.245072e-07
9.5063047e-06
-2.0990415e-06
-2.6065152e-07
9.5375329e-06
-1.8020875e-06
-1.2626726e-07
9.0474508e-06
-8.7301123e-07
-1.4188406e-07
8.4461938e-06
-5.1852454e-07
-2.5471112e-07
7.734732e-06
-3.4159499e-07
-4.7357819e-07
7.0573005e-06
-4.7719328e-07
-7.6481389e-07
6.3702087e-06
-6.5863283e-07
-1.0903043e-06
5.6723184e-06
-8.4472469e-07
-1.3424907e-06
4.9826694e-06
-1.0455203e-06
-1.3716646e-06
4.2972393e-06
-1.2479601e-06
-1.1421669e-06
3.6570637e-06
-1.4683392e-06
-8.0762101e-07
3.2645233e-06
-1.732849e-06
-5.8237024e-07
3.4324294e-06
-2.105336e-06
-5.9170223e-07
4.2941208e-06
-2.2010083e-06
-9.8041848e-07
5.4895709e-06
-1.3445115e-06
-1.6495718e-06
6.3005705e-06
2.9785159e-07
-2.4222608e-06
1.7489097e-06
-3.1393701e-06
9.0667397e-06
5.5571183e-09
8.8019032e-06
1.0053861e-08
8.5275959e-06
1.1557369e-08
8.2535833e-06
9.5685483e-09
7.9834315e-06
4.0093285e-09
7.7195863e-06
-6.8564293e-09
7.4592489e-06
-2.4413898e-08
7.193488e-06
-5.1218669e-08
6.9044567e-06
-9.2699014e-08
6.5569333e-06
-1.5849079e-07
6.0813748e-06
-2.6711383e-07
5.3228543e-06
-4.5909522e-07
3.9564447e-06
-8.3379587e-07
1.8711775e-06
-1.3940505e-06
-3.1558558e-07
-1.4799107e-06
-1.805815e-06
-1.2403791e-06
-2.7129141e-06
-1.0667264e-06
-2.5739234e-06
-6.7567296e-07
-1.8454136e-06
1.0553499e-07
-9.9262989e-07
8.0011102e-07
-2.7170538e-07
1.2921056e-06
2.0216055e-07
1.584607e-06
3.969245e-07
1.7217705e-06
2.6506566e-07
1.7698401e-06
-2.6740076e-07
1.7240451e-06
-1.0419879e-06
1.0703747e-06
-1.4837808e-06
-2.5766234e-07
-8.4691241e-07
-1.7761564e-06
9.1284003e-07
-3.0269998e-06
-3.7768699e-06
9.5869349e-06
-3.1173334e-07
-9.8556941e-10
9.8686436e-06
-2.7095382e-07
-2.0388248e-09
1.0139431e-05
-2.5801937e-07
-3.159718e-09
1.0367157e-05
-2.1503322e-07
-4.3840909e-09
1.0541222e-05
-1.6297377e-07
-5.7697354e-09
1.0667689e-05
-1.1804387e-07
-7.4039675e-09
1.075517e-05
-8.3407321e-08
-9.4448323e-09
1.0812294e-05
-5.8369232e-08
-1.1911312e-08
1.0847994e-05
-4.3524705e-08
-1.4903051e-08
1.087594e-05
-4.3479775e-08
-1.8310721e-08
1.0923707e-05
-7.0999836e-08
-2.1733996e-08
1.1048386e-05
-1.5269793e-07
-2.3166376e-08
1.1331506e-05
-3.0549507e-07
-1.7332824e-08
1.1766519e-05
-4.2066195e-07
-4.57008e-09
1.214248e-05
-3.0254115e-07
1.3751916e-08
1.2399115e-05
-1.0885609e-07
2.8893897e-08
1.2575187e-05
4.9529083e-08
3.867672e-08
1.2714719e-05
1.7158969e-07
4.6561529e-08
1.2862893e-05
2.6611449e-07
5.1778762e-08
1.3059757e-05
3.4846387e-07
5.1568954e-08
1.3309143e-05
4.6911957e-07
4.2399684e-08
1.3571813e-05
6.8135142e-07
2.3674132e-08
1.3787776e-05
9.9024805e-07
5.6103146e-09
1.3902373e-05
1.3707065e-06
-1.3077908e-08
1.3872725e-05
1.7824726e-06
-3.8267013e-08
1.3625292e-05
2.1979926e-06
-6.1501984e-08
1.3006394e-05
2.6313348e-06
-7.7427156e-08
1.1748645e-05
3.1232695e-06
-7.784082e-08
9.4260727e-06
3.7528064e-06
-5.7070506e-08
4.9098154e-06
-3.0177173e-08
9.1961111e-06
-2.3210599e-07
-1.0097521e-09
9.2859217e-06
-3.478936e-07
-2.3483705e-09
9.4123083e-06
-3.681834e-07
-3.9787904e-09
9.5813023e-06
-3.6743388e-07
-5.9549532e-09
9.7840198e-06
-3.5141675e-07
-8.3735517e-09
1.0003866e-05
-3.2880424e-07
-1.1386482e-08
1.0229097e-05
-3.0868205e-07
-1.5167199e-08
1.0455303e-05
-2.9764052e-07
-1.9758047e-08
1.0684832e-05
-3.0447551e-07
-2.5118387e-08
1.0934016e-05
-3.4806506e-07
-3.1258619e-08
1.1249521e-05
-4.7054051e-07
-3.6523575e-08
1.1735545e-05
-7.5182679e-07
-3.4989504e-08
1.2538469e-05
-1.2317313e-06
-1.9685749e-08
1.3327485e-05
-1.290032e-06
1.3067883e-08
1.3875342e-05
-8.6898368e-07
4.0567067e-08
1.4272363e-05
-4.9555269e-07
4.0462827e-08
1.4578903e-05
-2.6764326e-07
3.6481483e-08
1.4826652e-05
-1.5038474e-07
2.9818864e-08
1.5031701e-05
-9.1521343e-08
1.3289732e-08
1.5278747e-05
-1.5920233e-07
-6.5042725e-09
1.5605819e-05
-2.1747531e-07
-3.5435639e-08
1.5961297e-05
-8.3021722e-08
-6.1464136e-08
1.6219064e-05
3.356703e-07
-6.6570015e-08
1.6322959e-05
9.5222266e-07
-6.379007e-08
1.6234279e-05
1.6803326e-06
-6.4999718e-08
1.5867494e-05
2.4474089e-06
-6.8934498e-08
1.5009752e-05
3.2845142e-06
-6.5158546e-08
1.3390793e-05
4.1939131e-06
-3.8615198e-08
1.0703722e-05
5.2813279e-06
1.143524e-08
6.7422235e-06
9.9096315e-08
9.2567879e-06
-2.1317184e-07
-1.0152189e-09
9.2058431e-06
-2.8406783e-07
-2.3668799e-09
9.1518736e-06
-2.9783218e-07
-4.0669869e-09
9.1002041e-06
-2.9887798e-07
-6.2168373e-09
9.0573759e-06
-2.9409129e-07
-8.9886388e-09
9.0223011e-06
-2.8525043e-07
-1.2652188e-08
8.9887146e-06
-2.7756973e-07
-1.7498255e-08
8.9494762e-06
-2.7759276e-07
-2.3842338e-08
8.8964774e-06
-2.9561942e-07
-3.2286793e-08
8.8232841e-06
-3.5461256e-07
-4.399561e-08
8.7364036e-06
-5.1251222e-07
-5.9157221e-08
8.715505e-06
-9.2445013e-07
-7.1691563e-08
9.1180271e-06
-1.9082915e-06
-5.0563395e-08
9.4805887e-06
-1.9206114e-06
7.1009354e-09
9.2103418e-06
-7.6560147e-07
4.1317348e-08
8.9235023e-06
-3.6201749e-07
1.288808e-08
8.4860548e-06
-4.6913943e-08
-3.6264382e-08
7.889487e-06
6.3209011e-08
-8.891334e-08
7.208238e-06
-2.9781365e-08
-1.4324354e-07
6.4082949e-06
-2.3091584e-07
-2.1538382e-07
5.6641441e-06
-5.3629222e-07
-2.752831e-07
5.4027809e-06
-8.9475767e-07
-2.9292175e-07
5.9265663e-06
-1.0587756e-06
-2.6715997e-07
7.231706e-06
-9.3358438e-07
-2.2374993e-07
8.865458e-06
-3.5841643e-07
-1.7900923e-07
1.0245585e-05
5.6889381e-07
-1.0595738e-07
1.0733926e-05
1.8278334e-06
-3.3326053e-08
1.0258633e-05
2.893675e-06
9.8573083e-08
8.6271559e-06
4.2072065e-06
2.5170542e-07
5.8517708e-06
3.8686078e-07
9.0623259e-06
-9.8818321e-10
8.7906086e-06
-2.296927e-09
8.5082924e-06
-3.9588555e-09
8.2250816e-06
-6.0988489e-09
7.9439432e-06
-8.9438197e-09
7.6647213e-06
-1.2885187e-08
7.3810568e-06
-1.8319317e-08
7.0781696e-06
-2.592449e-08
6.7272927e-06
-3.7441641e-08
6.2705494e-06
-5.6360269e-08
5.5801162e-06
-8.9195098e-08
4.3447869e-06
-1.4825257e-07
1.8501153e-06
-2.4790785e-07
-1.2023906e-06
-2.6479068e-07
-3.3394295e-06
-1.0772013e-07
-4.818793e-06
-1.2108404e-07
-5.7381275e-06
-1.9198241e-07
-6.0907081e-06
-2.5721048e-07
-5.7462653e-06
-2.657076e-07
-4.9886022e-06
-1.8709903e-07
-4.1809116e-06
-5.1969838e-08
-3.5409998e-06
4.9998074e-08
-3.0031653e-06
1.2613514e-07
-2.3483954e-06
1.8378776e-07
-1.1783113e-06
1.9804408e-07
3.5548555e-07
1.062607e-07
1.5589257e-06
3.6158294e-07
2.0906e-06
5.757961e-07
2.5465553e-06
7.1168176e-07
7.9719078e-07
9.586824e-06
-3.1172058e-07
-7.1345128e-09
9.8683605e-06
-2.7097524e-07
-1.2611654e-08
1.0138873e-05
-2.5807314e-07
-1.55966e-08
1.0366166e-05
-2.151453e-07
-1.6521472e-08
1.0539539e-05
-1.6320606e-07
-1.5920742e-08
1.066473e-05
-1.1853643e-07
-1.4039788e-08
1.0750574e-05
-8.4389991e-08
-1.0879611e-08
1.0805456e-05
-6.0263742e-08
-6.5095706e-09
1.0839169e-05
-4.699262e-08
-1.6056686e-09
1.0866668e-05
-5.0741618e-08
4.9188992e-09
1.0920794e-05
-8.7184618e-08
1.1252951e-08
1.1071265e-05
-1.8582776e-07
1.2016593e-08
1.1404891e-05
-3.4638761e-07
-4.7357141e-09
1.1839978e-05
-3.813662e-07
-5.817977e-08
1.2195414e-05
-2.0969738e-07
-1.3149631e-07
1.2444126e-05
-1.3584918e-08
-2.0535792e-07
1.2624738e-05
1.4649417e-07
-2.8743868e-07
1.276413e-05
2.9588354e-07
-3.8755397e-07
1.2898529e-05
4.2903484e-07
-5.1025292e-07
1.3060057e-05
5.5051037e-07
-6.5872117e-07
1.326135e-05
6.7909298e-07
-8.3578352e-07
1.3476024e-05
8.5399953e-07
-1.042257e-06
1.3647781e-05
1.1124763e-06
-1.2752824e-06
1.3727427e-05
1.432117e-06
-1.5209635e-06
1.367275e-05
1.7713851e-06
-1.750704e-06
1.3419202e-05
2.1125185e-06
-1.9159691e-06
1.281904e-05
2.4784503e-06
-1.9511512e-06
1.1606843e-05
2.9315147e-06
-1.7926994e-06
9.364548e-06
3.5706917e-06
-1.3813163e-06
4.809124e-06
-6.5551997e-07
9.1960305e-06
-2.3211551e-07
-7.6765038e-09
9.2856053e-06
-3.4792997e-07
-1.4967758e-08
9.4115616e-06
-3.6827867e-07
-1.9728072e-08
9.5797924e-06
-3.676301e-07
-2.1699255e-08
9.7810958e-06
-3.518136e-07
-2.1067732e-08
9.9985198e-06
-3.2966487e-07
-1.7680691e-08
1.0220462e-05
-3.1048894e-07
-1.1009129e-08
1.0442721e-05
-3.0133826e-07
-9.4140939e-10
1.0667068e-05
-3.123704e-07
1.5905545e-08
1.091298e-05
-3.658154e-07
3.7876593e-08
1.1237669e-05
-5.1135766e-07
6.2881667e-08
1.17747e-05
-8.3810611e-07
8.0088218e-08
1.2676849e-05
-1.337393e-06
6.9044148e-08
1.3398468e-05
-1.1042213e-06
1.4327267e-08
1.3939659e-05
-6.5832251e-07
-5.1884446e-08
1.4354398e-05
-3.3591084e-07
-5.1716258e-08
1.4672969e-05
-1.0930884e-07
-2.5074052e-08
1.4899609e-05
7.4887678e-08
2.6694215e-08
1.5090891e-05
1.5794827e-07
9.8089774e-08
1.5309389e-05
1.4302795e-07
1.9126075e-07
1.5587528e-05
8.9140276e-08
2.9042096e-07
1.5904186e-05
1.376988e-07
3.5938256e-07
1.6118289e-05
5.0819549e-07
3.5316215e-07
1.618835e-05
1.0613836e-06
2.7351151e-07
1.6097119e-05
1.6889655e-06
1.4948898e-07
1.5768252e-05
2.3668584e-06
4.7534815e-08
1.5009025e-05
3.0897142e-06
1.23225e-07
1.353673e-05
3.929834e-06
4.7193404e-07
1.1107231e-05
4.9822383e-06
1.0596478e-06
6.4496334e-06
1.7868063e-06
9.2566861e-06
-2.1318476e-07
-7.6713801e-09
9.205477e-06
-2.8410026e-07
-1.4987714e-08
9.1509749e-06
-2.9790766e-07
-1.9936218e-08
9.098281e-06
-2.990329e-07
-2.212046e-08
9.0533789e-06
-2.9440798e-07
-2.1492488e-08
9.0146465e-06
-2.8597928e-07
-1.7605805e-08
8.9753871e-06
-2.7912864e-07
-9.5997141e-09
8.9273836e-06
-2.8082943e-07
3.6514724e-09
8.8585404e-06
-3.0334181e-07
2.7525837e-08
8.7598088e-06
-3.7380688e-07
6.2722382e-08
8.6400516e-06
-5.6351321e-07
1.127413e-07
8.6305929e-06
-1.0701797e-06
1.6982361e-07
9.333079e-06
-2.279128e-06
1.8894926e-07
9.4015631e-06
-1.2958439e-06
1.2927531e-07
9.2293092e-06
-5.1486103e-07
6.8097411e-08
8.9623033e-06
-1.4823471e-07
8.9812106e-08
8.4967542e-06
1.219214e-07
1.9554064e-07
7.8738377e-06
2.2745041e-07
3.7930483e-07
7.1233366e-06
1.3217123e-07
6.320186e-07
6.1954964e-06
-8.7275665e-08
9.4250349e-07
5.1849926e-06
-3.6654753e-07
1.1914462e-06
4.5359661e-06
-7.3582991e-07
1.2309911e-06
4.6764142e-06
-9.3129289e-07
1.0324368e-06
5.6898183e-06
-8.7948775e-07
7.0376313e-07
7.313126e-06
-4.8222718e-07
3.731453e-07
8.9647002e-06
3.1941956e-07
3.0519649e-07
9.8459939e-06
1.3936974e-06
8.0455833e-07
9.7701463e-06
2.5310841e-06
1.6001368e-06
8.8275715e-06
3.7546344e-06
2.4478822e-06
5.3129464e-06
3.1806518e-06
9.0622081e-06
-7.4286312e-09
8.7902003e-06
-1.4389567e-08
8.507283e-06
-1.8949429e-08
8.2228488e-06
-2.069785e-08
7.9390263e-06
-1.9529558e-08
7.6550791e-06
-1.4917565e-08
7.3636059e-06
-5.9750437e-09
7.0460423e-06
1.0809315e-08
6.6644963e-06
4.0762205e-08
6.1428137e-06
9.1515303e-08
5.3091772e-06
1.8093267e-07
3.743917e-06
3.4692008e-07
5.2947258e-07
6.8863797e-07
-2.2867506e-06
1.2597681e-06
-4.0845964e-06
1.1711218e-06
-5.3405381e-06
9.8157689e-07
-6.155747e-06
7.4050597e-07
-6.4686081e-06
2.7922204e-07
-6.2114978e-06
-3.9364881e-07
-5.5912649e-06
-8.9481654e-07
-4.8408173e-06
-1.1674142e-06
-4.2324712e-06
-1.2914268e-06
-3.7166724e-06
-1.3178085e-06
-3.1313898e-06
-1.2781092e-06
-2.1903658e-06
-1.223793e-06
-9.3947804e-07
-8.2597289e-07
3.3845092e-07
4.8191543e-07
1.3701818e-06
2.083249e-06
2.5485361e-06
3.2976547e-06
4.1125978e-06
9.5897323e-06
-3.1127429e-07
-1.6638237e-08
9.8750833e-06
-2.7031242e-07
-2.7662218e-08
1.0148927e-05
-2.5741028e-07
-3.2028447e-08
1.0378943e-05
-2.1469971e-07
-3.1828521e-08
1.0554901e-05
-1.6318337e-07
-2.8679728e-08
1.0683048e-05
-1.1899848e-07
-2.3168982e-08
1.0772811e-05
-8.5138071e-08
-1.5483348e-08
1.0832243e-05
-6.0765658e-08
-5.1592072e-09
1.086936e-05
-4.6390385e-08
7.6833119e-09
1.0897098e-05
-4.5020968e-08
2.2230921e-08
1.0937319e-05
-6.6781584e-08
3.7836243e-08
1.1033543e-05
-1.3378792e-07
4.9555331e-08
1.1253994e-05
-2.7114258e-07
4.5908458e-08
1.1624997e-05
-4.4103285e-07
1.2335855e-08
1.1980049e-05
-3.9602434e-07
-8.9115622e-08
1.2217062e-05
-2.2499744e-07
-2.1498608e-07
1.2344977e-05
-8.6508867e-08
-3.2561857e-07
1.2417487e-05
-5.0890205e-08
-4.0516852e-07
1.2470525e-05
-1.0239841e-07
-4.5590317e-07
1.2535572e-05
-2.3034398e-07
-4.8728614e-07
1.2627242e-05
-4.0860732e-07
-5.116737e-07
1.2726315e-05
-5.9195394e-07
-5.4146454e-07
1.2792348e-05
-7.4838447e-07
-5.8466175e-07
1.2804652e-05
-8.8646369e-07
-6.386941e-07
1.2782632e-05