/*--------------------------------*- C++ -*----------------------------------*\
| =========                 |                                                 |
| \\      /  F ield         | OpenFOAM: The Open Source CFD Toolbox           |
|  \\    /   O peration     | Version:  v2012                                 |
|   \\  /    A nd           | Website:  www.openfoam.com                      |
|    \\/     M anipulation  |                                                 |
\*---------------------------------------------------------------------------*/
FoamFile
{
    version     2.0;
    format      ascii;
    class       volScalarField;
    location    "720/topAir";
    object      rho;
}
// * * * * * * * * * * * * * * * * * * * * * * * * * * * * * * * * * * * * * //

dimensions      [1 -3 0 0 0 0 0];


internalField   nonuniform List<scalar> 
1200
(
1.0678762
0.9957735
0.93842825
0.89101518
0.85046451
0.81498899
0.78361747
0.75602236
0.73211529
0.71145068
0.69379695
0.67912556
0.66781658
0.66860748
0.67269382
0.68007191
0.68990617
0.70085898
0.71161492
0.72122015
0.7291533
0.73522688
0.7394576
0.74195876
0.74286252
0.74224692
0.74005939
0.7360135
0.72936516
0.71894194
1.1565054
1.1525369
1.147152
1.1406234
1.1331526
1.1249026
1.116017
1.1056249
1.091706
1.0735381
1.0487417
1.0170174
0.97913417
0.94163019
0.90799929
0.88042699
0.85925798
0.84402583
0.83406477
0.82858011
0.8264315
0.82627635
0.82688733
0.82728793
0.82671434
0.82447855
0.81979807
0.81154504
0.79769706
0.77650577
1.158573
1.15844
1.1581931
1.1578086
1.1572663
1.1565494
1.1556448
1.1545177
1.1530839
1.1512451
1.1486998
1.1401287
1.1187394
1.0845005
1.0425384
0.99862685
0.95827902
0.92388938
0.8962922
0.87542296
0.86056144
0.85052453
0.8439746
0.83966216
0.83652677
0.83367402
0.8302886
0.82544608
0.81760685
0.80456284
1.1586179
1.1586136
1.1586029
1.1585821
1.1585461
1.1584888
1.1584031
1.1582798
1.1581057
1.1578608
1.1574954
1.1566813
1.1541158
1.1396959
1.1048181
1.0603134
1.0173165
0.97854698
0.94512044
0.91756995
0.89586703
0.87941988
0.86726313
0.85834016
0.85168553
0.84648147
0.84201585
0.83756114
0.83206859
0.82392766
1.0679057
0.99653119
0.94036952
0.89447053
0.85576084
0.82249158
0.79369913
0.76884368
0.74773696
0.73046031
0.7173238
0.70879773
0.70570593
0.71907962
0.73718934
0.7575763
0.77666953
0.79186035
0.80242511
0.80908505
0.81300756
0.8150711
0.81576163
0.81528852
0.81371542
0.810964
0.80675692
0.80043299
0.79031128
0.77324255
1.1565085
1.1526143
1.1474324
1.1412728
1.1343736
1.1269352
1.1191583
1.1112578
1.1034856
1.0961615
1.0896985
1.0846122
1.081511
1.0812047
1.0827158
1.083588
1.0813134
1.075447
1.0671892
1.0579556
1.0484194
1.0385946
1.028286
1.01719
1.0049956
0.99146609
0.97658109
0.96057282
0.94322764
0.92181211
1.1585732
1.1584437
1.1582097
1.1578547
1.1573677
1.1567422
1.155978
1.1550817
1.1540692
1.1529718
1.1518436
1.1506711
1.1494915
1.1480567
1.1439402
1.133899
1.1151709
1.0904335
1.0645448
1.0415699
1.0218854
1.0030144
0.98476354
0.96731746
0.95123627
0.93559858
0.91935683
0.90266717
0.88559175
0.86764605
1.158618
1.1586137
1.1586038
1.158585
1.1585536
1.1585055
1.1584361
1.1583408
1.1582151
1.1580538
1.1578492
1.1575617
1.1569275
1.15378
1.1411045
1.1142082
1.078264
1.0364127
0.99599989
0.96097098
0.93325777
0.91301084
0.89734693
0.8847641
0.87410764
0.86540864
0.85845262
0.85249148
0.84672382
0.83942239
1.0679312
0.99644644
0.94015243
0.89410888
0.85522978
0.82174362
0.79258055
0.7670781
0.74486467
0.72582824
0.71014559
0.69836679
0.69179345
0.70294545
0.71913493
0.73759344
0.75604012
0.77350072
0.78949043
0.80370717
0.81601
0.82620041
0.83392379
0.83880122
0.84062146
0.83946058
0.83552332
0.82884839
0.81794966
0.7994272
1.1565088
1.1526027
1.1473984
1.1412096
1.1342721
1.1267765
1.118897
1.1108138
1.1027424
1.0949654
1.0879126
1.0822525
1.0789431
1.0789098
1.0801852
1.0800079
1.0778516
1.0741557
1.068935
1.0622039
1.0539106
1.0437127
1.0311756
1.0161087
0.9986109
0.97886741
0.95716768
0.93432223
0.91055996
0.8835386
1.1585732
1.1584432
1.1582079
1.1578512
1.1573622
1.1567348
1.1559677
1.155066
1.1540443
1.152935
1.1518016
1.1507624
1.1499127
1.1479659
1.1397876
1.1244953
1.1087752
1.0954479
1.0820406
1.0678249
1.0521305
1.0335992
1.0116843
0.98706119
0.96094664
0.93509229
0.9111782
0.89024961
0.86885458
0.84391646
1.158618
1.1586137
1.1586037
1.1585849
1.1585534
1.1585053
1.1584363
1.158342
1.158218
1.1580606
1.157865
1.1575986
1.1567562
1.1495134
1.119291
1.0726764
1.0458942
1.0397885
1.0154696
0.98405687
0.95567203
0.93321564
0.9154431
0.90098714
0.8887038
0.87818911
0.86930013
0.86125664
0.84529079
0.8167212
1.067948
0.99643078
0.94005178
0.8938693
0.85476889
0.82092879
0.79121915
0.76488684
0.74143321
0.72058617
0.70236767
0.68729027
0.67669334
0.6825269
0.68813964
0.69077258
0.69071323
0.68970072
0.6893136
0.69056628
0.69388962
0.69912666
0.7058044
0.71343775
0.7213656
0.72819124
0.73139611
0.72790699
0.71674104
0.70090489
1.1565091
1.1525987
1.1473793
1.1411589
1.1341639
1.1265681
1.1185189
1.1101581
1.1016495
1.0932359
1.085358
1.078837
1.0748222
1.0730114
1.0698469
1.0648966
1.0591653
1.0532943
1.0473708
1.0410279
1.0334898
1.0238889
1.0118551
0.99765389
0.98159068
0.96343847
0.94347343
0.92171187
0.88721372
0.82467281
1.1585732
1.1584429
1.1582068
1.1578477
1.157354
1.1567175
1.1559343
1.1550055
1.1539409
1.1527691
1.1515628
1.1504743
1.1493735
1.1432193
1.1263682
1.1112413
1.1009477
1.0931519
1.0840678
1.0714368
1.0539253
1.0309793
1.003972
0.97534741
0.94620292
0.91712289
0.89175129
0.87048613
0.8476885
0.8153689
1.158618
1.1586137
1.1586037
1.1585846
1.1585528
1.1585039
1.1584333
1.1583361
1.158207
1.1580404
1.1578262
1.157455
1.1551108
1.1294243
1.0588579
0.9993181
0.99389034
0.99494239
0.99579385
0.97865509
0.95756337
0.93749389
0.92022596
0.90577313
0.89084846
0.87446765
0.85874684
0.84215838
0.81835882
0.79502302
1.0679637
0.99644385
0.94004932
0.89384428
0.85471394
0.82083305
0.79107613
0.76469874
0.74122658
0.72045625
0.70257699
0.68841305
0.67934348
0.68694158
0.69118266
0.69096515
0.68797385
0.68355353
0.67842155
0.67312473
0.668145
0.66391163
0.66076434
0.65890426
0.65831822
0.65862484
0.65891342
0.65771847
0.65320456
0.64340637
1.1565094
1.1525977
1.1473728
1.1411413
1.1341281
1.1265054
1.1184198
1.1100145
1.1014669
1.0930687
1.0853912
1.0794964
1.0763639
1.0728386
1.0673025
1.0607068
1.0517391
1.0383353
1.0219699
1.0036321
0.98239063
0.95624823
0.92576961
0.89240854
0.85839024
0.8256818
0.79511344
0.76623132
0.73730568
0.70484774
1.1585732
1.1584429
1.1582062
1.1578461
1.1573502
1.1567099
1.1559206
1.1549829
1.1539075
1.1527295
1.1515449
1.1505321
1.1487522
1.1330494
1.1168665
1.1064777
1.1009117
1.0955441
1.0887123
1.0770547
1.0580382
1.0314895
1.0000234
0.96894735
0.94009181
0.90927198
0.8757755
0.83948308
0.79953886
0.75413994
1.158618
1.1586137
1.1586036
1.1585845
1.1585525
1.1585032
1.1584317
1.1583328
1.1582007
1.1580285
1.157797
1.1572323
1.1513924
1.0761358
0.98705148
0.9715472
0.96481111
0.95935973
0.95299463
0.94664682
0.93642
0.92442577
0.91271807
0.90237395
0.89329255
0.88696534
0.87338832
0.84804809
0.81307422
0.77220784
1.0679716
0.99645762
0.94006882
0.89387129
0.85475144
0.8208844
0.79114684
0.76480228
0.74138816
0.72074301
0.70315801
0.68959596
0.68118389
0.6878147
0.69032584
0.68864822
0.6859696
0.68183298
0.67697861
0.67199327
0.66740802
0.6636758
0.66111196
0.65985973
0.65985721
0.66071708
0.66151907
0.66077952
0.65671355
0.64748332
1.1565096
1.1525983
1.1473739
1.141143
1.1341308
1.1265099
1.1184283
1.1100337
1.1015146
1.0931932
1.0857143
1.0802427
1.0774636
1.0727726
1.0665075
1.0594664
1.0468313
1.029613
1.0096109
0.98795454
0.96514925
0.9408761
0.91453366
0.88651948
0.85810603
0.83049821
0.80407231
0.77808511
0.75059522
0.71791147
1.1585732
1.1584429
1.1582063
1.1578462
1.1573502
1.1567098
1.1559204
1.1549828
1.1539091
1.1527386
1.1515805
1.1506076
1.1479967
1.1283586
1.1149361
1.1072331
1.1016268
1.0948462
1.0862764
1.0744047
1.0551527
1.0256019
0.98888587
0.95394045
0.92506765
0.89943669
0.8732482
0.84436613
0.81059388
0.7698048
1.158618
1.1586137
1.1586036
1.1585845
1.1585525
1.1585031
1.1584315
1.1583324
1.1581997
1.158026
1.1577846
1.1570339
1.1473568
1.0260396
0.97753296
0.96778359
0.96285364
0.95643415
0.94814255
0.93876838
0.92863633
0.91742091
0.90624637
0.89627491
0.8874919
0.87974068
0.87196349
0.84829748
0.81981155
0.785683
1.0679711
0.99647091
0.94010814
0.89394588
0.85487156
0.82106026
0.79138479
0.76509943
0.74172668
0.72102915
0.70310824
0.68861315
0.67894112
0.68521373
0.69004607
0.69147645
0.69055378
0.68917351
0.68881842
0.69056243
0.69481877
0.7011383
0.7085968
0.7164598
0.72424747
0.73096649
0.73425053
0.73083449
0.71948316
0.70391469
1.1565097
1.1526004
1.1473824
1.1411637
1.1341712
1.1265791
1.1185366
1.1101891
1.1017116
1.0933754
1.0856805
1.0795483
1.076104
1.0739544
1.0697503
1.064156
1.0580281
1.0518755
1.045697
1.0390744
1.0311171
1.0208176
1.0077893
0.99244933
0.97533734
0.95637223
0.9361123
0.91481096
0.88348418
0.8246422
1.1585732
1.158443
1.1582068
1.1578478
1.157354
1.1567174
1.155934
1.155005
1.1539413
1.152775
1.1515895
1.1505517
1.1492708
1.1394936
1.1210459
1.1079197
1.0992652
1.0916447
1.0817629
1.0673914
1.0472366
1.0207401
0.98964126
0.95809881
0.92902728
0.90248815
0.88152166
0.86410545
0.84571123
0.81989361
1.158618
1.1586137
1.1586037
1.1585846
1.1585528
1.1585038
1.1584331
1.1583354
1.1582055
1.1580373
1.1578181
1.1573843
1.1537848
1.1112569
1.0235473
0.99255671
0.99033707
0.99112386
0.98727811
0.9704017
0.95154924
0.93410194
0.91763009
0.90432544
0.89194612
0.87632911
0.86027501
0.84218354
0.82310724
0.79773032
1.0679708
0.99651413
0.9402443
0.8942276
0.85537831
0.82192209
0.79279929
0.76733711
0.74517415
0.72623455
0.71075637
0.69939598
0.69359065
0.70572888
0.72230661
0.74030576
0.75777094
0.77419862
0.78943893
0.8032831
0.81544126
0.8253844
0.83243405
0.83613331
0.83650499
0.83400264
0.82915872
0.82215118
0.8113968
0.7929594
1.1565098
1.1526055
1.1474035
1.1412175
1.134283
1.1267908
1.1189163
1.1108423
1.102792
1.0950727
1.0881521
1.0827704
1.079945
1.0802562
1.0809293
1.0797375
1.0767087
1.0723618
1.0666524
1.0594872
1.0505936
1.0394395
1.0256339
1.0093322
0.99115753
0.97158422
0.95068787
0.92910719
0.90722568
0.88257354
1.1585732
1.1584432
1.158208
1.1578514
1.1573624
1.1567346
1.1559668
1.1550642
1.1540422
1.152935
1.1518142
1.1508109
1.1499721
1.1470041
1.1356021
1.1187335
1.1033495
1.0905662
1.0774112
1.0630821
1.0462512
1.0254859
1.0009835
0.9747416
0.9493293
0.92639236
0.90581257
0.88775864
0.86924128
0.84719262
1.158618
1.1586137
1.1586037
1.1585849
1.1585534
1.1585052
1.1584359
1.158341
1.158216
1.1580568
1.1578579
1.1575719
1.1563878
1.1443952
1.1014001
1.0560437
1.0330466
1.0306487
1.0050967
0.97495511
0.94919232
0.92885346
0.91250063
0.8989696
0.8874837
0.87785296
0.86971964
0.86226378
0.84816519
0.82029653
1.0679586
0.9966229
0.94049489
0.89463163
0.85596233
0.82273493
0.79397141
0.76914104
0.74806509
0.73082709
0.717771
0.70943747
0.70675394
0.72080263
0.73959958
0.76025977
0.77905552
0.7935978
0.8035249
0.80980799
0.81359187
0.81561999
0.81617704
0.81530094
0.81301679
0.80932611
0.80409592
0.79676628
0.78566476
0.76849719
1.1565099
1.1526182
1.1474395
1.1412837
1.1343887
1.1269544
1.1191806
1.1112848
1.1035264
1.0962281
1.0898264
1.0848739
1.082031
1.0820622
1.0836345
1.08404
1.0809567
1.0743198
1.0655451
1.0560122
1.0461634
1.0359372
1.0251027
1.0134367
1.0007884
0.98707097
0.97232309
0.95680354
0.94033554
0.91821226
1.1585732
1.1584438
1.1582099
1.157855
1.1573678
1.1567418
1.1559763
1.1550776
1.1540619
1.1529616
1.1518336
1.1506822
1.1495438
1.1479986
1.1429749
1.1313328
1.1111762
1.0857781
1.0602384
1.0385929
1.0193981
1.0011014
0.98339044
0.96625994
0.95020126
0.934196
0.91781465
0.90131839
0.884601
0.86728227
1.158618
1.1586137
1.1586038
1.158585
1.1585536
1.1585053
1.1584355
1.1583395
1.1582123
1.1580486
1.1578404
1.1575468
1.1568641
1.1530943
1.1375013
1.1085206
1.0722758
1.0300652
0.98951991
0.95518972
0.9291458
0.90987468
0.8948183
0.88255057
0.87229241
0.86435014
0.8579265
0.8523522
0.84688483
0.83998297
1.067934
0.99587226
0.93856095
0.89118174
0.85066619
0.81522156
0.78386216
0.75624825
0.73231711
0.71162612
0.69395231
0.67928123
0.66802331
0.66892608
0.67319786
0.68075053
0.69066552
0.70158935
0.71225353
0.7217657
0.72963319
0.73565763
0.7398078
0.74213713
0.742744
0.74171385
0.73903682
0.73447786
0.72733429
0.7165777
1.1565069
1.1525411
1.1471596
1.1406347
1.1331677
1.1249206
1.1160395
1.1058165
1.0920875
1.0741935
1.0497544
1.018202
0.9804518
0.94292777
0.90902375
0.88091722
0.85908884
0.84330811
0.83309574
0.82767068
0.82575136
0.82584802
0.82661478
0.82701624
0.82630355
0.82383785
0.81886641
0.81024756
0.79591537
0.77427482
1.1585731
1.1584401
1.1581933
1.1578089
1.1572665
1.1565489
1.1556429
1.1545179
1.153089
1.1512592
1.1487481
1.1408532
1.120494
1.0866469
1.0445851
1.0002096
0.95905725
0.92379193
0.8955308
0.8743524
0.85949393
0.84964294
0.84332886
0.8392069
0.83617466
0.83333521
0.8298845
0.82488699
0.8167362
0.80317531
1.158618
1.1586136
1.1586029
1.1585821
1.1585461
1.1584886
1.1584024
1.1582783
1.1581027
1.1578551
1.1574855
1.1566767
1.1540899
1.1401975
1.1047496
1.0595894
1.0160768
0.97667969
0.94274178
0.91502277
0.89350414
0.87744706
0.86573746
0.85722602
0.85090492
0.84595052
0.84165527
0.83729234
0.83177976
0.8234277
)
;

boundaryField
{
    maxY
    {
        type            calculated;
        value           nonuniform List<scalar> 
300
(
1.1586174
1.1586174
1.1586174
1.1586174
1.1586174
1.1586174
1.1586174
1.1586174
1.1586174
1.1586174
1.158613
1.1586132
1.1586132
1.1586132
1.1586132
1.1586132
1.1586132
1.1586132
1.1586132
1.158613
1.1586024
1.1586033
1.1586032
1.1586031
1.1586031
1.1586031
1.1586031
1.1586032
1.1586033
1.1586024
1.1585816
1.1585845
1.1585843
1.1585841
1.158584
1.158584
1.1585841
1.1585843
1.1585845
1.1585816
1.1585456
1.1585531
1.1585529
1.1585523
1.158552
1.158552
1.1585523
1.1585528
1.1585531
1.1585455
1.1584883
1.1585049
1.1585048
1.1585034
1.1585026
1.1585026
1.1585033
1.1585047
1.1585047
1.1584881
1.1584026
1.1584355
1.1584358
1.1584328
1.1584312
1.158431
1.1584325
1.1584354
1.1584349
1.1584019
1.1582793
1.1583403
1.1583414
1.1583356
1.1583323
1.1583319
1.1583349
1.1583405
1.1583389
1.1582778
1.1581052
1.1582145
1.1582175
1.1582064
1.1582001
1.1581992
1.158205
1.1582155
1.1582117
1.1581022
1.1578603
1.1580533
1.1580601
1.1580399
1.158028
1.1580255
1.1580368
1.1580563
1.1580481
1.1578546
1.1574948
1.1578487
1.1578645
1.1578256
1.1577965
1.1577841
1.1578175
1.1578574
1.1578399
1.157485
1.1566807
1.1575612
1.1575981
1.1574544
1.1572318
1.1570334
1.1573838
1.1575714
1.1575463
1.1566761
1.1541152
1.156927
1.1567557
1.1551103
1.1513919
1.1473563
1.1537843
1.1563873
1.1568636
1.1540894
1.1396954
1.1537795
1.1495129
1.1294238
1.0761354
1.0260392
1.1112564
1.1443946
1.1530938
1.140197
1.1048176
1.1411039
1.1192905
1.0588575
0.9870511
0.97753259
1.0235469
1.1013996
1.1375007
1.1047491
1.060313
1.1142078
1.0726759
0.99931771
0.97154683
0.96778322
0.99255632
1.0560433
1.1085201
1.0595889
1.0173161
1.0782636
1.0458938
0.99388995
0.96481074
0.96285328
0.99033669
1.0330462
1.0722753
1.0160764
0.97854661
1.0364123
1.039788
0.994942
0.95935937
0.95643379
0.99112348
1.0306482
1.0300648
0.97667931
0.94512009
0.9959995
1.0154692
0.99579346
0.95299428
0.9481422
0.98727772
1.0050963
0.98951952
0.94274143
0.91756962
0.96097061
0.98405649
0.97865472
0.94664647
0.93876804
0.97040133
0.97495474
0.95518936
0.91502244
0.89586672
0.93325743
0.95567167
0.95756301
0.93641966
0.92863599
0.95154889
0.94919197
0.92914546
0.89350383
0.87941958
0.91301051
0.93321529
0.93749354
0.92442543
0.91742058
0.93410159
0.92885312
0.90987435
0.87744676
0.86726283
0.89734662
0.91544278
0.92022563
0.91271775
0.90624605
0.91762976
0.9125003
0.89481798
0.86573717
0.85833987
0.88476379
0.90098682
0.90577281
0.90237363
0.89627459
0.90432512
0.89896929
0.88255026
0.85722573
0.85168525
0.87410734
0.88870349
0.89084815
0.89329224
0.88749159
0.89194581
0.88748339
0.87229211
0.85090464
0.84648119
0.86540835
0.87818881
0.87446735
0.88696503
0.87974038
0.87632881
0.87785265
0.86434985
0.84595024
0.84201557
0.85845233
0.86929984
0.85874655
0.87338802
0.87196319
0.86027471
0.86971934
0.85792621
0.84165499
0.83756086
0.8524912
0.86125634
0.8421581
0.84804781
0.8482972
0.84218327
0.86226349
0.85235192
0.83729206
0.83206832
0.84672354
0.84529051
0.81835855
0.81307396
0.81981129
0.82310698
0.8481649
0.84688455
0.83177949
0.82392739
0.83942211
0.81672094
0.79502278
0.77220761
0.78568276
0.79773007
0.82029626
0.8399827
0.82342744
)
;
    }
    minX
    {
        type            calculated;
        value           nonuniform List<scalar> 
40
(
1.1586222
1.1586212
1.1586201
1.1586191
1.1586222
1.1586212
1.1586201
1.1586191
1.1586222
1.1586212
1.1586201
1.1586191
1.1586222
1.1586212
1.1586201
1.1586191
1.1586222
1.1586212
1.1586201
1.1586191
1.1586222
1.1586212
1.1586201
1.1586191
1.1586222
1.1586212
1.1586201
1.1586191
1.1586222
1.1586212
1.1586201
1.1586191
1.1586222
1.1586212
1.1586201
1.1586191
1.1586222
1.1586212
1.1586201
1.1586191
)
;
    }
    maxX
    {
        type            calculated;
        value           nonuniform List<scalar> 
40
(
0.71886788
0.77641091
0.80448931
0.82386219
0.77317829
0.9217015
0.86757662
0.83942482
0.79935165
0.88336888
0.84379906
0.816805
0.70054534
0.82389647
0.81503454
0.79553993
0.64313707
0.70412196
0.7532373
0.7719919
0.64757542
0.71843927
0.77032652
0.78594302
0.70398509
0.82484069
0.82029998
0.79799734
0.79292874
0.88276557
0.84750233
0.82065229
0.76844869
0.91825727
0.86735201
0.84007024
0.71657301
0.77426268
0.80317729
0.82344226
)
;
    }
    minZ
    {
        type            calculated;
        value           nonuniform List<scalar> 
120
(
1.0678762
1.1565054
1.158573
1.1586179
0.9957735
1.1525369
1.15844
1.1586136
0.93842825
1.147152
1.1581931
1.1586029
0.89101518
1.1406234
1.1578086
1.1585821
0.85046451
1.1331526
1.1572663
1.1585461
0.81498899
1.1249026
1.1565494
1.1584888
0.78361747
1.116017
1.1556448
1.1584031
0.75602236
1.1056249
1.1545177
1.1582798
0.73211529
1.091706
1.1530839
1.1581057
0.71145068
1.0735381
1.1512451
1.1578608
0.69379695
1.0487417
1.1486998
1.1574954
0.67912556
1.0170174
1.1401287
1.1566813
0.66781658
0.97913417
1.1187394
1.1541158
0.66860748
0.94163019
1.0845005
1.1396959
0.67269382
0.90799929
1.0425384
1.1048181
0.68007191
0.88042699
0.99862685
1.0603134
0.68990617
0.85925798
0.95827902
1.0173165
0.70085898
0.84402583
0.92388938
0.97854698
0.71161492
0.83406477
0.8962922
0.94512044
0.72122015
0.82858011
0.87542296
0.91756995
0.7291533
0.8264315
0.86056144
0.89586703
0.73522688
0.82627635
0.85052453
0.87941988
0.7394576
0.82688733
0.8439746
0.86726313
0.74195876
0.82728793
0.83966216
0.85834016
0.74286252
0.82671434
0.83652677
0.85168553
0.74224692
0.82447855
0.83367402
0.84648147
0.74005939
0.81979807
0.8302886
0.84201585
0.7360135
0.81154504
0.82544608
0.83756114
0.72936516
0.79769706
0.81760685
0.83206859
0.71894194
0.77650577
0.80456284
0.82392766
)
;
    }
    maxZ
    {
        type            calculated;
        value           nonuniform List<scalar> 
120
(
1.067934
1.1565069
1.1585731
1.158618
0.99587226
1.1525411
1.1584401
1.1586136
0.93856095
1.1471596
1.1581933
1.1586029
0.89118174
1.1406347
1.1578089
1.1585821
0.85066619
1.1331677
1.1572665
1.1585461
0.81522156
1.1249206
1.1565489
1.1584886
0.78386216
1.1160395
1.1556429
1.1584024
0.75624825
1.1058165
1.1545179
1.1582783
0.73231711
1.0920875
1.153089
1.1581027
0.71162612
1.0741935
1.1512592
1.1578551
0.69395231
1.0497544
1.1487481
1.1574855
0.67928123
1.018202
1.1408532
1.1566767
0.66802331
0.9804518
1.120494
1.1540899
0.66892608
0.94292777
1.0866469
1.1401975
0.67319786
0.90902375
1.0445851
1.1047496
0.68075053
0.88091722
1.0002096
1.0595894
0.69066552
0.85908884
0.95905725
1.0160768
0.70158935
0.84330811
0.92379193
0.97667969
0.71225353
0.83309574
0.8955308
0.94274178
0.7217657
0.82767068
0.8743524
0.91502277
0.72963319
0.82575136
0.85949393
0.89350414
0.73565763
0.82584802
0.84964294
0.87744706
0.7398078
0.82661478
0.84332886
0.86573746
0.74213713
0.82701624
0.8392069
0.85722602
0.742744
0.82630355
0.83617466
0.85090492
0.74171385
0.82383785
0.83333521
0.84595052
0.73903682
0.81886641
0.8298845
0.84165527
0.73447786
0.81024756
0.82488699
0.83729234
0.72733429
0.79591537
0.8167362
0.83177976
0.7165777
0.77427482
0.80317531
0.8234277
)
;
    }
    topAir_to_rightSolid
    {
        type            calculated;
        value           nonuniform List<scalar> 
130
(
0.46344089
0.45858953
0.45361347
0.44875598
0.44420792
0.44008676
0.4364536
0.43333873
0.43075694
0.42870317
0.427166
0.42614575
0.42563628
0.46708512
0.4613242
0.45556828
0.45011415
0.44513335
0.44071015
0.43687104
0.43361708
0.4309425
0.42882488
0.42724889
0.42620602
0.42568759
0.47452242
0.46662078
0.45919948
0.45254621
0.44673535
0.44175584
0.43755212
0.43406094
0.43122491
0.42899916
0.42735861
0.42627785
0.42573987
0.48604321
0.47398001
0.46380679
0.45541589
0.44852487
0.44286938
0.43824239
0.43448656
0.43148263
0.42914567
0.42743579
0.42631426
0.42575695
0.50040675
0.48120515
0.46768968
0.45760902
0.44981056
0.44364083
0.43871045
0.434769
0.43164849
0.42923757
0.42748199
0.42633471
0.42576564
0.50040556
0.48122087
0.46771185
0.45762917
0.44983079
0.44366397
0.43873386
0.43478801
0.43165659
0.42924608
0.42749057
0.42634245
0.42577303
0.48598221
0.47396422
0.46381044
0.45542668
0.44854593
0.4429019
0.43828106
0.43452237
0.43150696
0.4291685
0.4274541
0.42632834
0.42576878
0.47435741
0.46651766
0.45913817
0.4525102
0.44672758
0.44177004
0.43757935
0.43409244
0.43125286
0.42902249
0.427373
0.42628336
0.42574001
0.4668423
0.46115029
0.45544709
0.45003628
0.44509672
0.44070649
0.43688992
0.43364945
0.43096803
0.42883853
0.42725252
0.42619889
0.42567231
0.46317666
0.4583977
0.45346888
0.44865843
0.444157
0.44007428
0.43646899
0.43336819
0.43077742
0.42870972
0.42716277
0.42613238
0.42561677
)
;
    }
    topAir_to_heater
    {
        type            calculated;
        value           nonuniform List<scalar> 
40
(
0.47546796
0.47411232
0.47151202
0.46786175
0.48168819
0.4800498
0.47688907
0.4724376
0.4952035
0.49299529
0.48858944
0.48222374
0.51873105
0.51572353
0.50928555
0.49919934
0.55753045
0.55431581
0.54609026
0.53021561
0.5574732
0.55424806
0.54603625
0.53018685
0.51847554
0.51544525
0.50906982
0.49905802
0.49477661
0.49258413
0.48824217
0.48197501
0.48124416
0.47965071
0.47652934
0.4721272
0.47506098
0.47374868
0.47117176
0.46754761
)
;
    }
    topAir_to_leftSolid
    {
        type            calculated;
        value           nonuniform List<scalar> 
130
(
0.37493741
0.37494509
0.37496651
0.3750036
0.37505658
0.37512701
0.37521569
0.37532167
0.3754437
0.37557877
0.3757222
0.37586781
0.37597644
0.37496218
0.37496932
0.37499001
0.37502651
0.37507935
0.37515012
0.37523946
0.37534727
0.37547132
0.37560751
0.37574885
0.37588813
0.37600804
0.37500589
0.37501346
0.37503411
0.37507002
0.3751222
0.37519152
0.37528198
0.37539637
0.37553036
0.3756752
0.37582456
0.37597448
0.376102
0.37505401
0.37506298
0.37508612
0.37512523
0.37518125
0.37525508
0.37535102
0.37547336
0.37562337
0.3757848
0.37594643
0.37611138
0.37622968
0.3750927
0.37510499
0.37513436
0.37518219
0.37524753
0.37532936
0.37543425
0.37556699
0.37573011
0.37591294
0.37607778
0.37622535
0.37633144
0.37511701
0.3751324
0.37516957
0.3752319
0.37531566
0.37540734
0.3755196
0.3756562
0.37581517
0.37598053
0.37613681
0.37628802
0.37639462
0.37512422
0.37514179
0.37518488
0.37525892
0.37535816
0.37545926
0.37557003
0.37569432
0.37583204
0.37597768
0.37612556
0.37625251
0.37633269
0.37512638
0.3751431
0.37518688
0.37526467
0.37536214
0.37546076
0.37556457
0.37567707
0.37579927
0.37592732
0.37605629
0.37616891
0.37623656
0.37512226
0.37514069
0.37518627
0.37526185
0.37535477
0.37545132
0.37554903
0.37565055
0.37575769
0.37586742
0.37597508
0.37606864
0.37612588
0.37511256
0.37513092
0.37517593
0.37524886
0.37534201
0.3754422
0.37554103
0.37563649
0.37573599
0.37583545
0.37593012
0.37600649
0.37605333
)
;
    }
}


// ************************************************************************* //
