/*--------------------------------*- C++ -*----------------------------------*\
| =========                 |                                                 |
| \\      /  F ield         | OpenFOAM: The Open Source CFD Toolbox           |
|  \\    /   O peration     | Version:  v2012                                 |
|   \\  /    A nd           | Website:  www.openfoam.com                      |
|    \\/     M anipulation  |                                                 |
\*---------------------------------------------------------------------------*/
FoamFile
{
    version     2.0;
    format      ascii;
    class       surfaceScalarField;
    location    "130/bottomWater";
    object      phi;
}
// * * * * * * * * * * * * * * * * * * * * * * * * * * * * * * * * * * * * * //

dimensions      [1 0 -1 0 0 0 0];
oriented        oriented;


internalField   nonuniform List<scalar> 
3858
(
-0.00020875294
0.00011274044
9.5353938e-05
-0.00026631715
-5.769931e-05
0.00011470451
-0.00019390506
-0.00017425695
0.00010145312
-4.6765602e-05
-0.00022387657
7.617185e-05
9.4735755e-05
-0.00019907652
5.528855e-05
8.2033859e-05
8.1827391e-06
6.5052207e-06
0.00017479221
-0.00018946051
9.4584622e-05
7.6638957e-05
1.8926325e-05
7.8536253e-05
-0.00013228543
0.00013833221
6.9796487e-05
-0.00010303478
-0.00012092663
9.0033225e-05
8.0961121e-05
-0.00019821108
1.1937905e-05
3.4863753e-06
9.5425717e-05
-1.8653152e-05
-0.00014467943
0.00010857162
3.8043225e-05
-0.00015814212
-6.9142087e-05
8.1034152e-05
1.4230222e-05
-0.00025346099
7.9100321e-05
0.00020895459
-0.00026483213
6.812036e-05
0.00033604877
-0.00020759965
7.9081244e-05
0.00028187767
3.9113783e-05
1.6459033e-05
0.00017374649
0.00011844541
-8.7438147e-06
2.5559894e-05
0.00013717051
1.1678371e-05
-0.00015246414
0.00012970003
5.0435175e-05
-0.00018687214
-2.6937563e-05
6.4866844e-05
-7.4125431e-05
-0.00021492729
0.00010313251
-0.00017560738
6.5730304e-05
3.9693591e-05
-0.00018922926
-2.825736e-05
4.4974998e-05
-1.044148e-05
-0.00023696785
5.8864219e-05
0.00012429252
-0.00022414615
9.0590914e-05
0.00026960105
-0.00024947093
0.00010328917
0.00019747052
6.5120152e-06
6.784957e-05
0.00013419117
6.4354678e-05
-0.00038911728
0.00036080307
0.00014105465
-0.00037661668
-0.0002307066
0.00016050669
-0.0002525542
-0.0004161262
0.00011780678
-7.2737916e-05
-0.00047532566
7.1632803e-05
0.00015486411
-0.00043480716
8.1286148e-06
0.00018324101
-2.6951235e-05
6.7570813e-06
0.00038834966
-0.00051936146
0.00012479229
0.00026950651
-3.5300721e-05
0.00017307019
-0.00020818091
0.00048026679
0.00013575285
-0.00017170966
-0.00031067944
0.00015328157
0.00016414711
-0.00052214207
-1.1925775e-05
0.0001390547
0.00013029739
-9.7792615e-06
-0.00021053988
0.00034669412
0.00011147208
-0.00020759178
-0.00022305653
0.00015096636
1.4994132e-05
-0.00054146273
6.541583e-05
0.00018285681
-0.00051642166
8.3726852e-05
0.00032049858
-0.00050122069
0.00015597926
0.00034901558
-4.1937861e-05
5.2534638e-05
0.0003836531
2.2417525e-05
6.1390352e-05
1.623371e-05
0.00051116479
-6.5749077e-06
-0.00027325444
0.00033316074
8.6027423e-05
-0.00024642102
-0.0001815799
0.00012780889
-0.00012221098
-0.00051798693
0.00017884958
-0.00020627947
3.236512e-05
0.00011743367
-0.00015663984
-0.00010985799
3.1961002e-05
5.6199516e-05
-0.00048627481
3.646761e-05
0.00018873623
-0.00047154149
0.00011485864
0.00039196321
-0.00057607736
0.00012337946
0.00038181501
-7.8445971e-05
9.5106188e-05
0.00046418912
5.1817061e-05
8.3828574e-05
0.00024721771
2.9756778e-05
1.5772868e-05
-0.00011634752
-4.6303373e-05
-0.00013155276
-0.00027181954
3.0189779e-06
-0.00012879474
-0.00045610225
-2.1981419e-05
-4.1498186e-06
-0.00049557707
-6.3875005e-05
0.0001727468
-0.00024956826
4.5720403e-05
-0.00014586252
-0.00011635195
-8.4400181e-05
-0.0001069504
-8.6937429e-05
1.272459e-05
5.8661305e-05
0.000327938
-1.3282919e-05
-8.2482105e-05
-6.2305763e-05
-0.00010723027
-0.00038268403
-0.0001392364
-8.270374e-05
-0.00013326963
-0.0001634269
4.4309898e-05
0.00013497269
-1.5393236e-05
9.3845049e-05
0.0002475914
-0.00033784058
2.1653506e-06
0.0001031331
-0.00036221491
-3.4789507e-05
-3.49867e-05
-0.00036586901
-1.2432848e-05
-0.00013532609
-0.00035422508
-4.6656221e-05
-2.3953918e-05
-0.0002876748
0.00013436475
9.6821137e-05
-7.6309426e-05
-2.2048126e-05
0.0001504057
0.00041138265
4.6197549e-05
0.00016920917
0.00027107519
4.3282056e-05
0.00017120939
-0.00020437051
2.0790366e-05
-0.00010170882
-0.00018064381
-6.4424913e-05
-2.4558915e-06
-9.842298e-05
3.153516e-05
0.00012196727
-0.00017206184
-6.2219318e-05
9.6177391e-05
-0.00040179604
-5.8688878e-05
7.0234417e-05
-0.00039874931
-4.6849194e-05
-0.00019968917
-0.00010443962
-0.00020171415
-0.00011991
-8.9626693e-05
-6.8598433e-05
0.00035040104
-6.1219091e-06
0.00017638963
8.2887106e-05
-1.2059027e-05
4.1575793e-05
7.7588835e-05
-5.9122527e-05
-6.9582998e-05
-0.00018108612
2.0425371e-05
-8.2082346e-05
-0.00041548701
-2.8115877e-05
-4.2767682e-05
-0.0004701471
-6.4744622e-05
-1.3918119e-06
-0.00024469855
-4.6245569e-05
-0.00011570933
2.6470658e-05
-2.8505082e-05
-0.00015879139
6.3464492e-05
-0.00010731986
0.00013067433
7.5111192e-05
-3.6638914e-05
4.7881224e-05
9.8414101e-05
-7.7926751e-05
-4.5788676e-05
-2.1923136e-05
-2.3643351e-05
-7.0158771e-06
-0.00025454958
5.2349894e-05
0.00015910101
-0.00020547829
2.3968191e-05
0.00016104281
-0.00033597616
-3.8062015e-06
7.3548516e-05
-0.00030173211
2.701151e-05
4.6134808e-05
-0.00037291303
3.4457736e-05
9.7341118e-05
-0.00036832583
-3.710557e-05
2.011096e-05
-0.00024418755
3.3742888e-05
-0.00011696152
0.00019125902
-0.00013049599
4.1299397e-05
0.00021362292
3.9498779e-05
0.00019415775
0.00010249772
1.5719081e-05
0.00027037778
-0.00024515328
-3.543728e-05
0.00029301375
-0.00011603918
-8.7240617e-05
-3.7242396e-05
0.0004094579
-0.00017762475
-0.00011637885
2.1639207e-05
-0.00011456459
-6.0538999e-05
-0.0004002891
-5.734678e-05
-1.914585e-05
-0.00041626758
-2.3874868e-05
-8.5577838e-05
2.1509902e-05
-5.9517521e-05
-0.00021272481
7.5729641e-05
-3.8209345e-05
9.9598839e-05
3.8077392e-05
0.00017422174
-9.1334635e-05
0.00034231111
-9.0500536e-05
0.00028435121
-0.00012312621
-1.5202894e-05
-0.0001159329
-0.00032491553
-0.00016043446
-0.00038928882
-0.00018032525
-0.00025006887
-0.00011274929
-9.0881143e-05
-9.5723233e-05
9.7884962e-05
-0.00011365491
0.00024558844
-4.9289378e-05
0.00033870435
-0.00011503903
0.00025588001
-0.00017172524
0.00022996547
-0.00017956374
0.0001215425
-0.00022755318
5.0384904e-05
-0.00023057451
-3.0431278e-05
-0.00029209685
-0.0002379429
-0.00016081421
-0.00033437432
-0.00014775614
-0.00010561724
-3.7498089e-05
9.7973587e-05
1.0032072e-05
0.00018925157
1.1219718e-05
-5.7887808e-05
1.9860789e-06
-0.00012956221
-4.4364783e-05
0.00026505517
1.4840512e-05
0.00033970593
-5.3011548e-05
6.1143079e-05
-0.00012172625
-0.00028178297
-7.3341528e-05
-0.0002152388
-4.503425e-05
-0.00012164966
-1.7859494e-05
-2.2050818e-05
-0.0001445854
0.00013785375
0.00010124784
-0.00025001505
0.00012007269
0.00010097263
-0.00020615337
-6.3381821e-05
0.00012262123
-9.6760117e-05
-0.00016364904
0.00012998467
6.2977583e-05
-0.00020610106
0.00010046491
0.00021800341
-0.00024502708
9.3678555e-05
0.00018533687
5.4536982e-06
0.00012084066
4.5855018e-05
0.00014513994
7.1587485e-05
-0.00010141232
0.00014327801
7.1234823e-05
-0.00011282744
7.0752816e-05
2.9305665e-05
4.5001854e-05
-0.00014048068
-9.678316e-06
-3.8484156e-06
0.00012640419
-9.7450382e-05
-0.00011654281
0.00013805787
8.9944503e-06
-0.00019664721
7.5835685e-05
8.5049595e-05
-8.32152e-05
-0.00016829191
0.00013129453
0.00013360247
-0.00023378281
8.2198862e-05
0.00015706715
8.5387847e-05
-2.9779083e-05
0.00013187594
0.00011223058
-7.1498184e-05
6.3318793e-05
0.00016599478
-0.00010495684
-1.3309118e-06
0.00013819308
-6.0857719e-05
-8.5513534e-05
0.00015621685
-2.0575489e-05
-0.00015700945
0.00013895192
-1.0467205e-06
-0.00020482346
6.4165068e-05
8.8776997e-05
-0.00020008203
-5.492531e-05
9.0911279e-05
-7.9251619e-05
-0.00018300259
0.00010696539
9.1724403e-05
-0.00022910726
0.00011638042
0.00018631275
-0.00012136832
0.0001175616
0.00016928935
7.3921114e-05
4.778634e-05
8.5936174e-05
0.00015172606
3.6446886e-07
0.00015093028
-5.2624488e-07
-0.00034228048
0.00055092209
7.0266787e-05
-0.00042819023
0.00023548378
0.00013100534
-0.00026021871
-0.00025081997
0.0001372734
-8.6119864e-05
-0.00040861355
0.00014249847
0.00010854441
-0.00045994444
6.7307725e-05
0.00037874207
-0.00059370047
8.5232815e-05
0.0004433473
-7.9696947e-05
0.0001453377
0.00015729981
0.00047976734
0.00012449028
-0.0002479426
0.00058572161
9.8551656e-05
-0.00027656025
0.00018806854
6.4583494e-05
9.6970789e-05
-0.00045481574
-7.1121758e-05
0.00011557481
0.00020360522
-0.00010558431
-0.00026904456
0.00064316984
-9.0205034e-06
-0.0003542264
0.00013708476
0.00017489914
-0.00017582219
-0.00045016844
0.00016888816
0.00010590416
-0.00054800913
0.00011622683
0.0002803207
2.3025242e-05
4.392533e-05
0.00033807939
0.00016651997
-5.9513454e-05
0.00015065112
0.00052150673
-0.00010669333
-8.6113798e-05
0.00045139423
-8.301116e-05
-0.00026855403
0.00047578505
-5.1100561e-05
-0.00034244329
0.0003501361
-9.4860436e-06
-0.00028853304
5.7942894e-05
0.0001311615
-0.00018010524
-0.00023744025
0.00019152081
-2.0326492e-05
-0.00047816295
0.00016734261
0.00013463107
-0.00052704168
0.00017944447
0.00030908359
-0.00035701435
0.00017605216
0.00039463282
5.9508191e-05
5.2243155e-05
0.00023561178
0.0004466482
-4.0794908e-05
0.00053911279
-0.00010075367
6.1289752e-05
0.00052916212
-9.7730025e-06
0.00015129253
0.00013204785
-3.2870216e-05
7.1039034e-05
-0.00010772457
-5.9822917e-05
2.8885501e-06
-0.00032463668
-3.7807802e-05
-2.6720495e-05
-0.00040202163
-9.218877e-05
-0.00023362247
-0.000125644
-0.00021543409
-0.00015496909
-9.0323885e-05
-0.00015242663
-6.9162036e-05
0.00038554579
2.1139087e-05
-1.0566861e-05
0.00051852765
-4.6841283e-06
8.9284528e-05
9.8665666e-05
-0.00011767878
-0.00017344541
-0.00014614862
-0.00012864091
-0.00010283266
9.6012855e-05
8.1289516e-05
9.2144112e-05
0.00053695497
5.0831593e-06
0.00016372741
4.0318153e-05
2.7348675e-05
-8.1990539e-05
-0.00010225892
-0.00013698107
-0.0003594386
-0.00016081342
-0.00012218049
-0.00011402408
-0.00022908272
-3.9962793e-05
6.5600281e-05
5.1681392e-06
0.00011609221
3.7911727e-05
0.00041678722
0.00011035992
-1.8032172e-05
0.00040983687
0.00014369879
-3.3686946e-05
0.00041617687
0.00011854499
5.7612813e-05
0.00020626365
7.3363035e-05
0.00019100851
-0.00011299025
-2.6887479e-05
0.00015191404
-0.00018477715
1.7966521e-05
6.7235346e-05
-0.00027791588
-0.00017778768
-4.0538746e-05
-0.00031579701
-0.00016215946
-0.00012893066
-0.00029054266
-2.4928971e-05
-5.8541169e-05
-2.9680656e-05
-0.00018291478
3.5447188e-05
0.00032088274
-3.6821319e-05
0.00047178491
9.6653164e-05
0.00024951398
0.0003166218
-4.9032698e-05
0.0002699416
0.00015723444
-0.00010473675
7.067089e-05
0.00015400506
-4.2033541e-05
-6.8930498e-05
-0.00023015301
1.7001849e-05
-7.920075e-05
-0.00038504268
-7.1453306e-05
-0.00020236839
4.3669169e-05
-9.2391088e-05
-0.00028962094
5.6311068e-05
-8.7887483e-05
-0.00010746773
0.00012473837
-2.8665654e-05
0.00013303506
0.00027847262
-3.7086672e-05
0.0001819372
5.8069119e-05
-8.6232338e-05
-2.7202079e-05
7.948118e-05
-4.0133859e-05
-0.00014839753
0.00012927185
0.00014028636
0.00023186163
8.2289863e-05
9.8374158e-05
0.00025297508
-1.8833761e-05
3.4232283e-05
6.2739417e-05
0.00010502916
9.9591073e-06
-0.00010074766
1.8587904e-06
3.5272606e-05
-0.00013358462
-0.00021247368
-2.0877653e-05
-0.00019846733
9.262789e-05
1.1165823e-05
-9.2110522e-05
0.00013672111
4.321329e-05
2.4266451e-06
0.00026835439
8.6444065e-05
0.00013116898
0.00023772258
6.5430995e-05
0.00027822687
1.9655944e-05
4.1125183e-06
0.00024180459
-0.00011113007
-5.2678535e-05
0.00011584641
-0.00015320245
-8.3241275e-05
3.3365707e-05
-0.00023149808
-7.8501688e-05
-6.2189354e-05
-0.00023211899
-4.5469727e-05
-0.00012803356
-0.00025398642
5.4131079e-06
-0.00018570944
3.6850252e-05
-6.8372533e-05
-0.0001096115
0.00014831645
5.8259019e-05
0.00027454101
0.00012570979
0.00025228364
-2.6996482e-05
0.0003211641
-2.146556e-06
0.00037038302
-1.8340061e-05
6.2702219e-05
-3.8405108e-05
-0.00032044097
-0.00016233395
-0.0002934108
-0.00016368625
-0.00022446811
-0.00012538091
-9.8360489e-05
-9.7092489e-05
0.00011803806
-5.1580841e-05
0.00011236057
1.4457232e-05
9.5404047e-05
-1.8601318e-05
0.00011189032
-5.8939649e-05
0.0001117127
-9.7096241e-05
2.6641387e-05
-0.00016131562
9.3463573e-05
-0.00019236753
4.7312289e-05
-0.00024408677
-0.00016828696
-0.00015768865
-0.00014243075
-8.0984479e-05
-7.590794e-05
3.2700186e-05
8.5205682e-05
0.00011727281
0.00022419835
0.00010994961
0.0002502068
-4.3664439e-06
0.0002039304
-0.00010921847
0.00015269022
-8.7121759e-05
7.0984253e-05
-0.00020280366
-7.3261575e-05
-0.00020959941
-0.00027194041
-0.00012864911
-0.00022187822
-5.8246177e-05
-0.00016700378
7.5582538e-05
8.5486414e-05
-6.6798755e-05
0.00013339323
3.4907236e-05
-0.00016640664
0.00016483609
3.6724568e-05
-0.0001659542
0.0001101313
1.3214335e-05
-3.7063556e-05
-4.7783995e-05
4.9447813e-05
0.00012956857
-0.00014159562
7.5151784e-05
0.0001420115
6.4799391e-06
7.5424489e-05
4.3013792e-05
0.00014199811
7.856105e-05
-8.9663609e-06
0.00014635229
-2.431704e-05
-5.2787555e-05
0.00013587287
-2.2561435e-05
-5.5215556e-05
0.00011454241
-8.3475099e-05
8.405167e-05
-8.4044152e-05
-6.7418856e-05
7.0693649e-05
7.1082693e-05
-0.00015418752
2.1160842e-05
0.00013365317
-7.6771579e-05
-3.2610736e-05
0.00011128025
2.5620087e-05
-7.0060253e-05
0.00012304079
4.5440999e-05
-7.9500461e-05
7.1584601e-05
1.8667888e-05
-0.00014508287
0.00014306418
-0.00010741631
-0.00014486132
6.156805e-05
-0.00013288244
-4.7053662e-05
-7.6808847e-05
-0.00012499901
0.000111848
-0.00016651272
-5.2387083e-05
8.6387724e-05
7.0467357e-05
-6.0545381e-05
1.6369723e-05
0.00011278298
-4.126345e-05
-2.9196814e-05
0.00013701177
-5.8308574e-07
-8.6109882e-05
0.00013253771
1.8445102e-05
-8.1303575e-05
8.9265315e-05
1.6176677e-05
-2.4445738e-05
5.2043596e-05
1.0312409e-05
-3.1583919e-05
0.00012303262
3.959683e-06
-3.0870303e-05
0.00013141168
-8.3047406e-05
-3.5743178e-05
0.00011662881
-0.00010929199
7.8169867e-05
-0.00011142964
-0.00023809633
0.00056143212
-0.00011967577
-0.00042023582
0.00048162444
-3.6435239e-06
-0.00024580721
5.694574e-05
1.6030355e-05
2.0411432e-05
-0.00022863718
5.7133019e-05
0.00028870353
-0.00043255802
8.9978032e-05
0.00037553376
-0.00012485514
0.00012973767
0.00033667391
0.00022255562
0.00010364004
7.8975249e-05
0.00059379701
-6.5255776e-05
-0.00021659528
0.00057571352
-4.5718467e-05
-0.00022083255
0.0002619913
-7.8628119e-05
4.0500205e-05
-0.00033901443
-7.7484232e-05
0.0001816001
-2.989186e-05
-0.00014570965
-6.5943856e-05
0.00053032558
-0.00015814895
-0.00032407404
0.00051813291
2.6176674e-05
-0.0002951584
0.00015079763
0.00011221569
-0.00028275501
9.5118798e-05
8.0289244e-05
-0.00044306241
0.00044902881
-0.0001017319
-0.00028391412
-1.2254579e-05
-0.00014483912
-9.1808954e-05
-0.00027366383
-0.00010194353
0.00010712491
-0.00044675851
-1.6992512e-06
0.00020826889
-3.055816e-05
-5.1219045e-05
0.00022376073
0.0001313707
-4.3565608e-05
-3.779426e-05
0.00058160199
-5.187374e-05
-0.00021962645
0.00044665161
5.9239105e-05
-7.8370004e-05
-2.6587487e-05
0.00014193896
5.9398569e-05
-4.9945638e-05
0.00014366513
-4.9966138e-05
0.00037128519
3.7164303e-05
-0.00019141505
0.00048797861
-0.00016287486
-0.00017690537
0.00021908622
-0.00015776198
-3.4259829e-05
-0.00016522934
9.5248164e-06
0.00054719856
-5.064267e-06
6.0408746e-05
0.00038153597
1.6334326e-05
0.00011964221
-6.7128047e-05
5.0174067e-06
0.00012047046
-0.00032272282
5.5449598e-05
-1.8495322e-05
-0.00034387388
-4.1907127e-05
-0.00012606129
-8.5211374e-05
-0.00014751187
-6.915716e-05
0.00010732561
-9.4100749e-05
-4.4751923e-05
0.00056300511
2.7525756e-05
1.6599146e-05
0.00052921887
-1.9540545e-05
0.00013113887
6.6101944e-05
-3.6329148e-05
-0.00016622212
-0.00015581151
-1.4482832e-05
-0.00019243378
-4.4946541e-05
0.00012255587
-0.00010879014
0.00047009899
-1.8333875e-05
-8.6744541e-05
0.00045692121
6.6514797e-05
-4.532002e-05
4.6908852e-05
-7.4516806e-05
-5.8689813e-05
-8.6268132e-06
-5.065083e-06
-2.8755403e-05
0.00030506529
7.4066317e-05
0.00014664348
-5.3332005e-05
-1.8229263e-05
-4.5256196e-06
-8.0299997e-05
6.8165166e-05
-0.00032779313
-7.309956e-05
9.3307322e-05
-0.0001898834
-0.00021171469
0.00016179177
5.1725639e-05
-0.00016923618
0.00013236085
-2.6423142e-05
0.00050586155
0.00012700173
-1.4530198e-05
0.0003678479
8.4877277e-05
-2.248039e-05
-9.6713023e-05
-9.9711952e-05
-8.6753172e-05
-8.26288e-05
-6.5203507e-05
-8.9940425e-05
0.0002801721
6.9371383e-05
-0.00012131726
0.00024625426
9.018641e-05
3.1007115e-07
-2.7823245e-05
8.8460817e-05
-9.8809767e-05
0.00016151318
0.00017005727
0.00030735523
2.0753356e-05
0.00031385134
0.00014508141
-1.2076255e-05
0.0001624539
0.00012093357
-7.8697726e-05
2.2898076e-05
-0.00027709129
0.00011092615
-0.00011304561
-0.0002814614
2.0779055e-06
-0.00028892943
0.00011789495
-0.00011961358
-0.00028391739
9.1687487e-05
-7.72614e-05
-6.5307209e-05
0.00025184731
6.3881967e-05
0.00019609512
0.00022941612
1.3137518e-06
0.0003036022
-0.00015565332
2.8015837e-05
2.7325116e-05
9.8366064e-05
-1.8034338e-05
-0.00028609388
0.00033476997
7.3988858e-05
-6.4059518e-05
0.00023136923
0.00011506957
0.00018061737
0.0002319698
1.4506815e-05
0.00016603082
0.00017490847
-0.00010345395
-6.5239685e-05
0.00034455259
-8.6636282e-05
3.230075e-05
0.00012153609
6.5111109e-05
-4.7010922e-05
0.00015564447
-0.000118499
-0.00013420921
-1.1296393e-05
6.140795e-05
-0.00014056767
-2.5515916e-05
4.5218844e-05
-0.00016839396
-0.00019959259
8.1135149e-05
-8.8425942e-05
-0.00024018965
-4.9020454e-06
0.00013822699
0.00011109696
0.0001154331
0.00029116078
8.6898912e-05
4.4773919e-05
1.47727e-06
0.00021663618
-0.00010216738
-0.00031889549
0.00025496104
-6.2686804e-05
-0.00014886731
7.5194778e-05
4.0362263e-05
0.00012685439
-0.00014967894
5.1838984e-05
0.00022690354
-0.00015877245
8.9159086e-05
0.00019124404
6.2559534e-05
0.00020965613
7.0702614e-05
0.00029723563
5.5355349e-05
0.00035217468
4.7654464e-05
3.8471284e-05
-1.7929919e-06
-0.00030690564
-9.8418417e-05
-0.00025712376
-9.5573183e-05
-0.00021435341
-7.6463771e-05
-4.1552913e-05
-1.8045673e-05
5.8514537e-05
7.7767834e-05
-0.00020845457
0.00012577303
-0.00028528049
0.00015659067
-0.00013508075
0.0001256306
-5.6072997e-05
5.5265252e-05
1.030044e-05
4.2807592e-06
8.4917665e-05
-9.2076271e-05
0.0002105419
-2.515842e-05
0.00020311506
-2.872573e-05
0.0002875437
-9.76866e-06
0.00023575969
7.3187782e-05
0.00018202478
0.00014549179
-1.8905884e-05
0.00011128766
-0.00024485395
-1.8608043e-05
-0.00018787582
-5.5099654e-05
-8.8344467e-05
-9.9754202e-05
4.1224168e-05
-0.00011573612
0.00016068409
-7.4098284e-05
0.00019198165
-8.4751882e-05
3.5895446e-05
-5.1838898e-05
-0.0001155147
6.8220249e-05
0.00016121576
-3.1065132e-05
0.00010250488
-3.61892e-05
5.3667953e-05
-8.426375e-05
3.5562693e-05
0.00018806434
-7.4940408e-05
-4.7226508e-05
0.00017585793
9.2534385e-05
-3.0266971e-05
0.00012327225
0.00015132523
-2.2789204e-05
6.3490483e-05
0.00015948153
-2.4336594e-05
1.2550173e-06
0.00014190834
-2.3767863e-06
-5.7602914e-05
0.00012123211
-8.8245464e-05
-0.00012651748
0.00013603294
-9.1135585e-05
-0.00017371804
8.0394097e-05
-0.00011740821
-3.0227971e-06
-0.00017267727
-6.8163423e-05
0.00023643662
-0.00031873574
-7.8647948e-05
0.0002260169
6.9952344e-05
-0.0001352267
8.2437068e-05
0.0001702968
-1.9438889e-05
0.0001457122
-0.00016220141
0.00016146802
-0.00026767843
-1.453812e-06
-0.00018024741
-0.00016627843
-5.4983197e-05
-7.6550355e-05
-0.00017143928
-5.7841382e-05
5.7686366e-05
-0.00020964727
2.2592932e-05
0.00017864511
-0.00023431122
5.2687732e-05
0.00024025149
-0.00015462026
5.2320689e-05
0.0001779743
9.7365078e-05
-3.3287145e-05
9.1823086e-05
0.00015570088
-4.9881116e-05
9.7564684e-06
0.00014504203
-4.6369394e-05
-6.2905228e-05
0.00014281259
-5.9690052e-05
-0.0001523953
0.00015800503
-6.2979811e-05
-0.00018902371
6.5910815e-05
-0.00011027356
-0.00013343696
-8.2890837e-05
-8.0663968e-05
-0.00015219994
-9.1962953e-05
-3.3080755e-05
0.00017134642
-0.00015543656
0.00010740985
-0.00027507009
4.6672203e-05
0.00033758126
-0.00025175274
-3.7328725e-05
0.00043492224
4.3029941e-05
9.2964823e-06
0.00038507264
0.00023210438
5.9048483e-05
0.00020516145
0.00042564192
4.3488463e-05
3.8594721e-05
0.00045202153
-3.9906416e-05
-7.5085679e-05
0.0002511462
-8.1489466e-05
-0.00032494205
0.00050618396
-0.00016601313
-0.00026466278
7.9032942e-05
-0.00013754623
-1.7159118e-05
-0.00046971505
-2.7950105e-05
0.00026047484
-0.00069684176
-4.5237588e-05
0.00037603009
-6.7554611e-06
-0.00019699638
0.00010532226
0.00046718131
-0.00023166077
0.00059491092
-0.00045510402
0.00046520052
-0.00042422917
-0.00013406057
-0.00027304539
-0.00044145535
-2.0845985e-05
-0.00012638346
-0.00040093742
-1.9107319e-05
8.9783225e-05
-0.00046821525
4.0702023e-05
0.00016522955
-0.00054880959
0.00018783298
0.00024568089
-0.00048176516
0.00020312794
0.00032610722
3.5710858e-05
-7.0645851e-05
0.00022344479
0.0004259246
-0.00010832219
-2.3409732e-05
0.00056711069
-3.3275172e-05
-0.00027661887
0.00055767623
-1.7989367e-05
-0.00040608884
0.00041851758
-9.3878271e-05
-0.00035257769
-1.1641237e-05
-0.00013883395
-0.00019295948
-0.00030619612
-9.4074907e-05
-0.00043192772
-7.8461041e-05
0.00022874504
-0.00013638638
7.3923484e-05
0.00023704652
-0.00032345462
5.6417387e-05
7.8286052e-05
-0.0001594071
7.1432236e-05
8.1233994e-05
-8.3677394e-05
0.00017920899
0.00011169073
9.5957648e-05
6.378287e-05
2.0241754e-05
0.00033512959
3.444944e-05
-4.6438062e-05
0.00034017119
8.4429415e-05
-8.3114306e-05
0.00015170148
0.00016364672
7.2551634e-05
0.00040514396
-7.4166484e-05
0.00037543127
-0.00028790051
2.7724667e-05
0.00013610347
-0.00028770006
4.2829989e-05
-0.00032569241
-0.00010135968
-1.1130321e-05
-0.00015132882
-8.8965597e-05
-0.00011048732
1.5353468e-05
0.00036701384
-3.8215216e-05
0.00057396281
5.5873836e-05
0.00036604639
0.0001037538
-0.00010787423
-7.865913e-05
-8.9716489e-05
-0.0001875552
-0.00011296094
-0.00023081061
-6.7659853e-05
-2.4863706e-05
-0.00041913602
-4.3869167e-05
-2.7334897e-05
-0.00039488734
1.0340691e-05
-0.00023931421
-0.00016228995
2.4864932e-05
-0.00014057686
-2.7991141e-05
9.1966363e-05
1.9716576e-05
0.00030902796
4.1480479e-05
8.3102471e-06
0.00050961355
-3.0808478e-05
-3.8972388e-05
0.00050088324
3.8872126e-05
5.9986193e-05
0.00030684063
8.208976e-05
5.3324911e-05
-9.8092922e-05
0.00018329939
-3.3786061e-05
-0.00023607664
0.00010545232
-0.00035629691
5.2096316e-05
2.0813773e-05
-0.00020024114
6.3794333e-05
-1.1898973e-05
-0.000356663
5.384486e-05
-7.3827752e-05
-0.00011119653
-6.4979522e-05
-0.00017507056
6.3806968e-05
6.4684602e-05
-0.00017632286
9.9325931e-05
-3.8069267e-08
-6.1381746e-05
0.00012836866
-2.7793761e-05
-4.8917025e-05
0.00015305386
9.7391205e-05
-0.00018264434
0.00028430721
6.5003556e-05
5.7971699e-05
0.000128728
3.7113677e-05
9.2896932e-05
-0.00036517415
7.0364254e-05
-5.1257375e-05
-0.00020659718
4.5017092e-05
-0.00025974391
0.00014760844
3.3507284e-05
-0.00035694326
8.4537473e-05
3.8765876e-05
-8.8876566e-05
0.00011345397
7.8175677e-05
0.00030345663
0.00024187338
0.0001157124
0.00010316756
9.5942704e-05
-9.0218096e-05
0.00011050837
-0.00012533823
-7.092229e-05
-0.00017832898
-1.0369505e-05
-3.3072923e-05
-0.00041913156
7.3649968e-06
3.7220502e-05
-0.000351979
-3.2066654e-05
-4.9984981e-05
4.2041263e-05
-0.0001220278
-0.00023100722
0.00023745244
3.1011735e-05
-0.00010173899
0.00016551349
5.9020159e-05
4.9592269e-05
0.00031515245
-5.9037543e-05
0.00018263358
0.00030637813
-1.2229896e-06
0.00028027019
0.00017891543
7.0650864e-05
8.5369053e-05
0.00012791276
2.0734454e-05
1.5782586e-05
-0.00014489019
6.7559121e-05
-0.00029996901
2.2014226e-05
-0.00012852001
-1.0185171e-06
-0.0003528402
-7.6987457e-05
-0.00037962061
-3.6761651e-05
-0.00027766187
-3.9944768e-05
-0.00022112163
-5.5632722e-05
-0.00014925274
-3.9073405e-05
-0.00010663896
3.3976317e-05
9.4341562e-05
6.5281013e-05
0.00020459151
9.6245886e-05
-0.00014107367
0.00010626406
-0.00035379363
0.00016271346
-0.00026152561
0.00018097102
-0.00020147062
7.9747748e-05
-8.373588e-05
0.00012764448
0.00021819846
0.00028541543
0.00040437596
-1.8220825e-05
0.00028067525
1.8559488e-05
-6.7921872e-05
7.4957323e-05
-0.00035341156
4.4798329e-05
-0.00036415909
3.4180728e-05
-0.00021295611
3.1149811e-05
-0.00013241327
-1.4783561e-05
6.7925282e-05
-9.2221577e-07
0.00025660633
4.3598805e-05
0.00030645078
4.4319104e-05
0.0003608485
2.1676151e-05
0.00024706139
3.7117186e-05
0.00010830814
-4.8005946e-05
1.9913952e-05
-5.0247312e-06
-9.4822321e-05
8.7113642e-05
-3.0956548e-06
0.00014396456
-0.00028101233
-6.0853707e-06
0.00026107658
-0.00017418457
2.5103903e-05
0.00019769698
7.4430989e-05
-3.3523148e-05
4.2453766e-05
0.00014659689
-1.625619e-05
-6.2491072e-05
0.00011030391
-7.5971501e-06
-1.59161e-05
-0.00010832476
-2.7550911e-05
-0.00012705221
0.00011751042
-9.8141138e-05
-0.00017215696
3.7633256e-05
-0.00011145249
1.7736626e-05
-0.00021138318
-5.0018731e-05
0.00015291593
-0.00019004294
-2.7351081e-05
4.5733049e-05
-3.0691398e-05
-0.00011703575
4.1427629e-05
1.7723467e-05
-2.7576283e-05
-0.0001514163
1.1030039e-06
0.00012162075
-0.00019633235
6.7595804e-05
9.1849977e-05
2.7886356e-07
8.143654e-05
3.1416255e-05
4.7478734e-05
6.5170477e-05
0.00018703086
-0.00027623133
8.4708398e-05
0.0001452464
4.0415222e-05
-4.6104008e-05
-5.132969e-05
0.00013906271
1.1784025e-05
-0.00023479825
0.00012573234
-6.992276e-07
-0.00028727303
-1.3747308e-05
5.9028398e-06
-0.00011657197
-0.00028529543
2.9347863e-06
-3.0338892e-05
-0.00019025063
2.4055975e-05
-0.00013243569
1.141824e-05
-4.213911e-05
-6.1487582e-05
-3.1895921e-05
-7.7953664e-05
0.00010873695
6.0863447e-05
0.00020372407
-0.00058961272
-1.0406075e-05
0.00042606445
-0.00046877401
8.1545543e-05
0.00036921444
0.00012877314
6.1556353e-05
-2.5416e-05
0.00056615181
1.8563986e-05
-0.0001113312
0.00017792895
-2.161626e-05
6.3995239e-05
-0.00038935054
2.4209881e-05
-0.0002610408
0.00051675416
-0.00024022083
-0.0002969957
0.00010775806
-0.00017171613
1.4272257e-05
-0.00051066697
-3.9934271e-05
0.00022587251
-0.00042186419
-2.5016578e-05
0.0001139594
-3.9350221e-05
-0.00030006238
0.00031648477
4.1592546e-06
-8.9750346e-05
-0.00037629919
-4.5364726e-06
0.00022445347
-0.00048208623
1.2252071e-05
0.00023832189
5.8416531e-05
0.00011582688
7.1199016e-06
0.00033213654
0.00014967211
0.00020667243
-0.00060886037
6.2430656e-05
0.00024978898
-3.0102645e-05
-8.0920874e-05
-0.00015904932
0.00055038586
-3.5760028e-05
-0.0004585187
0.00043249388
-2.5281518e-05
-0.00040320039
-0.00011802603
-4.4917853e-05
-0.00019543962
-0.00061146443
-2.0425709e-05
-9.3336162e-05
-0.00043471875
4.8289768e-05
-0.00030797003
3.7371402e-06
0.0001937351
-0.00025282507
7.1525874e-05
0.00033242321
-2.8412944e-05
5.4879166e-05
7.1527913e-05
-0.00023353827
-2.3746919e-05
-0.00010830489
-0.00010856414
-1.1680801e-06
3.2981401e-05
3.317074e-05
1.8098983e-05
0.00010849734
0.00049984021
2.5245105e-05
0.00010929379
9.6777974e-05
0.00016478394
-0.00014348605
-8.5678432e-05
0.00011275446
-6.7588306e-05
0.0003745235
-7.8335557e-06
0.00019592132
-0.00014359617
1.5569279e-05
0.00010948413
-0.00039814905
1.6749255e-05
-1.6286979e-05
-0.00030422111
-3.0022846e-06
-3.0043716e-05
1.7228827e-05
-4.1492915e-05
0.00015829839
1.2124085e-05
-9.5665869e-05
-0.00035233978
-3.7446322e-05
-0.00012670336
-0.00042560221
-6.9315706e-05
5.0814615e-05
-2.648234e-05
-8.2278437e-05
0.00016903406
0.00021353101
2.5251002e-05
-0.00021445482
-8.2489773e-05
-5.0915372e-05
-0.00016098774
-5.1766328e-05
9.677081e-06
-2.5783158e-05
0.00046320987
-7.8837067e-05
0.00011983373
0.00033685791
-1.1108782e-05
0.00022079495
-9.837708e-05
-3.8520409e-05
-5.5587483e-05
-0.00011153069
-4.0251905e-05
-0.00018158857
-0.00011047661
-9.278872e-05
-0.00043037257
-7.0897072e-06
-3.9340798e-06
-0.00021627603
3.1179363e-05
-0.00010721544
0.00012926702
-5.5374678e-07
-0.00012938574
-0.00021759552
-5.875198e-05
-0.00016658556
7.6284571e-05
-8.2964295e-05
-0.00016330005
0.00012809246
-9.8245292e-05
6.0420414e-05
0.00025212111
-3.7951204e-06
-8.3554847e-05
0.00025370953
8.4434916e-05
-0.00025809706
0.00016265528
-8.7879386e-06
3.2325582e-05
7.867325e-05
4.2541282e-05
0.000148561
-0.00016542182
-2.4045516e-05
0.00014215428
-0.00038655171
3.9826488e-05
0.00013929671
-0.00026600022
-1.8560224e-06
0.00017777182
-2.9752938e-05
-9.2249421e-05
0.00013518279
-9.9732265e-06
-0.00013457502
-0.00029982928
-2.0554421e-05
-7.26254e-05
-0.00045265564
-2.7531219e-05
1.843111e-05
-1.2035649e-06
-0.00014840196
0.00014669774
3.1773278e-05
-6.8536728e-05
-4.5995585e-05
0.00013475306
6.4622134e-06
-0.00021443955
0.00018963037
-1.3932588e-05
3.808183e-05
0.00018811087
-3.6459908e-05
0.00024676516
0.00012500603
1.9455636e-06
0.00021129751
2.8626114e-05
-2.0884661e-05
9.1556238e-06
0.00013324151
-2.1895842e-05
-2.1378289e-05
2.021298e-05
-3.2596537e-05
-0.00044581335
1.6076729e-05
-0.00021687695
-4.1759981e-07
-0.00015512761
-9.4697865e-06
-0.00035313153
-5.6353248e-05
-0.00031978283
2.9911044e-06
-0.00022156267
-2.5760411e-05
-3.07932e-05
2.227823e-05
0.00011444248
0.00014245017
0.00022760953
0.00011476925
0.00032799695
7.4531713e-05
0.00019273964
7.6099565e-05
-0.00011429889
8.3200292e-05
-0.00024599391
4.6665835e-05
1.1525659e-05
0.00015527651
-3.8314551e-05
-8.836715e-05
-3.7626146e-05
-0.00042334895
-4.2716535e-05
-0.00039958177
1.9827566e-05
-0.00035858497
2.4957183e-05
-0.00022347418
3.0792084e-05
-6.882028e-05
2.0192903e-05
0.00010360131
1.476707e-05
0.00022859439
4.3611763e-05
0.00024601991
5.551971e-05
0.00036546365
3.5473921e-05
0.00037908234
4.3711496e-05
4.1577132e-05
2.950496e-05
-0.00013565731
0.00010006334
-4.7337527e-05
0.00010821384
-3.4612369e-05
0.000149694
-0.00027917263
7.2478614e-05
0.00014529625
-6.4214658e-05
9.12578e-05
-2.8906807e-05
9.9484939e-05
3.7631859e-05
-0.00024867454
0.00013687261
6.5774844e-05
-0.00025035794
-8.4409642e-05
7.7618834e-05
6.7440588e-06
-0.00037591932
8.5401684e-05
-4.8143217e-05
2.0127585e-05
-6.4290947e-05
-0.00011706946