/*--------------------------------*- C++ -*----------------------------------*\
| =========                 |                                                 |
| \\      /  F ield         | OpenFOAM: The Open Source CFD Toolbox           |
|  \\    /   O peration     | Version:  v2012                                 |
|   \\  /    A nd           | Website:  www.openfoam.com                      |
|    \\/     M anipulation  |                                                 |
\*---------------------------------------------------------------------------*/
FoamFile
{
    version     2.0;
    format      ascii;
    class       volScalarField;
    location    "130/bottomWater";
    object      T;
}
// * * * * * * * * * * * * * * * * * * * * * * * * * * * * * * * * * * * * * //

dimensions      [0 0 0 1 0 0 0];


internalField   nonuniform List<scalar> 
1460
(
1009.5573
1008.1614
1006.6539
1004.8499
1002.6182
1005.3009
1006.6301
1007.9021
1003.2966
997.71818
996.21674
997.64831
993.36567
989.61894
987.82388
988.95045
991.12179
993.76115
997.26493
1001.5726
1011.4049
1009.9881
1008.2311
1009.0776
1006.3544
1004.9656
1009.3777
1012.8632
1014.5713
1016.5469
1009.8518
1009.3202
1006.8149
1004.2686
1001.8497
1003.9533
1006.3283
1007.0348
1003.4968
998.15887
995.95983
996.36208
992.50447
988.55616
987.42226
987.6279
991.02782
992.1811
994.38411
997.12205
1008.3593
1006.6819
1006.4727
1005.2834
1003.8922
1003.6345
1007.528
1013.4989
1014.4254
1015.3732
1010.5253
1012.3574
1007.63
1004.2438
1001.3816
1003.8522
1006.5193
1005.7036
1003.7022
999.19867
995.90106
994.45716
992.82736
989.64393
987.34983
986.69366
991.37704
992.12417
998.22615
997.85997
1005.5323
1004.896
1006.0359
1006.4888
1003.8893
1003.448
1007.4518
1015.0651
1016.327
1015.797
1011.4179
1012.4018
1007.5793
1004.3337
1000.5009
1002.3403
1006.853
1005.524
1003.8313
1002.172
999.76058
994.12615
991.27148
988.32357
985.21444
984.26883
988.55742
990.77785
998.05578
998.63639
1004.8727
1001.7617
1003.0964
1005.4477
1002.9259
1002.3096
1007.1552
1016.6686
1016.7493
1016.3006
1007.1388
1007.1517
1006.2683
1004.4808
999.34717
999.59617
999.52558
999.55537
999.3539
997.88714
995.52208
993.23912
990.25692
986.67208
983.30587
982.78697
986.51832
990.62699
994.0223
995.85437
998.34353
996.43845
998.49606
1004.2525
1001.5059
1000.8395
1005.853
1008.1858
1009.6401
1010.0722
1010.5371
1009.3163
1008.3774
1007.2995
1004.9244
1007.2372
1007.3733
1008.2604
1001.8933
997.13115
995.33425
995.74819
994.31617
992.17713
991.34619
992.1387
994.86338
996.57809
998.49917
1001.8786
1010.4432
1012.2955
1010.8032
1009.9641
1008.5497
1009.2606
1011.2347
1013.4252
1015.5875
1018.3362
1010.4102
1009.9403
1009.8825
1008.3912
1004.9149
1008.5755
1008.1845
1008.0858
1001.6679
996.56782
995.53026
994.29276
992.99395
991.0669
991.62866
991.77193
993.04179
993.9306
995.23152
1000.5737
1008.7811
1008.8916
1007.7988
1007.4399
1007.2864
1009.3594
1010.8499
1012.379
1013.7889
1015.3406
1010.8404
1010.9344
1012.2361
1009.5245
1004.8957
1009.2564
1008.4532
1007.2365
1001.3628
996.69838
995.75991
994.21952
993.31449
991.92118
991.85674
991.8553
991.87952
994.26827
995.54948
1000.4284
1008.7823
1009.3739
1008.4861
1008.4846
1007.5505
1009.6015
1011.8778
1014.5078
1014.2328
1015.6367
1011.3547
1011.8284
1012.2974
1008.2196
1003.85
1008.6194
1007.3999
1006.3397
1001.5913
998.73267
997.77103
993.63253
993.4668
991.63385
990.72693
990.34654
989.96108
996.46123
996.96612
1000.8527
1008.5715
1008.9641
1006.6535
1006.4239
1004.4182
1006.9635
1009.948
1014.9581
1015.2053
1016.0747
1009.49
1008.9777
1008.7219
1006.9688
1002.2462
1002.3815
1001.8074
1001.583
999.79267
996.29778
994.08823
991.20506
988.67432
986.30096
984.68349
984.00695
985.46155
989.87444
994.46974
998.66358
1002.6935
999.0997
997.92486
997.98941
1001.0514
1005.2978
1007.0113
1008.873
1012.0066
1013.5014
1013.049
1011.5589
1010.3071
1009.3303
1007.1084
1008.0678
1008.7536
1010.8056
1004.4338
999.5336
995.74758
993.23868
992.9556
994.30857
994.61484
995.6289
993.03569
993.0228
994.60488
998.33105
1002.8118
1006.5008
1011.816
1013.7648
1012.8058
1013.2752
1015.6763
1017.0591
1016.3951
1015.5702
1011.4299
1010.7102
1010.1481
1009.6604
1007.3149
1008.2969
1008.4306
1009.0994
1001.8386
996.11992
994.32124
990.40177
990.10962
992.8426
992.76991
991.81066
989.6399
989.6166
992.21792
999.048
1001.3891
1004.242
1007.5082
1010.136
1010.047
1011.4467
1013.325
1014.0881
1013.1809
1012.4084
1011.7403
1011.2491
1012.0852
1010.2132
1007.6799
1010.4337
1009.2987
1008.8448
1002.6317
996.49918
995.14673
992.49387
990.68687
992.89691
991.62338
991.88564
990.2954
989.56994
991.74588
999.92349
1001.8675
1002.5553
1007.5418
1010.4099
1011.7443
1014.5875
1013.9589
1014.1597
1013.2843
1014.4395
1012.0802
1011.8453
1012.3885
1009.1785
1006.3023
1010.2333
1009.3693
1008.6244
1003.6652
997.69902
996.7465
992.75532
991.68088
993.0051
990.65931
989.58399
991.47826
985.81278
991.47295
998.75933
997.50957
1000.4037
1007.8891
1009.971
1010.4825
1013.7044
1013.3536
1011.4501
1010.2697
1012.5974
1009.5663
1008.4624
1008.0865
1006.3966
1004.2044
1004.9574
1004.107
1004.5649
1001.6167
989.89063
989.82842
990.18425
989.06481
989.62208
984.36857
986.34771
985.36343
983.07312
981.69506
986.40189
990.64917
998.5421
1003.3763
1005.1368
1007.5324
1010.5269
1009.0717
1006.634
1006.9995
1010.091
1012.4505
1010.6225
1012.034
1012.6588
1012.2799
1012.4715
1012.0226
1010.6415
1004.1571
997.62207
993.58542
987.96348
986.94776
986.68793
986.18879
985.0897
984.67321
985.28283
988.56688
990.41902
996.80389
1001.263
1004.2388
1008.0559
1012.2534
1017.4863
1016.7416
1014.6692
1012.7437
1011.3643
1010.2002
1008.4651
1010.525
1011.1989
1011.0653
1010.9757
1010.8621
1008.5171
999.86223
994.50323
991.55173
986.70431
984.92379
984.75168
984.80027
982.19808
980.40222
981.22239
985.53191
987.64008
996.8191
1003.7955
1005.0672
1007.306
1009.9942
1014.4032
1013.9208
1012.4075
1011.0158
1010.0147
1007.7071
1007.5089
1009.9702
1011.4587
1011.5488
1011.2484
1010.389
1007.0023
1001.302
995.14636
991.53607
986.48894
981.13408
984.85433
983.9737
981.61065
982.27129
978.4714
984.39255
986.83827
998.45009
1006.0594
1008.1397
1008.1275
1010.2535
1014.4879
1014.2431
1014.6878
1011.7696
1010.2894
1005.2175
1006.2055
1010.3813
1011.4505
1011.9852
1011.5594
1010.2329
1006.3296
1002.7808
993.81975
987.05322
988.2465
986.54882
984.11272
983.29852
981.39682
982.43792
978.43768
980.69881
981.69009
997.33184
1005.374
1009.121
1009.2291
1010.7945
1014.3338
1014.449
1014.2553
1010.6043
1008.2819
1003.8391
1004.8207
1005.3906
1006.6945
1007.6623
1007.2453
1005.3634
1004.9394
1001.7926
992.15957
983.87779
983.24656
979.58623
976.2225
978.66728
975.3606
973.98115
973.52792
973.79073
978.34861
998.06604
1003.8749
1006.1756
1006.5285
1008.4534
1011.2846
1010.8815
1010.1472
1007.9589
1006.9802
1011.511
1013.5084
1012.9724
1013.9007
1014.9991
1015.6979
1013.959
1010.2448
1006.0563
999.23274
997.14691
990.28421
979.91136
976.26285
988.60344
995.70084
998.59189
1003.5803
1008.7628
1011.4161
1013.879
1016.5256
1015.1585
1013.708
1011.6784
1010.1128
1008.9461
1012.1602
1011.8965
1013.0728
1013.5266
1013.9493
1011.8168
1008.6131
1003.9406
997.34649
996.1667
987.41398
980.60566
978.15964
984.5533
995.24408
996.20285
1000.882
1008.5242
1010.1114
1012.8229
1015.0816
1014.446
1013.9023
1010.1612
1008.0653
1007.8729
1010.3279
1011.2134
1013.1157
1013.7861
1013.9493
1012.3648
1007.9445
1004.1469
999.23833
995.47351
985.93814
968.85413
973.53295
981.3768
995.65574
997.58997
1001.5757
1008.1531
1012.5407
1013.2983
1015.2519
1015.3805
1014.9189
1010.2839
1007.7204
1006.99
1011.4345
1010.9615
1013.9739
1014.4687
1014.141
1011.729
1007.12
1005.1154
1000.4584
992.87431
981.63201
975.19461
968.16217
975.7629
995.3018
1000.3393
1003.6421
1008.9996
1012.6098
1013.5668
1015.3139
1015.4243
1015.6312
1011.3911
1007.1085
1005.4408
1007.3831
1006.8329
1009.0676
1010.4313
1011.2953
1009.3969
1006.6053
1004.3729
1000.6237
988.63919
973.36564
968.54375
954.48405
965.46352
994.61231
1000.863
1003.5989
1006.0741
1008.1409
1009.2521
1010.277
1009.1271
1009.8568
1008.309
1006.671
1009.6499
1012.7043
1012.8434
1013.8931
1013.8929
1011.6285
1009.9657
1008.0444
1006.7782
998.04467
995.20523
987.94319
978.02573
975.20059
989.63047
996.86115
1002.1609
1007.7041
1012.0915
1012.0717
1016.6133
1017.0935
1015.7594
1014.1089
1012.4294
1008.9102
1008.2517
1011.2914
1012.5295
1013.4003
1013.7558
1012.0722
1010.9617
1007.8689
1006.5505
996.97123
994.68578
983.6023
977.33547
976.06174
987.68837
992.7361
996.10945
1004.7172
1009.3922
1009.2595
1014.4288
1015.3856
1014.6618
1013.8113
1010.0928
1007.4103
1007.7474
1010.8559
1012.1677
1013.743
1013.9744
1012.7628
1012.9419
1007.551
1003.0636
1000.0394
995.17954
980.63406
966.54018
972.33346
987.60205
992.06435
996.52304
1003.4974
1005.5626
1008.2289
1014.6495
1015.5751
1015.5904
1014.4115
1010.5019
1007.0176
1007.3486
1011.7478
1013.5132
1013.8319
1014.2902
1013.3779
1012.6847
1012.1213
1009.6583
1002.9321
995.14349
975.89154
969.50653
975.77333
982.0246
990.96415
997.98459
1003.6121
1004.7632
1008.2838
1014.8078
1015.8933
1015.3657
1015.7638
1010.3266
1006.3279
1005.7271
1007.713
1006.5701
1007.8428
1010.8796
1010.2369
1008.5581
1006.7091
1006.4506
1003.65
995.21985
968.14674
963.7316
965.50959
965.70196
986.36021
998.75717
1001.4008
1003.2948
1005.4634
1008.9704
1009.0683
1007.5112
1008.6325
1007.242
1005.7446
1012.2596
1010.6222
1013.0854
1014.3994
1014.3116
1010.9878
1007.8926
1005.0595
1002.0106
996.75124
987.39987
984.35077
983.20849
982.58962
980.9075
984.63174
985.77212
987.39296
990.75453
994.68156
999.47312
1003.1214
1007.0026
1009.9228
1013.9352
1016.8629
1017.0595
1015.1479
1012.9407
1012.4179
1009.9501
1009.109
1010.4833
1011.7796
1012.5097
1009.9737
1008.2097
1006.7636
1006.0737
999.48123
987.16828
982.42744
979.09852
979.1352
981.58262
984.01392
982.09
982.60566
989.96389
993.64695
999.49086
1004.7253
1006.2722
1007.9135
1010.7801
1014.4993
1013.8738
1012.4758
1011.0548
1008.8659
1006.7485
1008.5181
1011.7714
1012.0598
1012.7666
1010.5092
1009.1592
1009.3174
1007.58
1001.8613
987.65102
981.98785
975.2557
978.39554
981.28757
983.42398
982.2411
977.92879
989.3786
992.53228
1000.1135
1006.4758
1009.2356
1008.3401
1010.6357
1014.4974
1014.3055
1014.9814
1010.887
1008.1229
1006.058
1008.1263
1010.9137
1012.2454
1012.9985
1011.1032
1009.7203
1009.7219
1006.3722
1001.3207
983.94658
983.47588
982.31679
979.74311
980.77259
982.72373
981.88516
983.34038
985.50775
988.36451
999.15809
1004.9053
1009.6288
1009.2114
1011.0731
1014.1293
1014.5398
1013.7677
1010.3336
1007.5687
1004.914
1005.8985
1006.608
1008.292
1009.8082
1009.0649
1006.7118
1005.122
1003.814
999.99431
981.1612
978.3
977.33002
973.77463
976.25324
976.59273
974.08406
975.47845
975.38961
983.73747
998.89225
1002.1356
1005.7019
1005.8801
1008.3309
1010.4688
1009.9585
1008.8705
1007.2752
1006.3706
1015.1345
1014.5667
1012.6668
1011.4473
1009.6666
1010.0876
1009.9985
1010.0417
1009.4185
1000.2423
991.57156
988.53842
988.19949
990.29116
992.82485
994.39723
996.74857
994.45487
996.37689
1002.1767
1005.3755
1007.9799
1012.4498
1011.4225
1012.7077
1011.3328
1014.2232
1016.3454
1017.5317
1016.6447
1012.5595
1013.0185
1011.5041
1010.3527
1009.8142
1009.1725
1008.7126
1008.5395
1005.311
997.13426
989.78065
990.39508
986.59167
987.2253
992.88207
993.59075
992.27355
991.36309
994.74579
1001.7079
1004.823
1006.2949
1008.7099
1009.1076
1009.3743
1012.0321
1012.5486
1014.0361
1014.9109
1012.4972
1012.796
1013.9416
1012.1145
1009.2666
1010.0119
1008.844
1009.1588
1008.8994
1006.0375
1001.26
994.38125
991.32712
988.56619
987.93123
993.07819
990.78685
993.37801
989.93624
991.27381
1002.1552
1006.7375
1006.3686
1008.8884
1009.3816
1010.779
1013.0102
1014.1529
1014.6012
1014.8621
1012.9837
1013.0214
1013.8178
1008.7302
1006.6496
1008.7735
1006.1457
1005.205
1009.0841
1007.671
1006.3404
994.02378
991.10464
990.22128
988.58023
992.0743
989.7331
993.95622
991.42006
988.51375
1002.6466
1005.8895
1005.5458
1009.0257
1009.3866
1010.0999
1011.0125
1009.8295
1008.9888
1013.6698
1013.5876
1009.2591
1009.4798
1006.5165
1004.534
1005.5395
1001.7551
1000.4404
1002.3028
1003.129
1001.2366
991.40439
986.13752
987.29435
986.81239
986.94211
986.46797
986.68741
983.08703
986.06274
997.32369
1001.0695
996.92377
999.33337
1002.6784
1006.7252
1008.7215
1006.8401
1004.7283
1008.185
1010.1081
1014.9262
1012.5746
1010.6999
1008.7454
1005.747
1006.4806
1006.7822
1007.6681
1009.1161
1005.914
997.29414
992.21681
991.9426
991.57566
991.52585
992.38356
993.9723
996.1641
998.91689
1004.6542
1010.748
1011.0233
1009.199
1008.0108
1009.5701
1008.2986
1011.6443
1013.6764
1015.8736
1018.5348
1013.5509
1012.0329
1010.9021
1008.9724
1005.1943
1006.5267
1006.0944
1005.7551
1006.7426
1002.8905
993.33671
992.40048
991.2122
991.2651
991.7798
992.5655
991.97644
993.71161
996.32537
1003.9221
1008.4521
1007.8846
1006.6561
1007.101
1005.1984
1007.314
1011.0335
1012.5061
1014.0549
1015.3649
1013.7958
1013.0006
1013.5108
1009.9484
1005.1424
1007.4414
1007.8068
1007.0863
1006.8278
1002.2785
993.6353
992.72193
991.46978
991.52849
992.25878
992.79871
993.30409
993.68039
996.88612
1002.7958
1008.4161
1008.1755
1009.0435
1008.3012
1004.0299
1007.4957
1012.1887
1015.1153
1014.5377
1015.2894
1013.997
1013.8699
1013.9124
1008.5933
1003.0101
1005.0762
1006.6082
1006.9932
1006.2665
1002.1403
994.56934
992.68951
991.80685
991.74396
992.13085
992.20998
990.55517
989.80948
997.57036
1000.8244
1007.484
1008.0884
1008.9152
1009.7546
1003.6034
1006.6151
1010.9321
1014.5607
1015.1147
1015.4705
1011.727
1010.8205
1009.7146
1006.6586
1001.2533
1000.1559
1001.5043
1002.0369
1002.2923
999.53475
993.99221
988.54063
985.0964
986.37225
987.84935
987.25458
985.45379
985.1468
992.63921
997.01111
1004.0379
1003.1889
1002.3733
1001.0224
1001.9817
1005.1942
1007.5696
1010.1498
1012.1128
1013.0299
1014.1407
1012.4056
1010.7638
1007.1922
1002.3971
1003.3531
1004.1628
1005.1937
1007.5461
1005.8719
997.16678
993.15207
990.85771
989.49657
988.7312
987.33711
988.21927
989.9579
993.13926
997.03512
1005.6619
1008.9865
1006.1594
1005.8357
1009.4611
1006.6476
1010.6587
1013.4593
1015.2576
1017.0956
1013.7957
1013.0709
1012.0966
1006.4321
1001.3708
1000.6192
1002.509
1002.4566
1005.1259
1003.2122
995.66372
992.31561
990.38689
989.66395
989.03769
986.72235
987.42517
988.80958
990.39286
993.62355
1004.6863
1005.8511
1003.5406
1004.3771
1005.5925
1004.2697
1007.9568
1013.767
1014.4603
1015.4268
1014.2489
1014.7785
1013.7755
1006.8502
1000.8114
999.14861
1002.0764
1001.1537
999.40655
997.94748
994.00693
991.86442
988.71289
989.25112
989.29235
986.49914
987.22221
989.47618
993.42426
994.09381
1002.3144
1002.5376
1002.3822
1003.7037
1001.7397
1003.6837
1007.4264
1015.1178
1015.9302
1015.6461
1014.7204
1015.0989
1013.5532
1006.9029
1000.046
997.66961
1000.1909
1003.2323
1001.7315
997.7402
993.57663
989.84567
985.73887
987.36533
987.04835
984.95074
985.35405
988.42588
995.61152
995.12039
1002.4683
1000.5978
999.12555
1004.3251
1000.0507
1003.3171
1008.1357
1016.1834
1016.1017
1015.9052
1009.3971
1009.2666
1007.8074
1006.1731
999.35784
995.90409
995.82581
995.7971
994.80014
994.8982
991.73605
989.10679
984.88728
983.00056
984.09755
984.15464
984.00605
987.70802
992.03494
993.01186
994.52179
993.74172
995.77301
997.54457
997.79874
1002.6316
1006.613
1008.2911
1009.0063
1010.0055
)
;

boundaryField
{
    minX
    {
        type            zeroGradient;
    }
    maxX
    {
        type            zeroGradient;
    }
    minY
    {
        type            fixedValue;
        value           uniform 1073;
    }
    minZ
    {
        type            zeroGradient;
    }
    maxZ
    {
        type            zeroGradient;
    }
    bottomWater_to_rightSolid
    {
        type            compressible::turbulentTemperatureCoupledBaffleMixed;
        refValue        nonuniform List<scalar> 
130
(
617.86594
622.01457
626.25058
630.34314
634.1201
637.52185
640.50254
643.00964
645.08448
646.75298
647.99466
648.81757
649.22707
614.27998
619.25755
624.23136
628.92003
633.14492
636.86325
640.05924
642.74366
644.9366
646.65231
647.91941
648.76328
649.18583
606.94733
613.82223
620.38023
626.29074
631.43489
635.7935
639.41112
642.3644
644.71576
646.50521
647.79608
648.64506
649.07578
595.85386
606.4446
615.61231
623.30051
629.57678
634.65017
638.71943
641.9566
644.48207
646.37548
647.72178
648.58137
649.00236
582.60267
599.40681
611.75651
621.07685
628.25941
633.86569
638.26038
641.69093
644.32815
646.28866
647.67826
648.55693
648.98037
582.64094
599.41046
611.72547
621.05417
628.23786
633.84372
638.24088
641.67866
644.31494
646.2741
647.66547
648.54632
648.97119
595.85014
606.45009
615.6307
623.30281
629.55841
634.62626
638.69422
641.93373
644.45777
646.35143
647.70018
648.56619
648.99039
606.90495
613.81288
620.41146
626.32386
631.42386
635.75915
639.37426
642.33114
644.68119
646.47268
647.77166
648.63578
649.06853
614.1629
619.16056
624.1614
628.88225
633.12797
636.85143
640.04193
642.72169
644.91649
646.63846
647.91119
648.75378
649.1743
617.71717
621.87779
626.1252
630.23061
634.0285
637.44224
640.42252
642.95351
645.0615
646.73781
647.97981
648.80036
649.21127
)
;
        refGradient     uniform 0;
        valueFraction   uniform 0.99248593;
        value           nonuniform List<scalar> 
130
(
620.66686
624.80984
629.02787
633.10842
636.84266
640.23426
643.23587
645.70343
647.75766
649.45138
650.70123
651.52887
651.93852
617.10226
622.07698
627.04495
631.72857
635.8947
639.57628
642.74878
645.43601
647.64436
649.36009
650.63165
651.49275
651.92336
609.77358
616.58646
623.13065
629.02858
634.19327
638.55552
642.15923
645.10832
647.46452
649.2296
650.49245
651.33778
651.78849
598.69186
609.20495
618.33785
626.11646
632.38928
637.44186
641.4832
644.71051
647.23828
649.11444
650.4451
651.28178
651.69225
585.39702
602.15734
614.63329
623.93058
631.07974
636.6625
641.03968
644.45282
647.07798
649.01513
650.39975
651.26019
651.66812
585.51781
602.16284
614.54038
623.89225
631.04189
636.61986
641.00028
644.43854
647.05583
648.98855
650.37788
651.24165
651.65206
598.70274
609.22236
618.39656
626.12493
632.35799
637.41458
641.45333
644.68689
647.20805
649.08364
650.41408
651.26159
651.6758
609.73166
616.6099
623.24358
629.13966
634.17028
638.49112
642.1042
645.06925
647.41665
649.18054
650.45389
651.33745
651.78144
616.95055
621.96691
626.96306
631.70125
635.9087
639.59805
642.75442
645.42122
647.62366
649.35056
650.6331
651.48411
651.90837
620.49734
624.6592
628.88211
632.96793
636.7315
640.13485
643.10612
645.61992
647.74831
649.44197
650.68724
651.507
651.92232
)
;
        Tnbr            T;
        thicknessLayers List<scalar> 0();
        kappaLayers     List<scalar> 0();
        kappaMethod     fluidThermo;
        kappa           none;
        alphaAni        none;
        alpha           none;
        field           T;
    }
    bottomWater_to_leftSolid
    {
        type            compressible::turbulentTemperatureCoupledBaffleMixed;
        refValue        nonuniform List<scalar> 
130
(
654.62999
654.58967
654.50158
654.36518
654.18883
654.01198
653.82002
653.60713
653.37345
653.12688
652.89571
652.71151
652.60254
654.65994
654.62092
654.53945
654.40912
654.23622
654.05455
653.84787
653.61165
653.34262
653.05646
652.80022
652.6004
652.48601
654.66366
654.62984
654.56052
654.44716
654.29372
654.11321
653.88964
653.62358
653.30289
652.94012
652.64166
652.42453
652.30313
654.63348
654.61575
654.56818
654.48758
654.36303
654.18303
653.9412
653.64553
653.28477
652.8715
652.48426
652.19769
652.03426
654.65288
654.64276
654.60015
654.53248
654.41987
654.24559
653.99763
653.68272
653.30875
652.88081
652.42172
652.01801
651.80006
654.65915
654.64953
654.6056
654.53404
654.42199
654.2401
653.98894
653.67695
653.31144
652.88616
652.41735
651.97018
651.74111
654.64761
654.6303
654.58164
654.49925
654.37044
654.17801
653.92605
653.62698
653.27904
652.87546
652.43413
652.10896
651.93996
654.67238
654.63706
654.55266
654.43057
654.27275
654.06223
653.82499
653.56863
653.27584
652.94012
652.58869
652.32356
652.19253
654.69398
654.64649
654.54758
654.39501
654.19733
653.9872
653.7709
653.53601
653.2761
652.98889
652.70173
652.46991
652.34063
654.67837
654.62978
654.52467
654.36407
654.14777
653.92272
653.70295
653.47493
653.23146
652.98395
652.7393
652.53844
652.41535
)
;
        refGradient     uniform 0;
        valueFraction   uniform 0.99248593;
        value           nonuniform List<scalar> 
130
(
657.27882
657.23891
657.14483
656.996
656.78243
656.6088
656.41775
656.20667
655.97327
655.71751
655.47032
655.27034
655.13977
657.32622
657.28364
657.20085
657.05833
656.85122
656.67197
656.46252
656.22636
655.94592
655.63565
655.36476
655.14476
655.01217
657.33044
657.28859
657.21699
657.09178
656.92301
656.74952
656.52124
656.26056
655.92023
655.47199
655.17531
654.96251
654.83361
657.2575
657.24726
657.20432
657.13413
657.01782
656.83606
656.58184
656.28528
655.90358
655.42099
654.97438
654.68525
654.49558
657.28882
657.29336
657.24687
657.19649
657.09499
656.92853
656.66821
656.33473
655.94678
655.49389
654.9483
654.43266
654.18014
657.2972
657.30258
657.2504
657.18887
657.10049
656.91515
656.65326
656.32974
655.965
655.52186
654.99317
654.34599
654.08546
657.27958
657.26981
657.22684
657.15772
657.04127
656.8447
656.57695
656.26817
655.913
655.48366
654.9042
654.56003
654.38502
657.33677
657.30339
657.19734
657.06131
656.91225
656.67483
656.42946
656.18905
655.90471
655.5572
655.13452
654.83189
654.71054
657.37679
657.32283
657.21635
657.04195
656.80515
656.58837
656.38383
656.1547
655.89866
655.59284
655.26623
654.99518
654.84103
657.34378
657.29458
657.17929
657.00762
656.74175
656.49244
656.27373
656.04721
655.79802
655.55314
655.2866
655.06747
654.91356
)
;
        Tnbr            T;
        thicknessLayers List<scalar> 0();
        kappaLayers     List<scalar> 0();
        kappaMethod     fluidThermo;
        kappa           none;
        alphaAni        none;
        alpha           none;
        field           T;
    }
    bottomWater_to_heater
    {
        type            compressible::turbulentTemperatureCoupledBaffleMixed;
        refValue        nonuniform List<scalar> 
92
(
607.72808
608.83346
611.00301
614.09028
601.97746
603.31002
605.93225
609.6853
589.70156
591.46762
595.06458
600.3678
338.59448
335.59158
335.6326
338.68299
400.19834
396.34629
396.52196
400.61682
449.81892
446.30097
446.78629
451.01692
489.25064
486.44761
487.63725
492.21376
569.22159
519.03125
571.49615
517.66751
576.50029
520.46723
584.6876
526.57752
338.59448
338.68299
400.19834
400.61682
449.81892
451.01692
489.25064
492.21376
519.03125
526.57752
338.56687
338.56687
335.57456
335.62713
338.67918
338.67918
400.14517
400.14517
396.32039
396.51569
400.60889
400.60889
449.76037
449.76037
446.27394
446.78345
451.01939
451.01939
489.18376
489.18376
486.42222
487.64566
492.26228
492.26228
518.97861
518.97861
517.64755
520.47993
526.6427
526.6427
569.15594
571.44223
576.46802
584.66654
589.62149
591.40981
595.00867
600.31713
601.88748
603.23366
605.85212
609.58408
607.59101
608.71321
610.87961
613.94572
)
;
        refGradient     uniform 0;
        valueFraction   nonuniform List<scalar> 
92
(
0.99248593
0.99248593
0.99248593
0.99248593
0.99248593
0.99248593
0.99248593
0.99248593
0.99248593
0.99248593
0.99248593
0.99248593
0.99248593
0.99248593
0.99248593
0.99248593
0.99248593
0.99248593
0.99248593
0.99248593
0.99248593
0.99248593
0.99248593
0.99248593
0.99248593
0.99248593
0.99248593
0.99248593
0.99248593
0.99248593
0.99248593
0.99248593
0.99248593
0.99248593
0.99248593
0.99248593
0.99248593
0.99248593
0.99248593
0.99248593
0.99248593
0.99248593
0.99248593
0.99248593
0.99248593
0.99248593
0.99248593
0.99248593
0.99248593
0.99248593
0.99248593
0.99248593
0.99248593
0.99248593
0.99248593
0.99248593
0.99248593
0.99248593
0.99248593
0.99248593
0.99248593
0.99248593
0.99248593
0.99248593
0.99248593
0.99248593
0.99248593
0.99248593
0.99248593
0.99248593
0.99248593
0.99248593
0.99248593
0.99248593
0.99248593
0.99248593
0.99248593
0.99248593
0.99248593
0.99248593
0.99248593
0.99248593
0.99248593
0.99248593
0.99248593
0.99248593
0.99248593
0.99248593
0.99248593
0.99248593
0.99248593
0.99248593
)
;
        value           nonuniform List<scalar> 
92
(
610.57553
611.64731
613.79671
616.88875
604.86532
606.17575
608.77318
612.50896
592.70663
594.41997
598.00477
603.26075
343.4644
340.48033
340.51281
343.53713
404.59077
400.76807
400.92287
404.97343
453.83929
450.34117
450.80512
455.00886
492.96916
490.18106
491.34751
495.89744
572.27993
522.46673
574.55572
521.13155
579.49747
523.88545
587.61289
529.93945
343.41353
343.47398
404.5597
404.95655
453.71903
454.94314
492.90217
495.79007
522.40897
529.79284
343.37193
343.40621
340.42379
340.50393
343.46229
343.54157
404.4823
404.49584
400.71821
400.93032
404.93291
404.97825
453.64347
453.73268
450.29418
450.81591
454.93663
455.01106
492.793
492.86994
490.1369
491.36581
495.89543
495.94132
522.32055
522.3961
521.09363
523.9073
529.94034
530.00485
572.19639
574.48409
579.47468
587.59269
592.60609
594.38197
597.95019
603.22041
604.77659
606.12376
608.71807
612.40844
610.41193
611.53392
613.68447
616.72644
)
;
        Tnbr            T;
        thicknessLayers List<scalar> 0();
        kappaLayers     List<scalar> 0();
        kappaMethod     fluidThermo;
        kappa           none;
        alphaAni        none;
        alpha           none;
        field           T;
    }
}


// ************************************************************************* //
