/*--------------------------------*- C++ -*----------------------------------*\
| =========                 |                                                 |
| \\      /  F ield         | OpenFOAM: The Open Source CFD Toolbox           |
|  \\    /   O peration     | Version:  v2012                                 |
|   \\  /    A nd           | Website:  www.openfoam.com                      |
|    \\/     M anipulation  |                                                 |
\*---------------------------------------------------------------------------*/
FoamFile
{
    version     2.0;
    format      ascii;
    class       volScalarField;
    location    "420/topAir";
    object      T;
}
// * * * * * * * * * * * * * * * * * * * * * * * * * * * * * * * * * * * * * //

dimensions      [0 0 0 1 0 0 0];


internalField   nonuniform List<scalar> 
1200
(
323.92188
346.05525
366.08538
384.57899
402.01088
418.66983
434.67685
449.92917
464.08766
477.11613
488.89432
499.19804
507.544
508.14772
506.32096
502.08905
496.12382
489.43637
482.94327
477.24696
472.6406
469.21838
466.97207
465.84829
465.77605
466.70116
468.64699
471.82065
476.79849
484.34416
300.51534
301.48774
302.81929
304.45189
306.34457
308.46616
310.78781
313.41655
317.04264
321.89658
328.74325
338.20347
350.48298
363.9715
377.29887
389.20917
399.07618
406.66568
411.93908
415.06547
416.50076
416.90382
416.91989
417.06136
417.70664
419.18695
421.93334
426.69338
434.90461
447.92158
300.01146
300.04384
300.10396
300.19774
300.33025
300.50589
300.7282
301.00302
301.35157
301.79799
302.40746
304.18332
309.10814
318.08774
330.25643
344.3758
358.70937
372.0384
383.56466
392.83164
399.76452
404.65002
407.9841
410.3064
412.10358
413.79674
415.79483
418.63407
423.31183
431.32622
300.00028
300.00135
300.00393
300.009
300.01778
300.03178
300.0528
300.08304
300.12575
300.18588
300.27507
300.46348
301.06929
304.38081
313.49778
326.25682
339.62751
352.70787
364.88347
375.60837
384.53834
391.62658
397.08164
401.24132
404.4672
407.09503
409.44487
411.89043
415.06025
420.00728
323.91856
345.81451
365.37795
383.17663
399.65035
415.0304
429.3854
442.65427
454.64685
465.04104
473.37797
479.09522
481.47246
474.17951
464.07379
452.87009
442.73204
434.9655
429.72782
426.50019
424.6503
423.78069
423.72647
424.44849
425.92289
428.14141
431.2062
435.55202
442.36124
452.38718
300.51469
301.46896
302.75002
304.28913
306.03411
307.94114
309.96551
312.05512
314.14605
316.15411
317.96567
319.43315
320.3782
320.55121
320.17562
319.94833
320.60458
322.31407
324.76756
327.58983
330.59793
333.8069
337.27714
341.0643
345.20797
349.73934
354.67614
359.97256
365.70178
375.64606
300.01142
300.04294
300.09994
300.18652
300.30553
300.45877
300.64671
300.86816
301.11988
301.39506
301.68171
301.97989
302.28597
302.62221
303.60503
306.13703
311.01775
317.7985
325.20999
332.10421
338.1718
344.17308
350.19916
356.26548
362.27076
368.42576
374.89698
381.72565
389.05127
397.1286
300.00028
300.00131
300.00372
300.00829
300.01595
300.02773
300.04477
300.06825
300.09944
300.13971
300.19118
300.26271
300.41009
301.07871
304.13835
311.44106
321.56198
334.21376
347.31721
359.46548
369.80461
377.86542
384.3792
389.82235
394.44001
398.20275
401.39298
404.285
407.23915
410.5411
323.9217
345.86298
365.48755
383.3614
399.93357
415.44686
430.00506
443.64166
456.29458
467.78732
477.77042
485.66825
490.41563
484.0761
474.30795
463.30088
452.88555
443.60095
435.48031
428.52832
422.80707
418.46028
415.65445
414.44765
414.72738
416.24369
418.78666
422.48227
428.59476
440.981
300.51485
301.4725
302.75964
304.30659
306.0617
307.98337
310.03269
312.16814
314.33757
316.46568
318.43915
320.0761
321.09785
321.14505
320.71611
320.76947
321.51968
322.76768
324.48576
326.70916
329.52679
333.08354
337.48325
342.68897
348.53432
354.89554
361.8519
369.30713
377.33963
387.58089
300.01142
300.04309
300.10041
300.18742
300.30685
300.46042
300.64869
300.87078
301.1237
301.40071
301.68766
301.95751
302.17345
302.50776
304.4933
308.85665
313.60656
317.55258
321.53016
325.98426
331.3361
337.99798
345.94341
354.59123
363.12362
371.00126
378.53816
385.72224
392.70678
401.02807
300.00028
300.00131
300.00374
300.00833
300.01599
300.02773
300.04461
300.06774
300.09825
300.1372
300.18564
300.24751
300.38654
301.56108
309.48465
324.08628
334.31558
335.50932
342.50648
352.25028
361.71453
369.75383
376.5097
382.26361
387.24699
391.53776
395.31859
398.80092
404.33148
414.05625
323.92783
345.88865
365.55353
383.49424
400.17721
415.87847
430.75391
444.89458
458.33561
471.03369
482.80915
493.19797
501.10042
497.97431
494.63411
493.35286
494.05185
495.47694
496.45006
496.19907
494.47283
491.60292
488.19755
484.70255
481.30295
478.24945
476.76342
479.646
487.96835
498.3776
300.51503
301.47413
302.76553
304.32092
306.09098
308.03849
310.13197
312.34108
314.62981
316.94132
319.16995
321.10799
322.41318
322.90839
323.79604
325.27015
327.03623
328.88724
330.80762
332.91593
335.49408
338.83346
343.0915
348.22375
354.08109
360.70458
368.21189
376.29855
390.15197
419.85153
300.01143
300.04316
300.10072
300.18831
300.30889
300.46455
300.65652
300.88495
301.14832
301.44122
301.74934
302.03871
302.29287
303.39513
308.11529
312.45203
315.51011
317.92699
320.86109
325.22042
331.57958
340.13089
350.4225
361.08124
370.70583
379.19565
387.12325
393.91515
401.55186
415.47777
300.00028
300.00131
300.00375
300.00838
300.01613
300.02804
300.04525
300.06899
300.1006
300.1415
300.19369
300.27094
300.63518
305.34072
328.52244
348.53352
350.75107
350.6278
350.43349
354.96777
361.35281
367.79864
374.41204
379.68057
384.46024
389.20899
396.6087
405.6592
416.53058
429.62851
323.92943
345.89587
365.57056
383.52489
400.22672
415.95394
430.86346
445.04291
458.5164
471.20947
482.85285
492.78856
499.8532
495.82315
493.95006
495.1185
497.51036
500.99473
505.07691
509.37286
513.53209
517.25042
520.30767
522.57784
524.04389
524.86822
525.58999
527.27922
531.32444
539.29804
300.51507
301.47472
302.7677
304.32605
306.10083
308.05543
310.15903
312.38125
314.68356
317.00032
319.19606
320.99881
322.07777
323.14427
324.78551
326.76638
330.19075
335.18141
341.05385
347.31405
353.3731
359.21686
365.81098
373.83166
383.39341
394.63848
407.79519
423.56816
443.78823
471.75287
300.01143
300.04319
300.10086
300.18869
300.30975
300.46625
300.65955
300.88996
301.15585
301.45085
301.7558
302.02829
302.41846
306.24973
310.34007
312.92808
314.50835
316.304
318.55524
321.75916
327.40257
336.49046
348.59098
360.91492
370.41596
377.62354
385.25665
396.61187
414.01718
440.04558
300.00028
300.00132
300.00376
300.00841
300.0162
300.02819
300.04557
300.06963
300.10182
300.14384
300.19932
300.31452
301.49419
321.77668
352.12643
357.86147
359.95055
361.92703
364.84672
367.69298
371.03117
375.07614
379.36308
383.50443
387.52149
391.63444
396.16983
403.23896
418.27614
437.65874
323.93065
345.898
365.57285
383.52564
400.22496
415.94868
430.85639
445.04208
458.54581
471.3303
483.2151
493.70889
501.63667
497.02878
493.30668
492.57876
494.69132
498.60957
503.12751
507.90579
512.63639
517.00095
520.68431
523.43269
525.141
526.00047
526.64411
528.20638
532.286
540.81111
300.5151
301.47477
302.7677
304.32585
306.10018
308.05411
310.15721
312.38043
314.68927
317.02885
319.29131
321.25668
322.56736
323.12099
324.29995
325.9834
327.93448
330.66339
334.45281
339.30797
345.92977
355.36475
367.78445
382.62125
399.08547
416.26945
433.68015
451.51621
470.72738
494.05995
300.01143
300.04319
300.10085
300.18866
300.30967
300.46605
300.65916
300.88935
301.15531
301.45187
301.76408
302.05576
302.31732
303.54776
308.40426
311.92706
314.0749
315.5412
317.34549
320.26706
325.18617
332.38132
341.48883
351.5575
362.26779
375.50686
391.3677
410.17302
432.94244
461.99794
300.00028
300.00132
300.00376
300.00841
300.01619
300.02817
300.0455
300.06945
300.10142
300.14291
300.1963
300.27909
300.68944
305.5928
337.43632
351.58654
354.80164
356.79101
358.68384
361.31901
365.94125
371.39467
376.80617
381.75205
386.06533
388.98837
394.58311
407.15084
426.58448
451.72508
323.93336
345.8987
365.56662
383.5082
400.18944
415.88694
430.75854
444.8997
458.35798
471.12276
483.08614
493.92936
502.73917
500.66858
497.44611
495.47513
495.43407
496.5888
497.8197
498.3773
497.81712
495.95556
492.82571
488.61791
483.82928
479.52354
477.44513
479.6681
486.66343
497.31385
300.51515
301.47441
302.76581
304.3209
306.09021
308.03652
310.12864
312.33703
314.6286
316.9559
319.23413
321.29757
322.84631
323.50586
324.05806
325.14729
326.63615
328.28215
330.00823
331.89421
334.14634
337.03546
340.73683
345.27521
350.68853
357.08858
364.5143
373.0017
388.84126
420.31477
300.01143
300.04316
300.10072
300.18825
300.3087
300.4641
300.65562
300.88339
301.14602
301.43909
301.75106
302.05466
302.31155
302.78903
305.56839
309.852
313.1936
315.70328
318.32939
321.66913
326.24601
332.4989
340.49797
350.09479
361.4474
374.07813
385.85863
395.63755
406.55245
424.43772
300.00028
300.00131
300.00375
300.00838
300.01611
300.02797
300.04509
300.06864
300.09987
300.14008
300.19083
300.25908
300.44627
302.12953
314.95075
333.38024
344.28779
344.29583
343.77127
350.17743
358.79408
367.17806
374.57635
381.3054
388.52376
395.99366
403.67085
411.11945
422.7386
435.88633
323.93644
345.89035
365.52546
383.40744
399.98324
415.49466
430.05715
443.69854
456.36341
467.89807
478.02034
486.27172
491.77398
486.68729
478.18572
467.55258
456.5916
446.34444
437.33142
429.72341
423.44097
418.37024
414.52184
412.02054
410.979
411.41071
413.27078
416.59654
422.26773
432.51915
300.51517
301.47333
302.7609
304.30796
306.06255
307.98289
310.03042
312.16454
314.33532
316.47719
318.49127
320.22499
321.44262
321.76746
321.38588
321.03626
321.21273
321.94932
323.26796
325.1411
327.53108
330.50801
334.2458
338.9343
344.69414
351.58331
359.61407
368.59793
378.5639
390.6418
300.01143
300.04311
300.10044
300.18739
300.30667
300.45989
300.64752
300.8687
301.12061
301.39706
301.68614
301.96537
302.19973
302.42883
303.4466
306.26443
310.17282
314.02788
318.11132
322.48237
327.15807
332.58027
339.27292
347.54606
357.23077
367.64927
377.9026
387.32377
397.29083
409.78942
300.00028
300.00131
300.00374
300.00832
300.01596
300.02764
300.04438
300.06726
300.09731
300.13546
300.18263
300.24123
300.34113
300.87081
304.84779
314.3102
323.73864
328.25934
336.55495
347.92935
359.18879
368.56077
376.19663
382.58337
388.16654
393.18936
397.58165
401.65625
409.43514
424.92056
323.94178
345.85857
365.44003
383.25425
399.7423
415.13412
429.4871
442.75018
454.73686
465.1384
473.5277
479.41282
482.17972
475.568
466.30849
455.70061
445.67037
437.68011
432.15641
428.73693
426.7797
425.78082
425.43328
425.60583
426.29473
427.58946
429.71215
433.10397
438.79694
448.5381
300.5152
301.47034
302.75225
304.29184
306.03665
307.94249
309.96396
312.0497
314.13859
316.15038
317.97939
319.4937
320.53811
320.86988
320.6178
320.3128
320.68807
322.05914
324.22655
326.82137
329.6064
332.55867
335.72877
339.2279
343.20438
347.79297
353.05806
358.96942
365.66707
375.14024
300.01143
300.04297
300.09999
300.18652
300.30534
300.4581
300.64511
300.86505
301.11466
301.38751
301.67257
301.97537
302.29629
302.62596
303.40166
305.39357
309.62523
315.98524
323.38526
330.66468
337.20981
343.88051
350.57414
357.12557
363.3739
369.49693
376.12949
383.3234
391.06103
399.44893
300.00028
300.00131
300.00372
300.00828
300.01591
300.02761
300.04446
300.06758
300.09812
300.13733
300.1871
300.25583
300.3928
300.97698
303.38143
309.41575
319.28418
331.76213
344.92267
357.46328
368.42485
376.8389
383.60579
389.24507
394.17154
398.56267
402.15485
405.31523
408.46666
412.38324
323.94843
346.10445
366.15264
384.66013
402.10136
418.76372
434.75728
449.95441
464.04841
477.00999
488.73071
499.0084
507.39989
508.1459
506.60935
502.73823
497.07837
490.58287
484.19136
478.5515
473.97539
470.5402
468.19299
466.83851
466.39785
466.84948
468.27576
470.92549
475.37846
482.54089
300.51592
301.48927
302.8217
304.45471
306.34686
308.46639
310.7848
313.45718
317.15124
322.10149
329.10755
338.61684
350.89236
364.32323
377.55437
389.29034
398.90206
406.27145
411.49604
414.76898
416.46965
417.14237
417.33409
417.51758
418.09939
419.48057
422.14521
426.8121
434.79431
447.15898
300.01147
300.04388
300.10402
300.19773
300.33002
300.5051
300.72638
301.00067
301.34955
301.79773
302.41708
304.40034
309.56934
318.57981
330.69481
344.63304
358.74065
371.8089
383.15112
392.3957
399.4678
404.58622
408.15981
410.66397
412.564
414.29627
416.29844
419.1057
423.64407
431.2074
300.00028
300.00135
300.00393
300.00898
300.01773
300.03164
300.05243
300.08226
300.12425
300.18313
300.27013
300.45622
301.02985
304.29809
312.96775
325.4348
338.7608
351.7611
363.86316
374.63441
383.76663
391.15733
396.93608
401.38268
404.83121
407.61865
410.07645
412.58559
415.74734
420.48675
)
;

boundaryField
{
    maxY
    {
        type            zeroGradient;
    }
    minX
    {
        type            fixedValue;
        value           uniform 300;
    }
    maxX
    {
        type            inletOutlet;
        inletValue      uniform 300;
        value           nonuniform List<scalar> 
40
(
484.36857
447.96854
431.35874
420.02178
452.4403
375.6395
397.11989
410.54172
441.04023
387.46317
400.83636
413.75571
498.29652
419.70287
415.28645
429.34704
539.18124
471.35013
439.85292
437.52902
540.93387
494.65687
462.70615
451.7175
497.45354
420.68925
424.68914
435.49401
432.60009
390.69318
409.84095
424.84491
448.61595
375.23334
399.51542
412.37225
482.61744
447.26535
431.28732
420.54369
)
;
    }
    minZ
    {
        type            zeroGradient;
    }
    maxZ
    {
        type            zeroGradient;
    }
    topAir_to_rightSolid
    {
        type            compressible::turbulentTemperatureCoupledBaffleMixed;
        refValue        nonuniform List<scalar> 
130
(
751.74987
759.79
768.18376
776.49221
784.38984
791.65917
798.1554
803.79688
808.53825
812.34327
815.19822
817.1012
818.0529
745.87961
755.24684
764.81205
774.06003
782.66911
790.46126
797.32844
803.22433
808.13868
812.0663
815.00387
816.95855
817.93445
734.07328
746.49897
758.58179
769.72666
779.70068
788.451
795.97009
802.30623
807.51371
811.64068
814.70897
816.7429
817.75662
716.38036
734.60201
750.77883
764.63315
776.37234
786.2621
794.5323
801.36352
806.89887
811.24234
814.45157
816.57329
817.63068
695.4749
723.27001
744.26864
760.72461
773.94047
784.70839
793.52871
800.71683
806.48577
810.97366
814.27477
816.4548
817.53867
695.2212
723.0137
743.9911
760.45787
773.70014
784.49837
793.35303
800.57192
806.37276
810.88671
814.20618
816.39494
817.48489
715.53301
733.80767
749.98446
763.89208
775.71185
785.68001
794.03885
800.96917
806.58722
810.99013
814.24564
816.39961
817.47393
732.72449
745.21484
757.34627
768.58301
778.67434
787.53904
795.18362
801.65102
806.9878
811.23011
814.38404
816.47614
817.52073
744.26433
753.67067
763.28134
772.62262
781.37468
789.31499
796.33399
802.37969
807.44678
811.53287
814.584
816.61208
817.6243
749.98795
758.06582
766.50766
774.91111
782.97153
790.40387
797.06161
802.85941
807.7573
811.74174
814.72927
816.71889
817.71194
)
;
        refGradient     uniform 0;
        valueFraction   uniform 0.99967867;
        value           nonuniform List<scalar> 
130
(
751.66558
759.70104
768.09028
776.39458
784.28857
791.55484
798.04862
803.68827
808.42841
812.23283
815.08789
816.99186
817.94568
745.77971
755.14225
764.70334
773.94776
782.5538
790.34343
797.20863
803.10311
808.01659
811.94394
814.88196
816.8382
817.81701
733.97994
746.39902
758.47572
769.61517
779.5846
788.33121
795.84749
802.18169
807.38799
811.51445
814.58294
816.61819
817.63557
716.30935
734.52545
750.69699
764.5463
776.28079
786.16627
794.4327
801.26063
806.79322
811.13482
814.34395
816.46768
817.52807
695.4124
723.19989
744.19314
760.64515
773.85796
784.6234
793.44161
800.62789
806.39524
810.88192
814.18251
816.36314
817.44923
695.15804
722.94305
743.91525
760.37826
773.61768
784.41363
793.26632
800.48345
806.2827
810.7954
814.11431
816.30368
817.39603
715.46269
733.73188
749.90366
763.80664
775.62202
785.58598
793.94078
800.86733
806.48219
810.88302
814.1382
816.2937
817.3711
732.63248
745.11591
757.24101
768.47212
778.55857
787.41918
795.06051
801.5255
806.8607
811.10224
814.25624
816.3495
817.39705
744.16581
753.56735
763.17384
772.51149
781.26042
789.19806
796.21487
802.25885
807.32473
811.41019
814.46144
816.4907
817.50572
749.90459
757.97782
766.41513
774.81442
782.87114
790.30034
796.9555
802.75131
807.64776
811.63138
814.61882
816.60923
817.60427
)
;
        Tnbr            T;
        thicknessLayers List<scalar> 0();
        kappaLayers     List<scalar> 0();
        kappaMethod     fluidThermo;
        kappa           none;
        alphaAni        none;
        alpha           none;
        field           T;
    }
    topAir_to_heater
    {
        type            compressible::turbulentTemperatureCoupledBaffleMixed;
        refValue        nonuniform List<scalar> 
40
(
732.48939
734.594
738.7105
744.56344
723.13223
725.6031
730.44712
737.37912
703.40881
706.60271
712.99274
722.3797
671.23968
675.2322
683.78716
697.57773
624.29384
627.90957
637.36442
656.43255
624.04703
627.6584
637.11368
656.18577
670.37254
674.31652
682.86314
696.67752
702.07413
705.19101
711.5617
720.97846
721.4953
723.93319
728.774
735.72176
730.70216
732.82041
736.93031
742.78032
)
;
        refGradient     uniform 0;
        valueFraction   uniform 0.99967867;
        value           nonuniform List<scalar> 
40
(
732.4173
734.52066
738.63446
744.48362
723.05224
725.51907
730.35794
737.28445
703.33834
706.52807
712.91251
722.2931
671.18401
675.17417
683.72596
697.51231
624.25256
627.86652
637.3187
656.38147
624.00621
627.61523
637.06724
656.13388
670.31801
674.25968
682.80293
696.61287
702.00491
705.11806
711.48329
720.89351
721.41627
723.8504
728.68625
735.62855
730.63064
732.74772
736.85506
742.70137
)
;
        Tnbr            T;
        thicknessLayers List<scalar> 0();
        kappaLayers     List<scalar> 0();
        kappaMethod     fluidThermo;
        kappa           none;
        alphaAni        none;
        alpha           none;
        field           T;
    }
    topAir_to_leftSolid
    {
        type            compressible::turbulentTemperatureCoupledBaffleMixed;
        refValue        nonuniform List<scalar> 
130
(
887.98818
887.9735
887.92976
887.84876
887.72509
887.55865
887.34885
887.11619
886.89798
886.68647
886.50611
886.36836
886.28222
888.05193
888.01859
887.94255
887.8356
887.69464
887.5183
887.31041
887.07869
886.85404
886.63859
886.44672
886.29124
886.18747
888.1959
888.14109
888.02317
887.86203
887.69084
887.49977
887.28195
887.038
886.79167
886.55545
886.33623
886.14734
886.009
888.34846
888.27115
888.12977
887.92787
887.7083
887.48791
887.24532
886.97717
886.70158
886.42827
886.16914
885.93925
885.75685
888.40393
888.31946
888.15978
887.93615
887.70056
887.46228
887.20388
886.92428
886.62186
886.30422
886.00602
885.75139
885.58303
888.43461
888.35674
888.19792
887.95478
887.71315
887.46544
887.20208
886.91409
886.59551
886.22859
885.89512
885.61319
885.4463
888.48056
888.41409
888.27488
888.05496
887.80529
887.53856
887.2614
886.96
886.62587
886.25101
885.9115
885.64044
885.48026
888.55197
888.49565
888.38114
888.20555
887.97135
887.68555
887.40136
887.10607
886.7855
886.44107
886.12125
885.86705
885.71796
888.60979
888.5577
888.45328
888.29551
888.08544
887.82692
887.52726
887.2106
886.89251
886.56892
886.26507
886.01208
885.8715
888.62855
888.58001
888.481
888.33032
888.13
887.88331
887.59379
887.26903
886.93996
886.62721
886.34084
886.10665
885.96998
)
;
        refGradient     uniform 0;
        valueFraction   uniform 0.99967867;
        value           nonuniform List<scalar> 
130
(
887.80693
887.79937
887.76208
887.68704
887.56902
887.40798
887.2034
886.97571
886.76212
886.55487
886.37835
886.24396
886.16052
887.87066
887.84436
887.77464
887.67344
887.53782
887.36648
887.16327
886.93589
886.71516
886.50312
886.31399
886.1604
886.05743
888.01459
887.96684
887.85527
887.69992
887.53411
887.34808
887.13501
886.89553
886.65334
886.42089
886.20495
886.01866
885.88189
888.16709
888.09687
887.96185
887.76578
887.55165
887.33637
887.09864
886.83512
886.56394
886.2948
886.03953
885.81305
885.63325
888.22255
888.14516
887.99186
887.77407
887.54392
887.31078
887.05724
886.78229
886.48429
886.17084
885.87648
885.62512
885.4591
888.25322
888.18244
888.02999
887.79269
887.5565
887.31393
887.05544
886.7721
886.45796
886.09527
885.76572
885.48726
885.32297
888.29916
888.23977
888.10692
887.89284
887.64861
887.38701
887.11472
886.81795
886.48825
886.11762
885.78206
885.51458
885.35727
888.37055
888.32129
888.21313
888.04334
887.81454
887.53383
887.25441
886.9636
886.64719
886.30658
885.99012
885.73865
885.59137
888.42835
888.38332
888.28522
888.13323
887.92852
887.67504
887.38008
887.06778
886.75365
886.4335
886.13245
885.88143
885.74179
888.4471
888.40569
888.31316
888.16847
887.97383
887.73257
887.44828
887.12851
886.80408
886.49559
886.21307
885.98226
885.84833
)
;
        Tnbr            T;
        thicknessLayers List<scalar> 0();
        kappaLayers     List<scalar> 0();
        kappaMethod     fluidThermo;
        kappa           none;
        alphaAni        none;
        alpha           none;
        field           T;
    }
}


// ************************************************************************* //
