/*--------------------------------*- C++ -*----------------------------------*\
| =========                 |                                                 |
| \\      /  F ield         | OpenFOAM: The Open Source CFD Toolbox           |
|  \\    /   O peration     | Version:  v2012                                 |
|   \\  /    A nd           | Website:  www.openfoam.com                      |
|    \\/     M anipulation  |                                                 |
\*---------------------------------------------------------------------------*/
FoamFile
{
    version     2.0;
    format      ascii;
    class       volVectorField;
    location    "210/topAir";
    object      U;
}
// * * * * * * * * * * * * * * * * * * * * * * * * * * * * * * * * * * * * * //

dimensions      [0 1 -1 0 0 0 0];


internalField   nonuniform List<vector> 
1200
(
(0.1030086 -0.0020106311 0.00086087302)
(0.11375424 -0.0021862408 0.0012948113)
(0.12302425 -0.0021157776 0.0013933691)
(0.1301793 -0.0017477629 0.0012997169)
(0.13637562 -0.0011280124 0.0010364444)
(0.14214538 -0.00039460328 0.00057227472)
(0.14762222 0.00037341645 -0.00012732197)
(0.15304272 0.0011207359 -0.0011256314)
(0.15856654 0.0018731401 -0.0026033083)
(0.16441066 0.0027674693 -0.0048020724)
(0.17076351 0.0040089771 -0.0080183761)
(0.17752815 0.0059213394 -0.012599377)
(0.18383864 0.0088917041 -0.018842702)
(0.18858557 0.012780411 -0.026839755)
(0.19135245 0.017563591 -0.036297983)
(0.19224731 0.022583567 -0.046531513)
(0.19167404 0.02709158 -0.056605639)
(0.19023676 0.03065637 -0.065584282)
(0.18841488 0.033214001 -0.072829608)
(0.18646509 0.034796019 -0.078154068)
(0.18464829 0.03544701 -0.0817154)
(0.18333989 0.035292918 -0.083799824)
(0.18288521 0.034532461 -0.084673832)
(0.18343314 0.033379913 -0.084522641)
(0.18486023 0.032049401 -0.083429688)
(0.18670985 0.030792866 -0.081354131)
(0.18802016 0.030022551 -0.07806497)
(0.18688685 0.03060362 -0.073020855)
(0.17990469 0.03452782 -0.065247823)
(0.13995517 0.047903187 -0.052492012)
(0.098724112 -0.0032641055 0.00084614421)
(0.098447311 -0.0040952063 0.0012836099)
(0.098586617 -0.0042672725 0.0014765132)
(0.098999922 -0.0039664834 0.0015794889)
(0.099826243 -0.0033475447 0.0016251819)
(0.1011135 -0.0026128976 0.0016057873)
(0.10282693 -0.0018896782 0.0015073964)
(0.10497608 -0.0012932889 0.0013014577)
(0.10795502 -0.00064470886 0.00090863777)
(0.11208554 0.00035455268 0.00017851947)
(0.11799946 0.0022239984 -0.0010851083)
(0.12627644 0.0058614221 -0.0032117267)
(0.13689238 0.012234659 -0.0066271132)
(0.1488672 0.021240799 -0.011692912)
(0.16050177 0.032489645 -0.018442575)
(0.17025979 0.044454604 -0.026301998)
(0.17741827 0.05541482 -0.034300395)
(0.18203385 0.064511172 -0.04147946)
(0.18444145 0.071705904 -0.047320756)
(0.18505732 0.076949058 -0.051781255)
(0.18455411 0.080149623 -0.055029383)
(0.1837322 0.081462446 -0.057209933)
(0.18319802 0.08127564 -0.058389114)
(0.18322845 0.080040324 -0.058593194)
(0.18379847 0.078175777 -0.057803242)
(0.18460599 0.076120118 -0.055881201)
(0.18496538 0.07460346 -0.052396024)
(0.18352295 0.075188001 -0.04630546)
(0.178872 0.081141333 -0.035328228)
(0.15028449 0.097665764 -0.014696372)
(0.098891129 -0.0026647975 0.00087071825)
(0.0982305 -0.0038769893 0.001327513)
(0.096798317 -0.0042699848 0.0015383188)
(0.094887955 -0.0043593052 0.0016694167)
(0.092948843 -0.0043140327 0.0017730251)
(0.091163818 -0.0042067391 0.0018614961)
(0.089536343 -0.0041125435 0.0019484831)
(0.087996991 -0.0041348701 0.0020590647)
(0.086524971 -0.0041563996 0.0022468382)
(0.085263567 -0.0040897733 0.0025619992)
(0.084547237 -0.0037494928 0.0030041169)
(0.085420687 -0.0023583777 0.0033740222)
(0.090335628 0.0022882985 0.0031499488)
(0.1006159 0.012529389 0.0018243417)
(0.11470455 0.02839638 -0.00079487748)
(0.12956764 0.046589708 -0.0042257018)
(0.14302024 0.063935617 -0.0074163357)
(0.15419211 0.078098584 -0.009692275)
(0.16265716 0.088693998 -0.011213913)
(0.16824955 0.096024749 -0.01240229)
(0.17159361 0.10042891 -0.013650364)
(0.17367382 0.10224998 -0.015093054)
(0.17520551 0.1019161 -0.016422555)
(0.17645107 0.099919173 -0.017240186)
(0.17732235 0.096722861 -0.017297149)
(0.17754 0.092783753 -0.016336183)
(0.17669691 0.088789248 -0.013978872)
(0.17414625 0.086291155 -0.0094425775)
(0.16993936 0.088836966 -0.0011507759)
(0.14742612 0.10285761 0.014178576)
(0.09689877 -0.0014738762 0.00083682022)
(0.094808322 -0.002173021 0.0012558453)
(0.091278692 -0.0023919351 0.0014276455)
(0.086905514 -0.002432145 0.0015175511)
(0.082476179 -0.0023859655 0.0015808272)
(0.078235353 -0.0022773383 0.0016321293)
(0.074157229 -0.002136908 0.0016894102)
(0.070164044 -0.002002759 0.0017850642)
(0.066155281 -0.0018886427 0.0019728296)
(0.061968467 -0.0018668149 0.002342134)
(0.057301521 -0.0021921458 0.0030451513)
(0.051740895 -0.0031111608 0.0043585175)
(0.044745915 -0.0037674584 0.0067363259)
(0.037746655 -0.00036644306 0.010517347)
(0.03818501 0.012258795 0.015193623)
(0.048121258 0.030308352 0.019905166)
(0.062639608 0.046762003 0.024731413)
(0.078300623 0.05930311 0.029779681)
(0.093066872 0.068139631 0.03480261)
(0.10580241 0.074075962 0.039088212)
(0.11636417 0.077643905 0.042077157)
(0.12518241 0.079083483 0.043774961)
(0.13265515 0.078607003 0.044414564)
(0.13884775 0.076544284 0.044347358)
(0.14354614 0.073279263 0.043947808)
(0.14648978 0.069244385 0.043597973)
(0.14765423 0.065019183 0.043682464)
(0.14755104 0.0618142 0.044637998)
(0.14959314 0.062493744 0.046628274)
(0.16060584 0.073218405 0.048574107)
(0.10427567 -0.0020059743 0.0010284177)
(0.11588608 -0.0021861892 0.001472106)
(0.12641231 -0.0021852509 0.0015312362)
(0.13493582 -0.0019687936 0.0013848798)
(0.14234575 -0.0015931546 0.0010654219)
(0.14909329 -0.0012039597 0.00054628463)
(0.15523532 -0.00090426187 -0.00021147902)
(0.16072742 -0.00075976013 -0.0012879532)
(0.16552866 -0.0008240539 -0.0028758475)
(0.1696138 -0.001164851 -0.0051966646)
(0.17295375 -0.0018532193 -0.0085196542)
(0.17546129 -0.0029798653 -0.013137756)
(0.17678055 -0.004591322 -0.019259138)
(0.17670941 -0.0070419981 -0.026819046)
(0.17609991 -0.0099237446 -0.035371991)
(0.17590929 -0.012823128 -0.044132237)
(0.17660439 -0.015276659 -0.052198495)
(0.17813821 -0.016879977 -0.058850683)
(0.1799614 -0.01757248 -0.063845665)
(0.18139103 -0.017753586 -0.067361284)
(0.18217832 -0.017927896 -0.069656784)
(0.18262845 -0.01832508 -0.070928554)
(0.18325696 -0.018898516 -0.071296946)
(0.18447032 -0.0195235 -0.070808588)
(0.18647107 -0.020072671 -0.06944156)
(0.18929738 -0.020366862 -0.067101003)
(0.19283721 -0.019966865 -0.063551893)
(0.19673539 -0.017608042 -0.058414384)
(0.20014392 -0.009715416 -0.051338952)
(0.1898358 0.013724565 -0.041381226)
(0.10002648 -0.0032694789 0.0010815253)
(0.10070931 -0.0041301941 0.0016581315)
(0.10225231 -0.0044165502 0.0018960838)
(0.10425893 -0.0043349703 0.0019970565)
(0.10661305 -0.0040491412 0.0020124132)
(0.10928292 -0.0037673729 0.0019327394)
(0.11219304 -0.0036335003 0.0017347431)
(0.11526972 -0.0037519 0.001372609)
(0.11847721 -0.0042210715 0.00076232142)
(0.12182098 -0.0051695766 -0.00023937717)
(0.12524793 -0.0067324742 -0.0017874742)
(0.12875206 -0.009064869 -0.0040947832)
(0.13239998 -0.012261454 -0.0074251278)
(0.13617981 -0.016615452 -0.011898405)
(0.14021367 -0.021473491 -0.017291525)
(0.14485464 -0.025883708 -0.022917854)
(0.15014258 -0.028856524 -0.027782944)
(0.15560987 -0.029616041 -0.0311748)
(0.16034335 -0.02809753 -0.033233152)
(0.16353366 -0.025216999 -0.034617366)
(0.16515395 -0.022306823 -0.035746848)
(0.16585224 -0.020189054 -0.036701359)
(0.16631171 -0.018913959 -0.037378053)
(0.16693504 -0.018271285 -0.037489919)
(0.16799489 -0.018141442 -0.036628124)
(0.16993812 -0.01847586 -0.034319816)
(0.1737248 -0.019090509 -0.029978049)
(0.18159627 -0.019161684 -0.022705636)
(0.1995444 -0.016421335 -0.011030887)
(0.25550681 -0.0042312392 0.0033265073)
(0.10020135 -0.0026923651 0.0011004226)
(0.10050939 -0.0039278421 0.0016996918)
(0.10052406 -0.0043593061 0.0019768976)
(0.10031364 -0.0045193205 0.0021383856)
(0.10008366 -0.0045822981 0.0022499763)
(0.099947865 -0.004624537 0.0023203231)
(0.09991617 -0.0047159863 0.0023545803)
(0.099960892 -0.0049330766 0.0023637228)
(0.10006276 -0.0053641345 0.0023753488)
(0.10022425 -0.0061384811 0.0023974978)
(0.1004576 -0.0074674907 0.00237326)
(0.10082395 -0.0096009792 0.0021433399)
(0.10156855 -0.012810852 0.0015503269)
(0.10300706 -0.017413598 0.00067492705)
(0.10531282 -0.023310548 -0.00011550329)
(0.10904266 -0.028966315 9.1153457e-05)
(0.11448093 -0.033174781 0.0025003671)
(0.1211527 -0.034525884 0.0074537985)
(0.12788715 -0.03254504 0.013860312)
(0.13319629 -0.028793485 0.0199098)
(0.13647903 -0.025257399 0.024431817)
(0.13821457 -0.022223461 0.028016552)
(0.13977749 -0.019874947 0.031140786)
(0.14201568 -0.018530543 0.033980165)
(0.14499256 -0.018179984 0.036874212)
(0.14821529 -0.01894148 0.039715559)
(0.15127418 -0.020345894 0.042820656)
(0.1553918 -0.02198535 0.046571447)
(0.16354458 -0.023660358 0.052469983)
(0.18751298 -0.025267819 0.062662296)
(0.098152522 -0.0015008863 0.0010743745)
(0.096972203 -0.0022283047 0.0016547132)
(0.094817551 -0.0024783952 0.001917157)
(0.092062913 -0.002560311 0.0020612533)
(0.089254116 -0.0025693666 0.0021528495)
(0.086575521 -0.0025326724 0.0022042569)
(0.084022196 -0.0024831742 0.0022276674)
(0.081559953 -0.0024619085 0.0022458563)
(0.07915639 -0.0025177771 0.0022967306)
(0.076760047 -0.0027299542 0.0024435245)
(0.074263302 -0.0032473175 0.0027971667)
(0.071466775 -0.0043198935 0.0035659109)
(0.068054467 -0.0062624617 0.0050708657)
(0.063567149 -0.0090882439 0.0078814019)
(0.058143634 -0.011302365 0.013758821)
(0.05380422 -0.0097688705 0.024881586)
(0.053796074 -0.003117433 0.040989183)
(0.059263632 0.0064093502 0.058892024)
(0.067347416 0.016087385 0.075272023)
(0.075031341 0.024449711 0.088489897)
(0.081988995 0.030803955 0.097490595)
(0.08899254 0.034680837 0.1024109)
(0.09594157 0.035757848 0.10412618)
(0.10218917 0.034695847 0.10404984)
(0.10733368 0.032125718 0.10282556)
(0.11111338 0.028501936 0.10065619)
(0.11416166 0.023733009 0.096934644)
(0.1171221 0.01864011 0.092292422)
(0.12168036 0.014152345 0.088823486)
(0.13793483 0.011051255 0.087075598)
(0.10415096 -0.0020210873 0.00038616475)
(0.1155643 -0.0021972317 0.00064627455)
(0.12601007 -0.0021703021 0.00077488225)
(0.13457027 -0.0019057177 0.00081934188)
(0.14207461 -0.0014658365 0.00080863416)
(0.14892462 -0.0010052035 0.00075190987)
(0.15513864 -0.00062238886 0.00064360082)
(0.16067384 -0.00035167854 0.00046592812)
(0.16554131 -0.00020095621 0.0002029088)
(0.16975132 -0.00019020266 -0.00015586629)
(0.17324826 -0.00035736824 -0.00064434719)
(0.17589298 -0.000748787 -0.0013106868)
(0.17716233 -0.0014103841 -0.0022055746)
(0.17657397 -0.0028935424 -0.0034956403)
(0.17480581 -0.0050972017 -0.005374855)
(0.17277548 -0.0082377645 -0.0079287387)
(0.17128185 -0.012337799 -0.011003271)
(0.17077686 -0.016780278 -0.014201007)
(0.17097479 -0.020866467 -0.017260423)
(0.17123893 -0.024390321 -0.020259062)
(0.17127146 -0.027431073 -0.023159428)
(0.1712191 -0.030130745 -0.025734494)
(0.17141287 -0.032548513 -0.02777517)
(0.17211132 -0.034641452 -0.029162387)
(0.17344858 -0.03628352 -0.029811447)
(0.17557541 -0.037380966 -0.029668619)
(0.17856478 -0.037949666 -0.028906003)
(0.18267152 -0.037235658 -0.0280295)
(0.18891066 -0.031580267 -0.029044736)
(0.19028625 -0.0098475371 -0.032839276)
(0.099902466 -0.003275822 0.00038557553)
(0.10035871 -0.0041210477 0.00066573377)
(0.10179431 -0.0043653067 0.00081626694)
(0.10382402 -0.0042146332 0.00088099074)
(0.10625332 -0.0038384435 0.00088135905)
(0.10899805 -0.0034506708 0.00081087875)
(0.11195297 -0.003179766 0.00064966855)
(0.11501814 -0.0030752633 0.00036783992)
(0.11813326 -0.0031639173 -7.6618694e-05)
(0.12125231 -0.0035050136 -0.00074530811)
(0.12432546 -0.0041942438 -0.0017444486)
(0.12731127 -0.0053457078 -0.0032083483)
(0.13020028 -0.0070970537 -0.0053223278)
(0.13284548 -0.010144326 -0.0083123831)
(0.1352227 -0.014530871 -0.012378908)
(0.13764237 -0.020561718 -0.017506313)
(0.14037464 -0.027675058 -0.023004309)
(0.1431419 -0.033786977 -0.027906408)
(0.14516293 -0.03749637 -0.031814985)
(0.14567696 -0.039069764 -0.035368756)
(0.14469806 -0.039570331 -0.038819616)
(0.14279165 -0.039911407 -0.042016515)
(0.14060261 -0.040491031 -0.044694185)
(0.13860542 -0.041254441 -0.046480158)
(0.13699127 -0.041998231 -0.04707467)
(0.1360623 -0.042825217 -0.046242867)
(0.1365098 -0.044200259 -0.043917908)
(0.14105977 -0.045244528 -0.041149878)
(0.15777931 -0.040620081 -0.043509469)
(0.2080952 -0.019806759 -0.058128151)
(0.10008156 -0.0026855567 0.00039143818)
(0.10017446 -0.0039127317 0.00067894126)
(0.10009176 -0.0043228742 0.00084521318)
(0.099919177 -0.0044497842 0.00093256473)
(0.099795048 -0.0044673761 0.00096193022)
(0.099794606 -0.0044454315 0.00092890078)
(0.099915105 -0.0044386266 0.00081887548)
(0.10011825 -0.0044940385 0.00061030431)
(0.10036612 -0.0046630821 0.0002692296)
(0.10062606 -0.0050266257 -0.00026433652)
(0.10086988 -0.0057023562 -0.0010911837)
(0.10106286 -0.0068678388 -0.0023635319)
(0.10110638 -0.0088064719 -0.0042980874)
(0.10086587 -0.012014947 -0.0072629539)
(0.10029658 -0.01704699 -0.011737413)
(0.099662477 -0.024514693 -0.017687426)
(0.099303905 -0.033208592 -0.023414932)
(0.099150773 -0.039362249 -0.026511266)
(0.09924567 -0.041257851 -0.025826136)
(0.097761123 -0.040025402 -0.025583249)
(0.094057891 -0.038332674 -0.027392016)
(0.089072692 -0.037565778 -0.03023924)
(0.0837987 -0.038039422 -0.032815462)
(0.079292808 -0.039408244 -0.033867584)
(0.07603392 -0.041357603 -0.032470036)
(0.075110003 -0.044007517 -0.027370637)
(0.07676081 -0.048288374 -0.019368832)
(0.082766252 -0.054100811 -0.010652496)
(0.098915984 -0.057941523 -0.010678623)
(0.14604285 -0.05130028 -0.035300676)
(0.098035599 -0.0014949799 0.00038226102)
(0.096643948 -0.0022160427 0.00065854805)
(0.094394653 -0.0024568367 0.00081510861)
(0.091679799 -0.0025273505 0.00089433518)
(0.088980688 -0.0025219014 0.00091837016)
(0.086444593 -0.0024647931 0.00088522921)
(0.084057065 -0.0023843057 0.00078407382)
(0.081779819 -0.0023124352 0.00059986991)
(0.07957939 -0.0022810575 0.00031030196)
(0.077417034 -0.0023309302 -0.00011795136)
(0.075237714 -0.0025277916 -0.00073165852)
(0.07295421 -0.0029960993 -0.0015963529)
(0.070407782 -0.0039672538 -0.0028224556)
(0.06732385 -0.0058292415 -0.004627066)
(0.063331844 -0.0092575569 -0.0071992146)
(0.058315876 -0.015120165 -0.010207067)
(0.052184914 -0.021612293 -0.011451479)
(0.047098733 -0.022784661 -0.004271265)
(0.049486446 -0.016388826 0.019850009)
(0.051547758 -0.0052363956 0.046986638)
(0.052663179 0.0054507203 0.065411719)
(0.055821518 0.012770118 0.076159406)
(0.060472379 0.016296327 0.080952565)
(0.065265032 0.016682008 0.082002563)
(0.068938849 0.014478452 0.080490841)
(0.070339416 0.0098974537 0.076557638)
(0.069754501 0.0024953675 0.06972418)
(0.071949607 -0.0072847928 0.060620175)
(0.077665292 -0.016482609 0.043086044)
(0.10975963 -0.012141685 -0.0030231847)
(0.10412484 -0.0020210789 0.00021024465)
(0.11546652 -0.0021918215 0.00038484508)
(0.1258358 -0.0021515926 0.00050182024)
(0.13434304 -0.0018610358 0.0005660354)
(0.1418235 -0.0013752997 0.00058818408)
(0.14868187 -0.0008395322 0.00057443282)
(0.15495847 -0.00033802653 0.00052748144)
(0.16065191 0.00011018257 0.00045458409)
(0.16580111 0.00051334721 0.00036909862)
(0.1704446 0.00088402805 0.00027561668)
(0.17460119 0.0012498311 0.00018452445)
(0.17828001 0.0016479638 0.00013370507)
(0.18106375 0.0021043429 0.000191706)
(0.18254409 0.002051625 0.00031025085)
(0.18354252 0.001769297 0.00053583244)
(0.18520417 0.0011204497 0.0012142257)
(0.18822941 0.00037495409 0.0029873319)
(0.19235887 0.00011938985 0.0060229961)
(0.19635429 0.00015360075 0.009759509)
(0.1992903 -0.00028312865 0.013546439)
(0.20142312 -0.0012631916 0.0170146)
(0.20339734 -0.0026646352 0.020196239)
(0.20555215 -0.004370067 0.02333653)
(0.20787335 -0.006160602 0.026730998)
(0.20999586 -0.0078869364 0.030387913)
(0.21149212 -0.00943148 0.033737504)
(0.21223782 -0.0096820323 0.035853417)
(0.21154358 -0.0058756444 0.035783475)
(0.2026548 0.005245169 0.029803586)
(0.1357272 0.035265529 0.0092546408)
(0.099875024 -0.0032755269 0.00021209795)
(0.1002413 -0.0041133399 0.00039875716)
(0.10156378 -0.0043375588 0.00052578604)
(0.103493 -0.0041473109 0.00059244016)
(0.10583479 -0.0037019504 0.00060584838)
(0.10849369 -0.0032012291 0.00056596278)
(0.11136043 -0.0027519285 0.00046515743)
(0.11433741 -0.0023779273 0.00029098955)
(0.11735697 -0.0020748498 2.5153439e-05)
(0.12038293 -0.0018437386 -0.00036516653)
(0.12339356 -0.0016893474 -0.00092218779)
(0.12638443 -0.0016326904 -0.0016988593)
(0.12942094 -0.0017486522 -0.0027503267)
(0.13247572 -0.0028640063 -0.0041186895)
(0.13575793 -0.0050838462 -0.0057468963)
(0.13977048 -0.0089590053 -0.0072832585)
(0.14464905 -0.012932507 -0.0080480638)
(0.14935428 -0.014493873 -0.0086346928)
(0.15236184 -0.014117644 -0.010200932)
(0.15276096 -0.014791249 -0.013085895)
(0.15185922 -0.016225205 -0.016831667)
(0.15060558 -0.017936972 -0.020752909)
(0.14915915 -0.019800169 -0.0240254)
(0.14753552 -0.02148753 -0.025916671)
(0.14558932 -0.022805162 -0.026090487)
(0.14346614 -0.023908661 -0.024816186)
(0.14186162 -0.023683116 -0.023786198)
(0.14448832 -0.014804409 -0.029129537)
(0.15992828 0.01104916 -0.040445741)
(0.15779741 0.056086056 -0.056147183)
(0.10005532 -0.0026822104 0.00021385268)
(0.10006176 -0.0039054728 0.00040185478)
(0.099866548 -0.0043059785 0.00053371022)
(0.099588551 -0.0044144448 0.00060720807)
(0.099367325 -0.0044013126 0.0006274336)
(0.099266889 -0.00432923 0.00059250364)
(0.099277109 -0.004241047 0.00049276767)
(0.099355029 -0.0041664608 0.0003125856)
(0.099454324 -0.0041309062 2.9157322e-05)
(0.099532949 -0.0041669951 -0.00039264953)
(0.099542072 -0.0043390537 -0.0010108428)
(0.099418367 -0.0047648887 -0.0019207026)
(0.099107946 -0.0056667887 -0.0032572861)
(0.09855392 -0.0076226038 -0.0051216605)
(0.09784419 -0.011578583 -0.0075534635)
(0.09724434 -0.01898065 -0.010176458)
(0.096223984 -0.025941238 -0.011627297)
(0.093965629 -0.027430646 -0.01257741)
(0.090181715 -0.023334629 -0.014317176)
(0.08121074 -0.022120605 -0.01632897)
(0.072212445 -0.023006347 -0.018980521)
(0.064995718 -0.02479285 -0.022136628)
(0.057333829 -0.027637982 -0.023954376)
(0.049843579 -0.030689695 -0.023286044)
(0.04309476 -0.033813634 -0.019409754)
(0.037099526 -0.038813719 -0.010769912)
(0.031782699 -0.045227328 -0.0060539121)
(0.029749637 -0.038790095 -0.026127202)
(0.057012285 -0.010053216 -0.052777624)
(0.085400453 0.040229388 -0.081855111)
(0.098009825 -0.0014962981 0.00020857868)
(0.096534094 -0.0022190796 0.00038938542)
(0.094175304 -0.0024592334 0.00051401085)
(0.091357181 -0.0025255714 0.00058043952)
(0.088562795 -0.0025112152 0.00059382564)
(0.085927666 -0.0024378318 0.00055283425)
(0.083427281 -0.0023295681 0.00044841193)
(0.081013285 -0.0022124261 0.00026535199)
(0.078637667 -0.0021094142 -1.8528348e-05)
(0.076243475 -0.0020451283 -0.00043786822)
(0.073742302 -0.0020595707 -0.0010507251)
(0.070982826 -0.0022305442 -0.0019534401)
(0.067700105 -0.0027329047 -0.0033103201)
(0.063391823 -0.004018762 -0.0054122465)
(0.057031553 -0.0072512466 -0.0088708718)
(0.047524096 -0.015135153 -0.015193725)
(0.029295116 -0.021372545 -0.024706221)
(0.0098654485 -0.017933448 -0.029681576)
(-0.010814998 -0.0035542716 -0.024445356)
(0.0030546215 -0.0080063332 0.0082269863)
(-0.00061399277 -0.0042829085 0.030125229)
(0.0086707337 -0.0005604995 0.040033147)
(0.014278681 0.00012041064 0.043786627)
(0.018441591 -0.0013479204 0.044361466)
(0.019107297 -0.0050360011 0.042945097)
(0.014844845 -0.012150252 0.039832929)
(-0.0034098042 -0.023921667 0.020263059)
(-0.037119976 -0.019668446 -0.030181133)
(-0.044417873 0.010701035 -0.07117386)
(0.020436717 0.050901095 -0.10828541)
(0.10410972 -0.0020239678 5.7795641e-05)
(0.11541335 -0.0021968906 0.00010360357)
(0.12573871 -0.0021577257 0.00013029544)
(0.13421015 -0.0018663557 0.00013905309)
(0.14166646 -0.0013770702 0.00013371873)
(0.14850976 -0.00083506042 0.00011701935)
(0.1547771 -0.00032534836 8.9844462e-05)
(0.16046297 0.0001320111 5.1604209e-05)
(0.16560142 0.00054564081 -6.6446902e-07)
(0.17024015 0.00093355099 -7.2655179e-05)
(0.17442785 0.0013141752 -0.00016611615)
(0.17817035 0.0017131696 -0.0002727534)
(0.18085755 0.0022136721 -0.00039468505)
(0.18215311 0.0020341685 -0.00061610972)
(0.18315968 0.0015186691 -0.00093815933)
(0.18563613 0.00076123941 -0.0011474228)
(0.19049259 0.00097594098 -0.00081869408)
(0.19655543 0.0023361337 -1.48623e-05)
(0.20224217 0.0039356836 0.00085568106)
(0.20695608 0.0053231199 0.001721884)
(0.21151292 0.0065627484 0.0026942805)
(0.21685615 0.0077291622 0.0039497641)
(0.22339117 0.0090530091 0.0057289626)
(0.23071834 0.010943783 0.0082685702)
(0.23757227 0.013669666 0.011674752)
(0.24195103 0.017074945 0.015675174)
(0.24092132 0.021979105 0.019249782)
(0.23004679 0.030035461 0.020346285)
(0.20416105 0.043936183 0.015917108)
(0.10037655 0.07522826 0.0035821867)
(0.099859001 -0.0032782689 5.8577227e-05)
(0.10017843 -0.0041176051 0.00010811483)
(0.10143996 -0.0043407639 0.00013758897)
(0.10331243 -0.0041455876 0.00014607665)
(0.10560468 -0.0036901364 0.00013614529)
(0.1082149 -0.0031736742 0.00010855694)
(0.11102676 -0.0027026631 6.1018092e-05)
(0.11393671 -0.002300167 -1.1477471e-05)
(0.11687531 -0.0019587149 -0.00011684118)
(0.11979805 -0.0016717461 -0.00026343002)
(0.12267636 -0.0014536754 -0.00046836099)
(0.1255444 -0.0013208008 -0.00075092392)
(0.12860573 -0.0012247524 -0.001121217)
(0.13167584 -0.0024257658 -0.0015709713)
(0.13535496 -0.0050357065 -0.0020271862)
(0.14051551 -0.0090744223 -0.0022027508)
(0.14751275 -0.0092503103 -0.0015269927)
(0.15407683 -0.0060990643 -0.00081119443)
(0.15839555 -0.0032444716 -0.00096308517)
(0.16138737 -0.0019417095 -0.001909132)
(0.16385389 -0.0018511493 -0.0035112595)
(0.16615922 -0.0021779394 -0.0055793594)
(0.16894697 -0.002052277 -0.0075913173)
(0.17326971 -0.00032155807 -0.0087518844)
(0.18040605 0.0044361827 -0.0083462949)
(0.19146802 0.013969918 -0.0066198216)
(0.19908862 0.02811161 -0.0046383734)
(0.19803898 0.04783065 -0.0045554725)
(0.18527804 0.075585787 -0.0091939083)
(0.11601437 0.11827999 -0.021446632)
(0.10003941 -0.0026818799 5.8632029e-05)
(0.099999624 -0.0039051724 0.00010796191)
(0.099742304 -0.0043038641 0.00013800719)
(0.099402942 -0.0044076205 0.0001472559)
(0.099123705 -0.0043863833 0.00013733156)
(0.098961779 -0.0043018694 0.00010781667)
(0.098899054 -0.004195205 5.5017583e-05)
(0.09888537 -0.0040932485 -2.781845e-05)
(0.098865217 -0.0040162487 -0.00015075896)
(0.098774233 -0.0039958426 -0.00032781557)
(0.098528909 -0.0040960933 -0.0005882875)
(0.098032385 -0.0044228297 -0.0009765342)
(0.097249385 -0.005155701 -0.001553414)
(0.096195374 -0.0072418136 -0.0023703351)
(0.095368145 -0.012103114 -0.0034485148)
(0.094934827 -0.021700967 -0.0046011553)
(0.095581697 -0.022032455 -0.0036138634)
(0.096521007 -0.016546557 -0.001358962)
(0.091600885 -0.011179305 -0.0017379838)
(0.082313971 -0.0080229514 -0.0041062658)
(0.071139521 -0.0086473784 -0.008078384)
(0.059025385 -0.012264028 -0.012570498)
(0.046308875 -0.016657594 -0.015682512)
(0.035758701 -0.019588676 -0.016040563)
(0.031791884 -0.019822733 -0.01268819)
(0.035034251 -0.015909144 -0.005560391)
(0.06517531 0.0010737423 -0.0016510792)
(0.091554022 0.030060346 -0.0053963109)
(0.10238045 0.069966869 -0.01742888)
(0.067409344 0.12153125 -0.035396031)
(0.09799408 -0.0014959575 5.7112834e-05)
(0.096472801 -0.0022183407 0.00010429285)
(0.094052437 -0.0024571918 0.00013202411)
(0.091172213 -0.0025210626 0.00013871913)
(0.088317648 -0.0025030652 0.0001257277)
(0.085616625 -0.0024244465 9.2333084e-05)
(0.083034743 -0.0023086748 3.4255229e-05)
(0.08051472 -0.0021807304 -5.629069e-05)
(0.077993336 -0.002061038 -0.00019037474)
(0.075378692 -0.0019728484 -0.00038682022)
(0.072526624 -0.0019537376 -0.00068404313)
(0.069195008 -0.0020816326 -0.0011478044)
(0.064940644 -0.0025597948 -0.0018980056)
(0.05883794 -0.0040588331 -0.0031761086)
(0.048732964 -0.0085436637 -0.0055680782)
(0.033031343 -0.020545721 -0.010738705)
(-0.009298882 -0.012602755 -0.017309455)
(-0.039501819 0.0023196186 -0.009669396)
(-0.057060187 0.003442158 -0.0043960058)
(-0.063203856 0.00065287619 0.0011271338)
(-0.057540025 -0.0034291858 0.0095263232)
(-0.049543794 -0.0066247503 0.013558157)
(-0.042047713 -0.0096552185 0.015222796)
(-0.036209698 -0.013112773 0.015224477)
(-0.032028191 -0.017601303 0.014913026)
(-0.02986574 -0.021630732 0.015024393)
(-0.033707207 -0.015299912 0.011510918)
(-0.03016032 0.019133798 5.8826998e-05)
(-0.012688022 0.06406177 -0.024177257)
(0.018665806 0.11091987 -0.049990797)
(0.10410916 -0.0020237814 -6.4138809e-05)
(0.11541156 -0.0021967881 -0.00011779501)
(0.12573538 -0.0021578729 -0.00015380494)
(0.13420489 -0.001867008 -0.00017343754)
(0.1416586 -0.0013785168 -0.0001808664)
(0.14849819 -0.00083768897 -0.00017941126)
(0.15476023 -0.00032977287 -0.00017077123)
(0.16043862 0.00012493677 -0.00015532347)
(0.16556632 0.0005346328 -0.00013132017)
(0.17018736 0.00091794029 -9.4498853e-05)
(0.17434055 0.0012950697 -4.4526265e-05)
(0.17803457 0.0016923786 -8.4506078e-07)
(0.18068127 0.0021701003 2.9513501e-05)
(0.18191625 0.0019416013 0.00014855749)
(0.1828898 0.0013495566 0.00037449891)
(0.18542613 0.00053969067 0.00056630972)
(0.19038531 0.0008448144 0.00039847435)
(0.19639387 0.002205204 -0.00013600804)
(0.20190079 0.0037402746 -0.00080300773)
(0.20646619 0.0050817557 -0.0015813327)
(0.21092464 0.0062850929 -0.0025609571)
(0.21617803 0.007397044 -0.003927486)
(0.22260829 0.0086052362 -0.0059594345)
(0.2298573 0.010282003 -0.0089271993)
(0.23677048 0.012743463 -0.012906888)
(0.24140469 0.015953843 -0.017489998)
(0.24078355 0.020667006 -0.021457527)
(0.23037819 0.028594406 -0.022694587)
(0.20497805 0.042466748 -0.018249867)
(0.10204934 0.073951776 -0.0058313779)
(0.099858991 -0.0032780665 -6.1964372e-05)
(0.1001783 -0.0041175279 -0.00011539979)
(0.10143948 -0.0043410408 -0.00014934577)
(0.10331129 -0.0041465426 -0.00016323682)
(0.10560245 -0.0036921314 -0.00016002087)
(0.10821091 -0.003177205 -0.00014089399)
(0.11101984 -0.0027085303 -0.00010413212)
(0.11392473 -0.0023095512 -4.555285e-05)
(0.11685588 -0.0019735406 4.1587337e-05)
(0.11976692 -0.0016924606 0.00016456775)
(0.12262592 -0.0014793984 0.00033814305)
(0.12545618 -0.0013618138 0.00057984802)
(0.12844382 -0.0013460033 0.00090236904)
(0.13149679 -0.0026722934 0.0013131201)
(0.13524481 -0.0054750318 0.0018019005)
(0.14054304 -0.0095384304 0.0022205913)
(0.1478261 -0.0090195994 0.0020911831)
(0.15429841 -0.0057650917 0.0019124758)
(0.15848243 -0.0030761768 0.0023231367)
(0.16141709 -0.0019368428 0.0033071354)
(0.16377844 -0.0019657032 0.0047911139)
(0.16586471 -0.0024175136 0.0065778007)
(0.16825063 -0.002522486 0.0081163822)
(0.17188606 -0.0012731427 0.0085987722)
(0.17798798 0.0026851329 0.0074016582)
(0.18821334 0.011426913 0.0050651974)
(0.19651631 0.025477135 0.0028532072)
(0.196313 0.045297434 0.002906604)
(0.18468137 0.073136035 0.007840052)
(0.11814893 0.11612556 0.020612114)
(0.10003939 -0.0026818723 -6.1915054e-05)
(0.099999499 -0.0039052357 -0.00011500081)
(0.099741917 -0.0043040873 -0.00014928274)
(0.099402045 -0.0044081044 -0.00016356993)
(0.099121899 -0.0043872485 -0.00015988197)
(0.098958363 -0.0043032995 -0.00013830101)
(0.098892685 -0.0041975058 -9.5767167e-05)
(0.098873331 -0.0040969504 -2.637658e-05)
(0.098845724 -0.004022414 7.8744017e-05)
(0.098743681 -0.0040055334 0.00023156028)
(0.098479435 -0.0041117203 0.00045887535)
(0.097952608 -0.0044633941 0.00080272018)
(0.097112774 -0.0052868104 0.0013226087)
(0.095992936 -0.0075292933 0.0020681912)
(0.095254537 -0.012712754 0.0031116066)
(0.094672704 -0.022699081 0.0045398361)
(0.096744661 -0.021107939 0.0044196188)
(0.097209243 -0.015537571 0.0030621436)
(0.092186306 -0.010443152 0.0035053943)
(0.083208613 -0.007597906 0.0056164215)
(0.072367874 -0.008523825 0.0092379554)
(0.06047046 -0.012353561 0.013214784)
(0.047919634 -0.01698496 0.015552092)
(0.037351395 -0.020458416 0.014589865)
(0.033023911 -0.021676527 0.0091003287)
(0.034736512 -0.018974101 -2.9736668e-05)
(0.061073459 -0.0029855319 -0.0024171319)
(0.087712778 0.025920409 0.0036233578)
(0.098989119 0.065844015 0.017016458)
(0.066866209 0.11783444 0.035570492)
(0.097994045 -0.0014959662 -6.0332633e-05)
(0.09647262 -0.0022183743 -0.00011120524)
(0.094051929 -0.0024572828 -0.00014315583)
(0.091171106 -0.0025212526 -0.00015494086)
(0.088315492 -0.0025034116 -0.00014837467)
(0.08561261 -0.0024250297 -0.00012335794)
(0.083027284 -0.0023096068 -7.6416926e-05)
(0.080500467 -0.0021822061 -9.0760458e-07)
(0.077968901 -0.0020634574 0.00011244349)
(0.075337937 -0.0019776456 0.00027895387)
(0.072453433 -0.0019635602 0.00053119804)
(0.069057269 -0.0021060148 0.00092371277)
(0.064668512 -0.0026280765 0.0015541094)
(0.058280018 -0.0042502414 0.0026181135)
(0.047565777 -0.009148291 0.004627448)
(0.030552662 -0.022167353 0.009276452)
(-0.015763629 -0.0080611818 0.016428529)
(-0.039756566 0.0029358307 0.010138387)
(-0.056860298 0.0034161066 0.0048951946)
(-0.061928736 0.00048358745 -0.00058147936)
(-0.055465284 -0.0036313125 -0.0090869739)
(-0.046919382 -0.0067840367 -0.013831533)
(-0.039008905 -0.0096296805 -0.01722)
(-0.033253623 -0.01287693 -0.01983879)
(-0.029895615 -0.017179538 -0.021979044)
(-0.029413795 -0.02093321 -0.022133798)
(-0.037623764 -0.013461402 -0.013994124)
(-0.035739128 0.020249597 -0.0014388472)
(-0.021737749 0.061527948 0.021782857)
(0.0057736879 0.10860686 0.048409509)
(0.10412308 -0.0020209608 -0.00021570281)
(0.11546101 -0.0021923312 -0.00039694613)
(0.12582621 -0.0021529345 -0.00052149978)
(0.13432887 -0.0018634911 -0.00059409583)
(0.14180362 -0.0013792989 -0.00062547836)
(0.1486545 -0.00084565907 -0.00062194772)
(0.15492128 -0.00034705378 -0.0005862322)
(0.16060203 9.7408663e-05 -0.00052521798)
(0.1657357 0.00049622352 -0.00045290263)