/*--------------------------------*- C++ -*----------------------------------*\
| =========                 |                                                 |
| \\      /  F ield         | OpenFOAM: The Open Source CFD Toolbox           |
|  \\    /   O peration     | Version:  v2012                                 |
|   \\  /    A nd           | Website:  www.openfoam.com                      |
|    \\/     M anipulation  |                                                 |
\*---------------------------------------------------------------------------*/
FoamFile
{
    version     2.0;
    format      ascii;
    class       volScalarField;
    location    "620/heater";
    object      T;
}
// * * * * * * * * * * * * * * * * * * * * * * * * * * * * * * * * * * * * * //

dimensions      [0 0 0 1 0 0 0];


internalField   nonuniform List<scalar> 
80
(
733.18425
735.33005
739.49518
745.41308
723.89212
726.39979
731.29136
738.2799
704.29422
707.51245
713.94407
723.40822
672.3398
676.36453
684.97981
698.84695
345.7228
342.93303
342.93709
345.59349
422.54636
419.15532
419.34856
422.87503
488.22166
485.40268
486.11308
489.8419
544.07082
542.39718
544.3289
548.81846
590.27155
590.53974
595.19641
602.78819
625.5001
629.15675
638.67751
657.84898
345.47627
342.82018
342.86184
345.53981
422.27258
419.01929
419.25806
422.81482
488.03711
485.30186
486.04138
489.7975
543.98469
542.33972
544.28538
548.81282
590.25126
590.52257
595.18726
602.80875
625.50685
629.16537
638.69621
657.89113
672.41612
676.43002
685.05759
698.97203
704.45989
707.67628
714.14097
723.64491
724.15389
726.66482
731.59099
738.60482
733.51168
735.6708
739.85412
745.76503
)
;

boundaryField
{
    minY
    {
        type            fixedValue;
        value           uniform 300;
    }
    minZ
    {
        type            zeroGradient;
    }
    maxZ
    {
        type            zeroGradient;
    }
    heater_to_topAir
    {
        type            compressible::turbulentTemperatureCoupledBaffleMixed;
        refValue        nonuniform List<scalar> 
40
(
518.01361
515.04617
509.6493
502.59835
481.31083
469.46808
456.90532
445.85753
491.80361
481.05051
469.71541
459.09248
506.54536
503.20826
502.28372
503.15951
504.25962
502.21843
503.31117
505.51831
504.30944
501.84234
502.55116
504.70104
506.56464
502.59504
500.95981
501.19123
492.02187
480.85291
468.92814
457.80808
481.45842
469.61911
457.02169
445.91552
518.16741
515.15268
509.68046
502.53407
)
;
        refGradient     uniform 0;
        valueFraction   nonuniform List<scalar> 
40
(
0.00032132529
0.00032132529
0.00032132529
0.00032132529
0.00032132529
0.00032132529
0.00032132529
0.00032132529
0.00032132529
0.00032132529
0.00032132529
0.00032132529
0.00032132529
0.00032132529
0.00032132529
0.00032132529
0.00032132529
0.00032132529
0.00032132529
0.00032132529
0.00032132529
0.00032132529
0.00032132529
0.00032132529
0.00032132529
0.00032132529
0.00032132529
0.00032132529
0.00032132529
0.00032132529
0.00032132529
0.00032132529
0.00032132529
0.00032132529
0.00032132529
0.00032132529
0.00032132529
0.00032132529
0.00032132529
0.00032132529
)
;
        value           nonuniform List<scalar> 
40
(
733.11571
735.25982
739.42179
745.33542
723.8147
726.31773
731.20368
738.18637
704.22642
707.44014
713.86603
723.32358
672.2869
676.30926
684.92142
698.78422
625.46134
629.11613
638.63413
657.80008
625.46805
629.12457
638.65256
657.84201
672.36297
676.37431
684.9986
698.9087
704.39184
707.60362
714.06244
723.55978
724.07618
726.58254
731.50309
738.5111
733.44288
735.60036
739.78057
745.68728
)
;
        Tnbr            T;
        thicknessLayers List<scalar> 0();
        kappaLayers     List<scalar> 0();
        kappaMethod     solidThermo;
        kappa           none;
        alphaAni        none;
        alpha           none;
        field           T;
    }
    heater_to_rightSolid
    {
        type            compressible::turbulentTemperatureCoupledBaffleMixed;
        refValue        nonuniform List<scalar> 10(752.67765 746.85792 735.18265 717.72997 697.07814 697.15073 717.89407 735.42317 747.15951 752.98475);
        refGradient     uniform 0;
        valueFraction   nonuniform List<scalar> 10(0.49999997 0.49999997 0.49999997 0.49999997 0.49999997 0.49999997 0.49999997 0.49999997 0.49999997 0.49999997);
        value           nonuniform List<scalar> 10(749.04555 742.56913 729.29558 708.28853 677.46358 677.52098 708.43316 729.53418 742.88233 749.37509);
        Tnbr            T;
        thicknessLayers List<scalar> 0();
        kappaLayers     List<scalar> 0();
        kappaMethod     solidThermo;
        kappa           none;
        alphaAni        none;
        alpha           none;
        field           T;
    }
    heater_to_leftSolid
    {
        type            compressible::turbulentTemperatureCoupledBaffleMixed;
        refValue        nonuniform List<scalar> 10(919.09884 919.12129 919.17924 919.20668 919.14354 919.02368 918.90044 918.88688 918.95722 919.0391);
        refGradient     uniform 0;
        valueFraction   nonuniform List<scalar> 10(2.0832898e-05 2.0832898e-05 2.0832898e-05 2.0832898e-05 2.0832898e-05 2.0832898e-05 2.0832898e-05 2.0832898e-05 2.0832898e-05 2.0832898e-05);
        value           nonuniform List<scalar> 10(733.18872 723.89671 704.29918 672.34532 625.50641 625.51311 672.4214 704.46457 724.15822 733.51594);
        Tnbr            T;
        thicknessLayers List<scalar> 1(0.001);
        kappaLayers     List<scalar> 1(0.0005);
        kappaMethod     solidThermo;
        kappa           none;
        alphaAni        none;
        alpha           none;
        field           T;
    }
    heater_to_bottomWater
    {
        type            compressible::turbulentTemperatureCoupledBaffleMixed;
        refValue        nonuniform List<scalar> 
92
(
923.09758
923.65857
924.01898
925.37206
924.5293
925.82387
924.42998
921.85823
923.48591
924.67146
922.23792
921.67648
943.54404
938.06492
936.2808
935.02899
937.89659
935.03068
933.42685
932.30637
930.83295
931.7587
931.8629
931.10753
928.51176
929.10195
930.28235
929.73449
921.2321
921.2321
922.42062
922.42062
923.39747
923.39747
924.33276
924.33276
951.55456
904.79232
946.64232
911.21496
943.49932
914.60148
935.89642
911.86753
931.33406
915.38907
919.98155
915.83144
915.35198
913.33096
905.66219
916.99446
919.64894
920.74782
920.48434
917.33928
911.63199
921.67526
926.86125
923.08739
922.02192
919.12294
914.24558
923.26752
930.34737
924.06988
922.33066
919.11992
915.69663
923.17887
930.1005
924.85026
921.78345
919.78225
917.52288
923.15842
924.85026
921.78345
919.78225
923.15842
927.35865
924.84707
925.07363
926.5237
929.46468
926.73681
929.72756
930.85375
927.85164
928.65305
930.08491
929.83001
)
;
        refGradient     uniform 0;
        valueFraction   nonuniform List<scalar> 
92
(
0.0075140686
0.0075140686
0.0075140686
0.0075140686
0.0075140686
0.0075140686
0.0075140686
0.0075140686
0.0075140686
0.0075140686
0.0075140686
0.0075140686
0.0075140686
0.0075140686
0.0075140686
0.0075140686
0.0075140686
0.0075140686
0.0075140686
0.0075140686
0.0075140686
0.0075140686
0.0075140686
0.0075140686
0.0075140686
0.0075140686
0.0075140686
0.0075140686
0.0075140686
0.0075140686
0.0075140686
0.0075140686
0.0075140686
0.0075140686
0.0075140686
0.0075140686
0.0075140679
0.0075140679
0.0075140679
0.0075140679
0.0075140679
0.0075140679
0.0075140679
0.0075140679
0.0075140679
0.0075140679
0.0075140679
0.0075140686
0.0075140686
0.0075140686
0.0075140679
0.0075140686
0.0075140679
0.0075140686
0.0075140686
0.0075140686
0.0075140679
0.0075140686
0.0075140679
0.0075140686
0.0075140686
0.0075140686
0.0075140679
0.0075140686
0.0075140679
0.0075140686
0.0075140686
0.0075140686
0.0075140679
0.0075140686
0.0075140679
0.0075140686
0.0075140686
0.0075140686
0.0075140679
0.0075140686
0.0075140686
0.0075140686
0.0075140686
0.0075140686
0.0075140686
0.0075140686
0.0075140686
0.0075140686
0.0075140686
0.0075140686
0.0075140686
0.0075140686
0.0075140686
0.0075140686
0.0075140686
0.0075140686
)
;
        value           nonuniform List<scalar> 
92
(
734.61186
736.74571
740.88216
746.76566
725.40024
727.89877
732.7431
739.65975
705.94172
709.14466
715.50964
724.89831
350.21459
347.40475
347.39544
350.02253
426.41832
423.03136
423.2112
426.70276
491.54699
488.75636
489.4623
493.15738
546.95924
545.30281
547.2289
551.68048
674.21037
592.75857
678.21378
593.03363
686.77161
597.66257
700.54142
605.20416
350.27478
349.79533
426.48404
426.54428
491.64217
493.03335
547.01473
551.54623
592.83448
605.13696
349.79271
349.76152
347.12212
347.14837
349.74865
349.8338
426.00983
426.01809
422.78723
423.00061
426.48782
426.56329
491.33427
491.30591
488.5833
489.29551
492.9868
493.0546
546.88775
546.84058
545.19497
547.10187
551.56959
551.62581
592.80506
592.76561
593.01177
597.62632
605.17358
605.21593
674.31307
678.27377
686.82149
700.6568
706.13498
709.30834
715.72619
725.16965
725.69688
728.16849
733.08013
740.04972
734.97236
737.1213
741.28394
747.14851
)
;
        Tnbr            T;
        thicknessLayers List<scalar> 0();
        kappaLayers     List<scalar> 0();
        kappaMethod     solidThermo;
        kappa           none;
        alphaAni        none;
        alpha           none;
        field           T;
    }
}


// ************************************************************************* //
