/*--------------------------------*- C++ -*----------------------------------*\
| =========                 |                                                 |
| \\      /  F ield         | OpenFOAM: The Open Source CFD Toolbox           |
|  \\    /   O peration     | Version:  v2012                                 |
|   \\  /    A nd           | Website:  www.openfoam.com                      |
|    \\/     M anipulation  |                                                 |
\*---------------------------------------------------------------------------*/
FoamFile
{
    version     2.0;
    format      ascii;
    class       surfaceScalarField;
    location    "430/topAir";
    object      phi;
}
// * * * * * * * * * * * * * * * * * * * * * * * * * * * * * * * * * * * * * //

dimensions      [1 0 -1 0 0 0 0];
oriented        oriented;


internalField   nonuniform List<scalar> 
3140
(
9.4954337e-06
-2.9884305e-07
7.240072e-08
9.6776782e-06
-2.648285e-07
8.2614592e-08
9.8527028e-06
-2.4699701e-07
7.2020511e-08
9.9946445e-06
-1.963185e-07
5.4439815e-08
1.0097195e-05
-1.3394196e-07
3.1466343e-08
1.0169056e-05
-7.5983569e-08
4.2082033e-09
1.0242951e-05
-2.8195847e-08
-4.5596008e-08
1.0342863e-05
1.206078e-08
-1.1183515e-07
1.0475275e-05
7.5786497e-08
-2.0802939e-07
1.0663209e-05
1.5831766e-07
-3.4606129e-07
1.0901586e-05
3.0294228e-07
-5.4111958e-07
1.1160865e-05
5.4757172e-07
-8.0666594e-07
1.1384134e-05
9.2461803e-07
-1.1477537e-06
1.1577068e-05
1.3734341e-06
-1.5663609e-06
1.1720105e-05
1.8745925e-06
-2.0178233e-06
1.1814067e-05
2.3580757e-06
-2.4524836e-06
1.1856344e-05
2.7815804e-06
-2.824558e-06
1.1841777e-05
3.1254138e-06
-3.1117673e-06
1.1777858e-05
3.3783761e-06
-3.3155602e-06
1.1691269e-05
3.533642e-06
-3.4483243e-06
1.1617135e-05
3.5966198e-06
-3.5239289e-06
1.1582716e-05
3.5857834e-06
-3.5529926e-06
1.1600205e-05
3.5229458e-06
-3.5422528e-06
1.1665032e-05
3.4278029e-06
-3.4946275e-06
1.1755229e-05
3.3168671e-06
-3.4092001e-06
1.1824879e-05
3.2077757e-06
-3.27964e-06
1.1782718e-05
3.1300778e-06
-3.0901297e-06
1.1445889e-05
3.144641e-06
-2.8099175e-06
1.0447439e-05
3.3861381e-06
-2.3894958e-06
4.1799995e-06
-1.7666187e-06
9.1151481e-06
-2.2437538e-07
7.9353379e-08
9.0838087e-06
-3.3650236e-07
1.0301457e-07
9.0836783e-06
-3.5561645e-07
1.0875369e-07
9.1285221e-06
-3.5101121e-07
1.098563e-07
9.217076e-06
-3.2837962e-07
1.0589678e-07
9.3436557e-06
-2.9742193e-07
9.4879552e-08
9.5113409e-06
-2.7054686e-07
7.469578e-08
9.7348445e-06
-2.5404143e-07
4.2572722e-08
1.0038173e-05
-2.2459768e-07
-3.0664067e-09
1.0453243e-05
-1.6505663e-07
-9.1923384e-08
1.1001853e-05
-2.4566017e-08
-2.2132843e-07
1.1669447e-05
2.9111311e-07
-4.110712e-07
1.2361126e-05
9.1148965e-07
-6.7807526e-07
1.2967915e-05
1.7736355e-06
-1.0061982e-06
1.343477e-05
2.7532744e-06
-1.3446469e-06
1.3725998e-05
3.6895707e-06
-1.6219085e-06
1.3827693e-05
4.4786387e-06
-1.7980873e-06
1.3760492e-05
5.0894537e-06
-1.8963425e-06
1.3578859e-05
5.5251933e-06
-1.9648847e-06
1.3357886e-05
5.7953146e-06
-2.0406379e-06
1.3161647e-05
5.9153654e-06
-2.1227255e-06
1.3021836e-05
5.9153945e-06
-2.1903666e-06
1.2945367e-05
5.8255825e-06
-2.227202e-06
1.2920143e-05
5.6710167e-06
-2.2196916e-06
1.2919872e-05
5.4664189e-06
-2.1519101e-06
1.2897951e-05
5.2272835e-06
-2.0014043e-06
1.2763528e-05
4.9934008e-06
-1.7340895e-06
1.2346133e-05
4.8549774e-06
-1.2993486e-06
1.1377431e-05
4.9964856e-06
-6.4833468e-07
5.6345743e-06
2.83589e-07
9.1715943e-06
-2.0839056e-07
8.1381252e-08
9.0049342e-06
-2.769338e-07
1.0709098e-07
8.8236158e-06
-2.9014825e-07
1.1584986e-07
8.6402481e-06
-2.8959288e-07
1.2194935e-07
8.4671866e-06
-2.8184237e-07
1.2652484e-07
8.3098315e-06
-2.6923927e-07
1.291746e-07
8.1656732e-06
-2.5710017e-07
1.3071554e-07
8.0297191e-06
-2.513786e-07
1.332967e-07
7.9187822e-06
-2.541735e-07
1.4051804e-07
7.8735952e-06
-2.7209131e-07
1.5222781e-07
8.0058521e-06
-3.1699601e-07
1.6018579e-07
8.471636e-06
-3.1674619e-07
1.4207409e-07
9.3106502e-06
-4.4274494e-09
7.7271756e-08
1.0437698e-05
6.7041195e-07
-2.2850554e-08
1.1461755e-05
1.811608e-06
-8.0951542e-08
1.2266193e-05
2.9306575e-06
-4.3902278e-08
1.2784089e-05
3.7743554e-06
1.8808574e-07
1.3007087e-05
4.3493118e-06
5.1872124e-07
1.3023438e-05
4.7279958e-06
7.8219213e-07
1.2939822e-05
4.9503303e-06
9.2965387e-07
1.2850924e-05
5.0380787e-06
9.6690927e-07
1.2788466e-05
5.0025128e-06
9.7570476e-07
1.275263e-05
4.8688467e-06
9.9252254e-07
1.2716602e-05
4.6642866e-06
1.0422121e-06
1.2653489e-05
4.4161031e-06
1.1122734e-06
1.2540836e-05
4.1492126e-06
1.1888446e-06
1.2333224e-05
3.8934942e-06
1.3048202e-06
1.1968855e-05
3.7233234e-06
1.4925487e-06
1.1323947e-05
3.8173061e-06
1.8202224e-06
4.5500072e-06
2.3897607e-06
8.9810634e-06
7.9498218e-08
8.6001324e-06
1.0399667e-07
8.198347e-06
1.1163684e-07
7.7926763e-06
1.1607728e-07
7.3920499e-06
1.1878375e-07
7.0030237e-06
1.1978672e-07
6.6255498e-06
1.2037399e-07
6.2511323e-06
1.2303957e-07
5.8649641e-06
1.3199684e-07
5.4391549e-06
1.5372184e-07
4.9212436e-06
2.0092471e-07
4.306298e-06
2.9822871e-07
3.8255828e-06
4.7644997e-07
3.7544454e-06
7.4258634e-07
4.4194644e-06
1.149087e-06
5.5695214e-06
1.7836246e-06
6.6822022e-06
2.6645685e-06
7.5892139e-06
3.4448543e-06
8.2939737e-06
4.0253887e-06
8.8680825e-06
4.3779506e-06
9.3599432e-06
4.5475181e-06
9.7948697e-06
4.5684629e-06
1.0158231e-05
4.5059369e-06
1.042776e-05
4.3947525e-06
1.0584096e-05
4.2592529e-06
1.0619524e-05
4.1127048e-06
1.0557093e-05
3.954251e-06
1.0476603e-05
3.8015721e-06
1.0645392e-05
3.6458866e-06
3.4158165e-06
9.6076975e-06
-2.9844536e-07
3.2139776e-08
9.9060486e-06
-2.6570974e-07
4.9999776e-08
1.0185663e-05
-2.601712e-07
5.261733e-08
1.0419561e-05
-2.2677075e-07
4.7366235e-08
1.0600815e-05
-1.8622721e-07
3.6505188e-08
1.0741356e-05
-1.5506931e-07
1.8815332e-08
1.0844641e-05
-1.4104996e-07
-7.7348196e-09
1.0918844e-05
-1.4758089e-07
-3.8353352e-08
1.0973231e-05
-1.8022088e-07
-8.2099081e-08
1.1014921e-05
-2.4464276e-07
-1.4303563e-07
1.1051164e-05
-3.5033667e-07
-2.2700635e-07
1.1089642e-05
-5.0534555e-07
-3.3989067e-07
1.1141977e-05
-7.1514968e-07
-4.8523188e-07
1.1280661e-05
-1.0368155e-06
-6.6888187e-07
1.1520768e-05
-1.3878577e-06
-8.7117605e-07
1.184655e-05
-1.7116959e-06
-1.0680848e-06
1.2185129e-05
-1.9131466e-06
-1.2517671e-06
1.2452437e-05
-1.9467345e-06
-1.4342335e-06
1.2608784e-05
-1.8522502e-06
-1.6216285e-06
1.266681e-05
-1.707363e-06
-1.8011038e-06
1.2675008e-05
-1.5744279e-06
-1.9600471e-06
1.2680553e-05
-1.4699092e-06
-2.0912727e-06
1.2713204e-05
-1.3897918e-06
-2.1880703e-06
1.2782154e-05
-1.3233877e-06
-2.2433998e-06
1.2884533e-05
-1.2640833e-06
-2.2508053e-06
1.3011975e-05
-1.2039304e-06
-2.2063611e-06
1.3140026e-05
-1.1160612e-06
-2.1050371e-06
1.3193875e-05
-9.3089342e-07
-1.9352169e-06
1.3030564e-05
-5.245893e-07
-1.7027163e-06
7.0982648e-07
-1.3981545e-06
9.2401996e-06
-2.2586287e-07
3.554047e-08
9.3563084e-06
-3.404702e-07
6.1667149e-08
9.4974542e-06
-3.647348e-07
7.2174734e-08
9.6771428e-06
-3.7044841e-07
7.3852007e-08
9.8917126e-06
-3.6438929e-07
6.9501214e-08
1.0129379e-05
-3.5600677e-07
5.8170488e-08
1.0381803e-05
-3.5656199e-07
3.7814801e-08
1.0646077e-05
-3.7572357e-07
6.4837556e-09
1.0928507e-05
-4.2319056e-07
-4.2479678e-08
1.1221451e-05
-5.1621517e-07
-1.1325317e-07
1.1536299e-05
-6.7244728e-07
-2.140457e-07
1.1886102e-05
-9.1286123e-07
-3.5338611e-07
1.2292835e-05
-1.2634165e-06
-5.3665953e-07
1.2754512e-05
-1.749163e-06
-7.5577976e-07
1.3294135e-05
-2.290895e-06
-9.8160626e-07
1.3842159e-05
-2.7037409e-06
-1.1782239e-06
1.4281218e-05
-2.7943468e-06
-1.3560885e-06
1.4531714e-05
-2.546654e-06
-1.5467859e-06
1.4587947e-05
-2.1196219e-06
-1.7533691e-06
1.4507442e-05
-1.7028054e-06
-1.9641301e-06
1.4381721e-05
-1.4104356e-06
-2.160274e-06
1.4254091e-05
-1.2025549e-06
-2.3292112e-06
1.4143655e-05
-1.0545626e-06
-2.4509529e-06
1.4051518e-05
-9.4922878e-07
-2.5005821e-06
1.3993504e-05
-9.039597e-07
-2.453055e-06
1.4025158e-05
-9.3573714e-07
-2.3009629e-06
1.4253645e-05
-1.0294937e-06
-2.0502308e-06
1.4898953e-05
-1.1850155e-06
-1.6938242e-06
1.6497112e-05
-1.4583844e-06
-1.3193041e-06
-1.5874881e-06
-1.235288e-06
9.2990178e-06
-2.1076076e-07
3.6221652e-08
9.2827416e-06
-2.8061792e-07
6.3514436e-08
9.2534159e-06
-2.9565132e-07
7.6091581e-08
9.2235412e-06
-2.9922916e-07
8.0604842e-08
9.2036625e-06
-2.9809981e-07
8.0114589e-08
9.1970653e-06
-2.9449496e-07
7.4261794e-08
9.2032914e-06
-2.9407953e-07
6.2010728e-08
9.2217753e-06
-3.0355659e-07
4.26525e-08
9.2527312e-06
-3.303695e-07
1.6751136e-08
9.3008635e-06
-3.8779318e-07
-2.4312476e-08
9.3792894e-06
-4.9994948e-07
-9.0720361e-08
9.5012114e-06
-7.0312723e-07
-1.8956091e-07
9.6879599e-06
-1.0409247e-06
-3.3194902e-07
9.9643453e-06
-1.5391558e-06
-5.0918636e-07
1.0349984e-05
-2.090735e-06
-6.6648188e-07
1.0765217e-05
-2.4384869e-06
-7.2352998e-07
1.1128231e-05
-2.3168279e-06
-6.5104199e-07
1.1400014e-05
-1.8097287e-06
-4.8811417e-07
1.1524318e-05
-1.1388825e-06
-3.2088295e-07
1.1532655e-05
-4.936423e-07
-2.860692e-07
1.1487251e-05
-3.4080143e-08
-3.6262186e-07
1.1476781e-05
1.8354151e-07
-3.9959932e-07
1.151945e-05
2.4845633e-07
-3.5472819e-07
1.156551e-05
2.2262183e-07
-1.796736e-07
1.1599082e-05
1.2071481e-07
4.8329085e-08
1.1588077e-05
-4.3825108e-08
3.0097736e-07
1.1548291e-05
-2.6198101e-07
5.6855812e-07
1.1598154e-05
-5.907595e-07
8.3826678e-07
1.1962618e-05
-8.8958061e-07
8.7568703e-07
-1.1286636e-06
4.1101172e-07
9.1024834e-06
3.5206214e-08
8.8645462e-06
6.1315494e-08
8.6075269e-06
7.3004343e-08
8.3476232e-06
7.6751409e-08
8.0928018e-06
7.5505037e-08
7.8491064e-06
6.8986842e-08
7.6190141e-06
5.638686e-08
7.4011171e-06
3.7380599e-08
7.1897583e-06
1.2987744e-08
6.9802676e-06
-2.4577572e-08
6.7583788e-06
-7.713014e-08
6.4991863e-06
-1.456939e-07
6.1812141e-06
-2.4646118e-07
5.793873e-06
-4.0899796e-07
5.4437382e-06
-5.905569e-07
5.2951311e-06
-5.0380747e-07
5.4229938e-06
2.2309782e-07
5.6902549e-06
1.3711515e-06
5.8850844e-06
2.6943446e-06
6.1910101e-06
3.5802267e-06
6.6254614e-06
4.0799897e-06
7.0867224e-06
4.2913327e-06
7.500954e-06
4.3401762e-06
7.8277136e-06
4.2902197e-06
8.0459807e-06
4.1605943e-06
8.1740135e-06
3.9385579e-06
8.2725106e-06
3.5906836e-06
8.3625324e-06
3.1171144e-06
8.8237329e-06
2.2910237e-06
7.4866895e-07
9.5849801e-06
-3.0028614e-07
1.6437393e-08
9.8741206e-06
-2.6618431e-07
2.7073448e-08
1.0152859e-05
-2.5705706e-07
3.0982898e-08
1.0389206e-05
-2.1917693e-07
3.0258113e-08
1.0573281e-05
-1.7404066e-07
2.6546474e-08
1.0710038e-05
-1.3833205e-07
2.0479827e-08
1.0806219e-05
-1.1603768e-07
1.2223804e-08
1.0873492e-05
-1.063333e-07
8.2533815e-10
1.0914345e-05
-1.1176968e-07
-1.1055376e-08
1.093375e-05
-1.3649381e-07
-2.5835403e-08
1.0936071e-05
-1.8729499e-07
-4.1982576e-08
1.0927166e-05
-2.7439637e-07
-5.6683662e-08
1.0919624e-05
-4.1460737e-07
-6.3478765e-08
1.0999717e-05
-6.9503243e-07
-5.497205e-08
1.1186014e-05
-1.0410373e-06
-1.8490722e-08
1.1432841e-05
-1.3934094e-06
7.5403167e-08
1.1660385e-05
-1.6751607e-06
1.9196557e-07
1.1828762e-05
-1.8840733e-06
2.7715583e-07
1.1927727e-05
-2.0445458e-06
3.1940666e-07
1.1971982e-05
-2.174065e-06
3.2391848e-07
1.1991207e-05
-2.2875609e-06
3.0331856e-07
1.2015162e-05
-2.3901239e-06
2.7001385e-07
1.2059665e-05
-2.4726708e-06
2.3574275e-07
1.2120411e-05
-2.5215792e-06
2.1403745e-07
1.2182243e-05
-2.5322065e-06
2.1736892e-07
1.224153e-05
-2.5158029e-06
2.4927073e-07
1.2334344e-05
-2.4897058e-06
2.9231596e-07
1.2532545e-05
-2.4276076e-06
2.9605157e-07
1.27876e-05
-2.0869067e-06
1.3253894e-07
-9.4027332e-07
-4.0889848e-07
9.2122402e-06
-2.256877e-07
1.7670999e-08
9.315779e-06
-3.3956913e-07
3.1514264e-08
9.454573e-06
-3.6173132e-07
3.8058348e-08
9.6348528e-06
-3.6387813e-07
3.8279739e-08
9.8497119e-06
-3.5273504e-07
3.3347117e-08
1.0084058e-05
-3.3748222e-07
2.2991369e-08
1.032779e-05
-3.2766356e-07
5.7325383e-09
1.0576478e-05
-3.2979026e-07
-1.871457e-08
1.0827232e-05
-3.510799e-07
-5.3882874e-08
1.1080829e-05
-4.0134381e-07
-1.0196393e-07
1.1342085e-05
-4.9746323e-07
-1.651238e-07
1.1625532e-05
-6.69264e-07
-2.4202956e-07
1.1962777e-05
-9.661141e-07
-3.2262175e-07
1.2349323e-05
-1.4577948e-06
-3.80084e-07
1.2771468e-05
-2.0660776e-06
-3.795792e-07
1.3085009e-05
-2.5178632e-06
-3.6816156e-07
1.318731e-05
-2.699879e-06
-4.3411786e-07
1.3110204e-05
-2.7468599e-06
-6.0677266e-07
1.2904754e-05
-2.7247377e-06
-8.6709982e-07
1.2617869e-05
-2.6788674e-06
-1.1713552e-06
1.2295983e-05
-2.654788e-06
-1.4695068e-06
1.1972282e-05
-2.6712393e-06
-1.7219692e-06
1.165363e-05
-2.7009231e-06
-1.9007667e-06
1.1332851e-05
-2.7150901e-06
-1.9824243e-06
1.0997676e-05
-2.7020463e-06
-1.9443458e-06
1.0659783e-05
-2.7108731e-06
-1.765689e-06
1.0458459e-05
-2.8424211e-06
-1.4971164e-06
1.0829166e-05
-3.1689202e-06
-1.3296219e-06
1.2451821e-05
-3.5089181e-06
-1.5342719e-06
-3.3101792e-06
-2.1711748e-06
9.2720509e-06
-2.1043683e-07
1.7880246e-08
9.2439254e-06
-2.7996152e-07
3.2031724e-08
9.2129324e-06
-2.9392418e-07
3.9277094e-08
9.1853172e-06
-2.959414e-07
4.0283103e-08
9.1695179e-06
-2.9271123e-07
3.5890398e-08
9.1669296e-06
-2.8613369e-07
2.5502801e-08
9.1750645e-06
-2.8109382e-07
7.3084957e-09
9.1907308e-06
-2.8268638e-07
-2.0113213e-08
9.2136881e-06
-2.9651233e-07
-6.0766899e-08
9.2399801e-06
-3.3242484e-07
-1.1951375e-07
9.2635612e-06
-4.098934e-07
-2.018611e-07
9.2813835e-06
-5.6470528e-07
-3.1193604e-07
9.2978522e-06
-8.6785148e-07
-4.4669085e-07
9.3446589e-06
-1.4385796e-06
-5.7524095e-07
9.3628238e-06
-2.1427185e-06
-6.0761106e-07
9.1491574e-06
-2.4468677e-06
-5.7870418e-07
8.697357e-06
-2.2613984e-06
-6.3377434e-07
8.265341e-06
-2.0143366e-06
-7.8364887e-07
7.8709092e-06
-1.6360946e-06
-1.0098784e-06
7.4483724e-06
-1.2523922e-06
-1.2845133e-06
6.978681e-06
-1.0017437e-06
-1.5396447e-06
6.519212e-06
-9.0970378e-07
-1.6942989e-06
6.1059358e-06
-9.4570705e-07
-1.6889156e-06
5.802751e-06
-1.0713196e-06
-1.5134012e-06
5.6115547e-06
-1.2698443e-06
-1.1884079e-06
5.4850088e-06
-1.5399673e-06
-7.424648e-07
5.4763043e-06
-1.9288056e-06
-3.4030269e-07
5.9872441e-06
-2.4719268e-06
-3.7873695e-07
7.3326038e-06
-3.0510737e-06
-9.4256338e-07
-2.8307961e-06
-2.3127929e-06
9.0762679e-06
1.7453581e-08
8.8265399e-06
3.1081547e-08
8.5677591e-06
3.7860534e-08
8.310123e-06
3.8445705e-08
8.0592958e-06
3.3620651e-08
7.8194307e-06
2.2717871e-08
7.5913588e-06
3.3649067e-09
7.3710954e-06
-2.5042124e-08
7.1563053e-06
-6.8733505e-08
6.9340262e-06
-1.3472131e-07
6.6811093e-06
-2.3410318e-07
6.3578872e-06
-3.8717144e-07
5.8797405e-06
-6.3615787e-07
5.0849774e-06
-1.0527578e-06
3.9404105e-06
-1.5867616e-06
2.8874497e-06
-1.8894934e-06
2.5631139e-06
-1.7036309e-06
2.7068029e-06
-7.7687325e-07
3.0548829e-06
7.164574e-07
3.4052106e-06
1.9805512e-06
3.8328113e-06
2.6512332e-06
4.2676683e-06
2.9457653e-06
4.6511594e-06
3.0087105e-06
4.9061536e-06
2.9605204e-06
4.9664551e-06
2.8257919e-06
4.7899331e-06
2.5689124e-06
4.4412252e-06
2.002966e-06
4.1605344e-06
9.1702341e-07
4.4078206e-06
-1.0153268e-06
-3.3401425e-06
9.5794496e-06
-3.0050836e-07
6.4874443e-09
9.8611503e-06
-2.6569059e-07
1.109225e-08
1.0133952e-05
-2.5482136e-07
1.3046954e-08
1.0365491e-05
-2.1402424e-07
1.2798849e-08
1.0545306e-05
-1.6408793e-07
1.0884407e-08
1.0678966e-05
-1.2067541e-07
7.5638787e-09
1.0775085e-05
-8.674377e-08
2.9203879e-09
1.0840488e-05
-6.1132664e-08
-3.3811196e-09
1.0883241e-05
-4.2623514e-08
-1.1127713e-08
1.0910367e-05
-3.2587471e-08
-2.0326803e-08
1.0933761e-05
-3.528551e-08
-3.0075912e-08
1.0975449e-05
-6.1517997e-08
-3.6950976e-08
1.1076948e-05
-1.3423606e-07
-3.1127116e-08
1.1332313e-05
-3.1990065e-07
8.521866e-09
1.1683878e-05
-4.5156729e-07
7.9730492e-08
1.199745e-05
-4.2244421e-07
1.8184398e-07
1.2206807e-05
-3.0628621e-07
2.8584414e-07
1.2324846e-05
-2.3222079e-07
3.8753604e-07
1.2397924e-05
-2.5182475e-07
4.9335548e-07
1.2462112e-05
-3.5179483e-07
6.0522099e-07
1.2539515e-05
-5.0596188e-07
7.236793e-07
1.2635964e-05
-6.8713722e-07
8.5079287e-07
1.2742461e-05
-8.7163365e-07
9.9002838e-07
1.2839747e-05
-1.0383772e-06
1.1445511e-06
1.2915243e-05
-1.1780826e-06
1.31087e-06
1.2956034e-05
-1.2649975e-06
1.4662984e-06
1.2909567e-05
-1.2189819e-06
1.5516826e-06
1.2542772e-05
-8.2749935e-07
1.4848238e-06
1.1363348e-05
1.2258497e-07
1.191587e-06
2.6234667e-06
5.3217387e-07
9.2048428e-06
-2.2550266e-07
6.7916255e-09
9.2971152e-06
-3.3898749e-07
1.2539852e-08
9.4252361e-06
-3.6008945e-07
1.5208555e-08
9.5950562e-06
-3.6013022e-07
1.4571044e-08
9.7986094e-06
-3.4513638e-07
1.0851044e-08
1.0020203e-05
-3.2332482e-07
4.0601908e-09
1.0249266e-05
-3.0299915e-07
-7.0571829e-09
1.0481066e-05
-2.889366e-07
-2.2687486e-08
1.0714322e-05
-2.8583019e-07
-4.3904873e-08
1.0953821e-05
-3.0246786e-07
-7.1552992e-08
1.1215845e-05
-3.5783727e-07
-1.0458116e-07
1.1539999e-05
-4.9119273e-07
-1.3655969e-07
1.2003436e-05
-7.7245521e-07
-1.4807137e-07
1.2640816e-05
-1.2441669e-06
-9.3812829e-08
1.3299684e-05
-1.5161683e-06
2.5328868e-08
1.3743361e-05
-1.3426475e-06
1.077697e-07
1.3945686e-05
-1.0509376e-06
1.0783262e-07
1.3969127e-05
-9.198969e-07
5.7303432e-08
1.3860179e-05
-9.6710665e-07
-4.2974966e-08
1.3655124e-05
-1.1210406e-06
-1.970966e-07
1.3382457e-05
-1.3222429e-06
-3.8014635e-07
1.3049019e-05
-1.5175895e-06
-5.563624e-07
1.2646349e-05
-1.6904052e-06
-6.7570506e-07
1.2160353e-05
-1.8327298e-06
-6.9698958e-07
1.1616045e-05
-1.9701571e-06
-6.027186e-07
1.1147415e-05
-2.1212907e-06
-4.3643857e-07
1.1063078e-05
-2.259662e-06
-3.6674711e-07
1.146816e-05
-1.9415508e-06
-6.1270083e-07
1.1981846e-05
-7.0839343e-07
-1.2250479e-06
1.3777303e-06
-1.8954741e-06
9.2649911e-06
-2.1042308e-07
6.7698466e-09
9.2254954e-06
-2.7997107e-07
1.2510504e-08
9.1830327e-06
-2.9359506e-07
1.5245029e-08
9.1433814e-06
-2.9475365e-07
1.4557626e-08
9.1137026e-06
-2.8996537e-07
1.0398212e-08
9.0940462e-06
-2.8073837e-07
2.5735698e-09
9.0813569e-06
-2.7158873e-07
-1.1411102e-08
9.0713488e-06
-2.6718379e-07
-3.1854778e-08
9.0590281e-06
-2.7270898e-07
-6.1562297e-08
9.0397077e-06
-2.9884187e-07
-1.0381154e-07
9.0110712e-06
-3.6902373e-07
-1.6202862e-07
8.9828928e-06
-5.3821827e-07
-2.367257e-07
9.0138722e-06
-9.3649077e-07
-3.136503e-07
9.2593318e-06
-1.7442942e-06
-3.2062632e-07
9.3795104e-06
-2.1104275e-06
-1.319107e-07
9.0387715e-06
-1.524635e-06
-5.2139366e-08
8.3231085e-06
-8.3897348e-07
-1.2521527e-07
7.5121082e-06
-5.8214551e-07
-3.0452306e-07
6.7464213e-06
-6.2631446e-07
-5.7859659e-07
6.0395192e-06
-7.8416414e-07
-9.0702997e-07
5.347419e-06
-9.3715293e-07
-1.2231278e-06
4.6435016e-06
-1.0804654e-06
-1.4158452e-06
3.9547601e-06
-1.288151e-06
-1.3899192e-06
3.2782812e-06
-1.5090823e-06
-1.148611e-06
2.662155e-06
-1.7780987e-06
-7.5569603e-07
2.4157618e-06
-2.1383442e-06
-4.7895323e-07
3.0020558e-06
-2.6895724e-06
-4.9976835e-07
4.4506864e-06
-2.5889516e-06
-1.178797e-06
6.0922826e-06
-8.8538397e-07
-2.4010528e-06
7.982737e-07
-3.3601894e-06
9.0694229e-06
6.5596632e-09
8.8085257e-06
1.2007255e-08
8.5383641e-06
1.4426626e-08
8.2686836e-06
1.3372122e-08
8.0036055e-06
8.7329882e-09
7.7451085e-06
4.7617386e-10
7.4924962e-06
-1.56117e-08
7.2393984e-06
-3.9128068e-08
6.9732938e-06
-7.5337371e-08
6.6716255e-06
-1.3189349e-07
6.2913795e-06
-2.2287807e-07
5.7415718e-06
-3.7557779e-07
4.8169753e-06
-6.480686e-07
3.1432905e-06
-1.1235728e-06
1.0094384e-06
-1.5563318e-06
-9.4685017e-07
-1.43875e-06
-2.1659674e-06
-1.3144566e-06
-2.4131026e-06
-1.1012406e-06
-1.7809679e-06
-5.2887248e-07
-8.7190364e-07
2.9038349e-07
-2.9853345e-08
8.7089673e-07
6.2561298e-07
1.2076018e-06
1.0117274e-06
1.3301875e-06
1.1060141e-06
1.3506847e-06
8.6865537e-07
1.2755046e-06
3.2209775e-07
9.6120611e-07
-2.9200965e-07
-9.1492503e-08
-5.543152e-07
-1.4121633e-06
8.7501502e-07
-3.3238019e-06
-4.5044766e-06
9.5764486e-06
-3.0096936e-07
1.7963833e-13
9.8541663e-06
-2.6638289e-07
-2.1287572e-10
1.0123412e-05
-2.5557419e-07
-5.7931785e-10
1.0351987e-05
-2.1463313e-07
-1.0857384e-09
1.0529057e-05
-1.6436667e-07
-1.750093e-09
1.0659836e-05
-1.2051153e-07
-2.629948e-09
1.0752664e-05
-8.6004914e-08
-3.8300279e-09
1.0814795e-05
-5.9959068e-08
-5.4737692e-09
1.0853455e-05
-4.2155763e-08
-7.5387272e-09
1.08782e-05
-3.500507e-08
-9.956251e-09
1.0906087e-05
-4.5768212e-08
-1.2068826e-08
1.0971796e-05
-9.1846537e-08
-1.0716493e-08
1.1141581e-05
-2.0081251e-07
-1.6798472e-10
1.151806e-05
-4.0541893e-07
3.6774955e-08
1.1913684e-05
-4.0473064e-07
8.7599749e-08
1.2199993e-05
-2.4125121e-07
1.3520327e-07
1.2372791e-05
-6.992182e-08
1.8103833e-07
1.2469136e-05
5.4826438e-08
2.3452458e-07
1.252589e-05
1.3277608e-07
3.0194693e-07
1.2582895e-05
1.5824115e-07
3.8786947e-07
1.2674105e-05
1.3824508e-07
4.9168622e-07
1.2820243e-05
9.315196e-08
6.0840503e-07
1.3025032e-05
5.393046e-08
7.2772932e-07
1.3259294e-05
7.468863e-08
8.3191963e-07
1.3454637e-05
2.123113e-07
9.0006577e-07
1.3485563e-05
5.1749768e-07
9.158758e-07
1.317246e-05
9.9426283e-07
8.6996057e-07
1.223034e-05
1.6799464e-06
7.4784884e-07
1.0168982e-05
2.7161386e-06
5.3901631e-07
4.5564845e-06
2.9820439e-07
9.2005745e-06
-2.2564378e-07
-1.3925631e-10
9.2867269e-06
-3.3930146e-07
-6.9293663e-10
9.4084709e-06
-3.6044033e-07
-1.6665116e-09
9.5718685e-06
-3.6036854e-07
-3.0865366e-09
9.7684519e-06
-3.450845e-07
-5.007888e-09
9.9823231e-06
-3.2278189e-07
-7.5318443e-09
1.0201794e-05
-3.0168764e-07
-1.0832256e-08
1.0421386e-05
-2.87266e-07
-1.4953497e-08
1.0640554e-05
-2.8554478e-07
-1.9657003e-08
1.0867529e-05
-3.0876628e-07
-2.4727343e-08
1.1128763e-05
-3.8420007e-07
-2.7335823e-08
1.1487187e-05
-5.6823143e-07
-1.8568852e-08
1.2071239e-05
-9.4219114e-07
9.1488662e-09
1.2865065e-05
-1.3915762e-06
9.8047174e-08
1.3471084e-05
-1.1543735e-06
1.685583e-07
1.3887451e-05
-7.4587303e-07
1.9569774e-07
1.4161618e-05
-4.4619742e-07
2.095977e-07
1.4342688e-05
-3.0215634e-07
2.315305e-07
1.4417579e-05
-2.4722163e-07
2.5979673e-07
1.441151e-05
-3.3037866e-07
2.9645343e-07
1.4361876e-05
-5.2303869e-07
3.3416709e-07
1.42834e-05
-7.3525503e-07
3.6206398e-07
1.4201299e-05
-8.9616119e-07
3.7463915e-07
1.4191536e-05
-9.6608653e-07
3.6781697e-07
1.4342307e-05
-8.8029611e-07
3.3556151e-07
1.4545119e-05
-4.4424206e-07
2.9269078e-07
1.4411466e-05
4.7084746e-07
2.3579358e-07
1.3501268e-05
1.8238457e-06
8.6000864e-08
1.1598881e-05
3.4966179e-06
-1.6479211e-07
5.5753541e-06
-5.1033881e-07
9.2607258e-06
-2.1046904e-07
-1.7036195e-10
9.2148208e-06
-2.8012133e-07
-7.6511554e-10
9.1652243e-06
-2.9376379e-07
-1.8355276e-09
9.117738e-06
-2.9485389e-07
-3.4710413e-09
9.078831e-06
-2.8996475e-07
-5.8146679e-09
9.0484074e-06
-2.8067987e-07
-9.1047738e-09
9.0204091e-06
-2.7132529e-07
-1.3774565e-08
8.9887498e-06
-2.6730472e-07
-2.0155079e-08
8.9459794e-06
-2.7551855e-07
-2.8815252e-08
8.8851297e-06
-3.1069684e-07
-4.1025975e-08
8.8033417e-06
-4.0803985e-07
-5.6391959e-08
8.7214423e-06
-6.5708961e-07
-6.5955843e-08
8.7754882e-06
-1.2747136e-06
-3.5199146e-08
9.2983173e-06
-2.3131094e-06
7.7707171e-08
9.1358494e-06
-1.3066898e-06
1.84896e-07
8.7914633e-06
-6.1653465e-07
1.659431e-07
8.3679407e-06
-2.6018238e-07
1.1600344e-07
7.7611278e-06
-5.0769247e-08
5.5368909e-08
7.0012542e-06
-6.1424009e-08
8.8558778e-10
6.0598368e-06
-2.3158624e-07
-5.7539955e-08
4.9809699e-06
-5.2600769e-07
-1.3254348e-07
3.9097e-06
-8.8257216e-07
-1.8649226e-07
3.0401671e-06
-1.2185192e-06
-1.8677088e-07
2.6232468e-06
-1.5006503e-06
-1.8478988e-07
3.0314374e-06
-1.7223367e-06
-3.0520046e-07
4.4135146e-06
-1.7036211e-06
-5.7855331e-07
6.1825215e-06
-8.9221489e-07
-8.8073177e-07
7.3928848e-06
5.627045e-07
-1.122174e-06
7.5047612e-06
2.3628535e-06
-1.389629e-06
4.2808206e-06
-1.5927456e-06
9.0652129e-06
-1.7014897e-10
8.7978487e-06
-7.5036216e-10
8.5203232e-06
-1.8120202e-09
8.2423155e-06
-3.4745368e-09
7.9670199e-06
-5.9365456e-09
7.6963525e-06
-9.5367318e-09
7.424459e-06
-1.5043802e-08
7.141151e-06
-2.3125083e-08
6.8263074e-06
-3.6012402e-08
6.4420058e-06
-5.8288446e-08
5.9098779e-06
-9.8789078e-08
5.0528628e-06
-1.7565641e-07
3.4478944e-06
-3.1802575e-07
3.4308051e-07
-3.3510303e-07
-2.312115e-06
-1.8942655e-07
-4.1470029e-06
-2.1270544e-07
-5.3622916e-06
-3.5139952e-07
-5.9861642e-06
-5.1905551e-07
-5.9393484e-06
-6.2643747e-07
-5.2468136e-06
-6.2100054e-07
-4.364936e-06
-5.2600772e-07
-3.5696574e-06
-4.619981e-07
-2.9651748e-06
-4.8709927e-07
-2.529921e-06
-5.8171002e-07
-2.2527659e-06
-7.212993e-07
-2.0661614e-06
-9.2132655e-07
-1.5337641e-06
-1.491643e-06
-2.7933313e-07
-2.0690815e-06
1.2744349e-06
-2.4780301e-06
-2.5009378e-06
9.5764423e-06
-3.0102995e-07
-6.4198718e-09
9.8540979e-06
-2.6650809e-07
-1.1330901e-08
1.0123165e-05
-2.5576522e-07
-1.383732e-08
1.0351364e-05
-2.1491251e-07
-1.431772e-08
1.0527715e-05
-1.6477526e-07
-1.3263353e-08
1.0657223e-05
-1.2117733e-07
-1.0894454e-08
1.0747997e-05
-8.7316929e-08
-7.2199308e-09
1.0807717e-05
-6.258134e-08
-2.5425591e-09
1.0844186e-05
-4.7237349e-08
3.3127233e-09
1.0869062e-05
-4.5986627e-08
1.1286492e-08
1.0908436e-05
-7.0796901e-08
1.9569008e-08
1.1018902e-05
-1.4590431e-07
2.5068491e-08
1.1282622e-05
-2.8168564e-07
1.827697e-08
1.1697714e-05
-3.6489777e-07
-1.3127304e-08
1.2081664e-05
-2.2827514e-07
-6.8192046e-08
1.2372752e-05
-2.6962663e-08
-1.2944186e-07
1.2596333e-05
1.5478152e-07
-1.9772889e-07
1.2778578e-05
3.3858256e-07
-2.8659692e-07
1.294629e-05
5.3474694e-07
-4.0068266e-07
1.3118286e-05
7.5008223e-07
-5.3422526e-07
1.3306066e-05
9.8858135e-07
-6.8450077e-07
1.350096e-05
1.2632895e-06
-8.4939706e-07
1.3672208e-05
1.5828488e-06
-1.0257956e-06
1.3775737e-05
1.9366142e-06
-1.2074494e-06
1.3754021e-05
2.3024754e-06
-1.3795798e-06
1.3505471e-05
2.6780222e-06
-1.5118584e-06
1.2842434e-05
3.0918148e-06
-1.5561818e-06
1.1474546e-05
3.5687405e-06
-1.4493864e-06
8.9057797e-06
4.1511275e-06
-1.0386061e-06
5.2708655e-06
-3.9766179e-07
9.2005436e-06
-2.256888e-07
-7.0548104e-09
9.2865742e-06
-3.3940409e-07
-1.3826488e-08
9.4080208e-06
-3.6062996e-07
-1.8245881e-08
9.570775e-06
-3.6070295e-07
-2.0046748e-08
9.7660705e-06
-3.4568644e-07
-1.9387723e-08
9.9774011e-06
-3.2394397e-07
-1.6090516e-08
1.0193096e-05
-3.0420016e-07
-9.6367104e-09
1.0408403e-05
-2.9262583e-07
-2.0447157e-10
1.0622056e-05
-2.9719295e-07
1.666252e-08
1.0847597e-05
-3.3538298e-07
3.9166007e-08
1.1128757e-05
-4.4648683e-07
6.7277164e-08
1.1577151e-05
-7.0541224e-07
9.2714818e-08
1.2345555e-05
-1.1411154e-06
1.0048911e-07
1.311581e-05
-1.1131444e-06
7.6049997e-08
1.3712968e-05
-7.0219629e-07
4.5106822e-08
1.4189117e-05
-3.5330646e-07
4.5548641e-08
1.4554947e-05
-8.6150235e-08
8.3693441e-08
1.4830021e-05
1.6144602e-07
1.3270833e-07
1.5041446e-05
3.8185617e-07
2.0181733e-07
1.5241429e-05
5.5965622e-07
2.9106647e-07
1.5467685e-05
7.1932562e-07
3.8739006e-07
1.5702209e-05
9.438316e-07
4.6433621e-07
1.5883681e-05
1.3050332e-06
4.9399635e-07
1.5952755e-05
1.7974397e-06
4.6360486e-07
1.5857554e-05
2.3736426e-06
3.8512546e-07
1.5477325e-05
3.0649445e-06
3.09914e-07
1.4528955e-05
3.914654e-06
3.8292128e-07
1.2720676e-05
4.8122081e-06
6.7047107e-07
9.7551025e-06
5.8443309e-06
1.1243266e-06
7.2155337e-06
1.793111e-06
9.2606763e-06
-2.104948e-07
-7.0802898e-09
9.2145956e-06
-2.8018023e-07
-1.3908861e-08
9.1645623e-06
-2.9387982e-07
-1.855286e-08
9.1161041e-06
-2.9507575e-07
-2.0640372e-08
9.0751387e-06
-2.9039744e-07
-2.0138746e-08
9.0403022e-06
-2.8157808e-07
-1.6634598e-08
9.0051802e-06
-2.7347907e-07
-9.3741576e-09
8.9624602e-06
-2.7199941e-07
1.9384304e-09
8.8991849e-06
-2.8702031e-07
2.4286707e-08
8.8053926e-06
-3.3954881e-07
5.6932319e-08
8.682471e-06
-4.846908e-07
1.0473749e-07
8.6216548e-06
-8.7455606e-07
1.6402089e-07
9.0755617e-06
-1.8236858e-06
1.9338773e-07
9.4504163e-06
-1.5932337e-06
1.8082558e-07
9.3657289e-06
-5.7338804e-07
1.391548e-07
9.2312981e-06
-2.2477442e-07
1.7135305e-07
8.98054e-06
4.7382632e-08
2.3251926e-07
8.6576555e-06
1.9476288e-07
3.4394229e-07
8.3547641e-06
1.8015929e-07
5.0507967e-07
8.0674477e-06
5.5681778e-08
7.3642162e-07
7.8109532e-06
-1.1820707e-07
9.6714309e-07
7.7795886e-06
-2.8108542e-07
1.0737641e-06
8.1982835e-06
-3.1331043e-07
1.0085471e-06
9.0076649e-06
-3.740337e-08
8.2718504e-07
1.0071008e-05
3.8893911e-07
6.0666803e-07
1.0985195e-05
1.1099124e-06
4.5876661e-07
1.0904655e-05
2.3865831e-06
7.312002e-07
9.8404973e-06
3.4047021e-06
1.3585239e-06
7.5383408e-06
4.6962827e-06
2.0731048e-06
6.2887996e-06
2.7943541e-06
9.0651483e-06
-6.8611795e-09
8.7975749e-06
-1.3357561e-08
8.5195196e-06
-1.7636973e-08
8.2402908e-06
-1.9321937e-08
7.9622965e-06
-1.834007e-08
7.6854235e-06
-1.4242308e-08
7.4032491e-06
-6.3489471e-09
7.1002118e-06
7.9121573e-09
6.7428624e-06
3.4315793e-08
6.2669436e-06
7.8080163e-08
5.5295669e-06
1.5389535e-07
4.1900819e-06
2.8926636e-07
1.5011226e-06
5.466811e-07
-1.4697543e-06
1.0282363e-06
-3.4277133e-06
1.1904866e-06
-4.7732198e-06
9.0592228e-07
-5.7017235e-06
6.2348455e-07
-6.1537773e-06
1.2507101e-07
-6.0826836e-06
-5.2225852e-07
-5.6081839e-06
-1.0447323e-06
-4.9134278e-06
-1.3429238e-06
-4.1712982e-06
-1.4896142e-06
-3.4056149e-06
-1.5720449e-06
-2.3983809e-06
-1.6343106e-06
-1.0581417e-06
-1.6834434e-06
4.0073254e-07
-1.2721162e-06
1.339884e-06
-3.5859652e-08
1.3306361e-06
1.3603719e-06
1.0797717e-06
2.4996918e-06
3.3777416e-06
9.5794438e-06
-3.0066138e-07
-1.6209442e-08
9.861027e-06
-2.6595965e-07
-2.6924353e-08
1.0133541e-05
-2.5523537e-07
-3.1072179e-08
1.0364585e-05
-2.1461584e-07
-3.0691244e-08
1.0543672e-05
-1.6490317e-07
-2.7385761e-08
1.0676392e-05
-1.2179722e-07
-2.1750111e-08
1.0771469e-05
-8.8267474e-08
-1.3956811e-08
1.0835765e-05
-6.3365243e-08
-3.3898996e-09
1.0877141e-05
-4.7209354e-08
9.2706879e-09
1.0906067e-05
-4.1624062e-08
2.4160347e-08
1.093899e-05
-5.3728132e-08
4.0640657e-08
1.1009517e-05
-1.0003373e-07
5.4995832e-08
1.1175697e-05
-2.052877e-07
5.8070006e-08
1.1509613e-05
-3.8340603e-07
3.758934e-08
1.1868554e-05
-4.0112413e-07
-2.4371992e-08
1.2142204e-05
-2.5657169e-07
-1.4466178e-07
1.2306221e-05
-1.0370424e-07
-2.5596915e-07
1.2407983e-05
-4.2111719e-08
-3.4387769e-07
1.2478591e-05
-5.9170094e-08
-4.0923913e-07
1.2543931e-05
-1.3375373e-07
-4.6206434e-07
1.2624353e-05
-2.4656357e-07
-5.135211e-07
1.2719629e-05
-3.6687785e-07
-5.7214689e-07
1.2811572e-05
-4.6972999e-07
-6.4239994e-07
1.2883327e-05
-5.5220455e-07
-7.2224458e-07
1.2933122e-05
-6.219549e-07
-8.0357989e-07