/*--------------------------------*- C++ -*----------------------------------*\
| =========                 |                                                 |
| \\      /  F ield         | OpenFOAM: The Open Source CFD Toolbox           |
|  \\    /   O peration     | Version:  v2012                                 |
|   \\  /    A nd           | Website:  www.openfoam.com                      |
|    \\/     M anipulation  |                                                 |
\*---------------------------------------------------------------------------*/
FoamFile
{
    version     2.0;
    format      ascii;
    class       volVectorField;
    location    "430/topAir";
    object      U;
}
// * * * * * * * * * * * * * * * * * * * * * * * * * * * * * * * * * * * * * //

dimensions      [0 1 -1 0 0 0 0];


internalField   nonuniform List<vector> 
1200
(
(0.10434337 -0.0023961934 0.00087697919)
(0.11759486 -0.0024960572 0.0013159613)
(0.1289827 -0.0023019303 0.0013983005)
(0.13785864 -0.0017748295 0.0012652758)
(0.14560191 -0.00097621229 0.00093170053)
(0.15283203 -7.3576063e-05 0.00035778564)
(0.15979028 0.0008382533 -0.00048463876)
(0.16674622 0.0016859569 -0.0017332497)
(0.17387693 0.0025577654 -0.0036496769)
(0.1814709 0.0036271324 -0.0065369172)
(0.18969465 0.005218861 -0.010786309)
(0.19823917 0.0077111646 -0.016805534)
(0.20569267 0.011532788 -0.02486644)
(0.21056316 0.016179243 -0.034862292)
(0.21284782 0.021445222 -0.046120646)
(0.21319127 0.026542609 -0.057518279)
(0.21199879 0.030855861 -0.067839657)
(0.20952694 0.034136504 -0.076247245)
(0.20610323 0.036331627 -0.082459255)
(0.20227473 0.037451203 -0.08660673)
(0.19875113 0.037592441 -0.089020877)
(0.19617258 0.036977218 -0.09005788)
(0.194902 0.03586306 -0.09000811)
(0.1949735 0.034482982 -0.089065427)
(0.19612442 0.033039856 -0.087324231)
(0.19778817 0.03177126 -0.084753769)
(0.19891594 0.031093114 -0.081113839)
(0.19749991 0.031876097 -0.075816714)
(0.18999434 0.036111054 -0.067807172)
(0.14821636 0.049779273 -0.054902828)
(0.098694783 -0.0037989293 0.00085037612)
(0.098453257 -0.0046221831 0.0012831157)
(0.098824041 -0.0046920333 0.0014645619)
(0.099629537 -0.0042481398 0.0015473392)
(0.10096095 -0.0034774986 0.0015594458)
(0.10285069 -0.002622585 0.0014871743)
(0.10527699 -0.0018389814 0.00130754)
(0.10835533 -0.0012204005 0.00096665752)
(0.11257326 -0.00044846564 0.00034416765)
(0.11841241 0.000840851 -0.0007207384)
(0.12678305 0.0034673019 -0.0025366621)
(0.13797783 0.0084750155 -0.005486653)
(0.15174463 0.016762743 -0.010098925)
(0.16636629 0.027391137 -0.016553486)
(0.1799042 0.039618154 -0.024479631)
(0.19089371 0.051843107 -0.032887908)
(0.19847516 0.062963176 -0.040706186)
(0.20236807 0.0724253 -0.047314096)
(0.20295788 0.079754392 -0.052564434)
(0.20125856 0.084568572 -0.056532025)
(0.19859749 0.086854877 -0.059340966)
(0.19609308 0.087092399 -0.061056262)
(0.19435966 0.085923307 -0.061727409)
(0.19357005 0.083924591 -0.061408515)
(0.19360236 0.081499591 -0.060125171)
(0.19410493 0.079031345 -0.057765538)
(0.194357 0.077250981 -0.053888412)
(0.19295911 0.077728313 -0.047431324)
(0.18838515 0.083753192 -0.036199263)
(0.1591019 0.10011581 -0.01559503)
(0.098828798 -0.0028774692 0.0008771382)
(0.098004031 -0.0041685531 0.0013308197)
(0.096394962 -0.0045729218 0.0015329457)
(0.094361563 -0.0046593678 0.001653749)
(0.09236846 -0.0046157663 0.0017458208)
(0.09059797 -0.0045270399 0.0018214871)
(0.089040977 -0.004492371 0.0018979534)
(0.087624854 -0.0045823318 0.0020135196)
(0.086384533 -0.0046160669 0.0022352752)
(0.085608909 -0.0044869375 0.0026022088)
(0.085795395 -0.0039345401 0.0030547996)
(0.088918879 -0.0014553447 0.0031948602)
(0.098264151 0.0060181556 0.0023510584)
(0.11296748 0.019595868 0.00030882727)
(0.13066005 0.037104178 -0.0029557832)
(0.1480629 0.055454233 -0.0064537106)
(0.16290019 0.07205176 -0.0093314936)
(0.1737714 0.085515636 -0.011399385)
(0.1804972 0.095687511 -0.012884727)
(0.18396648 0.10259773 -0.014199165)
(0.18558848 0.10639846 -0.015604736)
(0.18651609 0.10743864 -0.017017442)
(0.18725086 0.1062774 -0.018031179)
(0.18779452 0.10350561 -0.018355709)
(0.18791948 0.099623559 -0.017937729)
(0.18742466 0.095086705 -0.016592851)
(0.18603569 0.090590537 -0.013922738)
(0.18320445 0.087710355 -0.0091957006)
(0.17916081 0.090031934 -0.0010721366)
(0.15822422 0.10380654 0.013085633)
(0.09686803 -0.0015458082 0.00084282195)
(0.094669531 -0.0022817078 0.0012583699)
(0.090979151 -0.0025059356 0.0014217474)
(0.086454897 -0.002537531 0.001501808)
(0.081913706 -0.0024769116 0.0015547491)
(0.077601254 -0.0023541936 0.0015967875)
(0.07348218 -0.0022083627 0.0016513616)
(0.069459519 -0.0020797268 0.0017627492)
(0.065402476 -0.001999681 0.0020057917)
(0.061094777 -0.0021242651 0.0024969104)
(0.056124205 -0.0029185928 0.0034560771)
(0.050080809 -0.004390528 0.005316228)
(0.04222438 -0.0045722429 0.0087341799)
(0.038284417 0.0026729806 0.013420502)
(0.044661829 0.018560804 0.018658664)
(0.059182358 0.036129197 0.024047024)
(0.075907576 0.050849955 0.029433997)
(0.091573047 0.062238357 0.034688787)
(0.10506835 0.070821174 0.039470472)
(0.11646034 0.076891701 0.043042563)
(0.12630082 0.080543685 0.045256468)
(0.13499138 0.081788636 0.046368205)
(0.14254662 0.080884954 0.046632608)
(0.14866845 0.078247254 0.046348569)
(0.15303213 0.074378347 0.045807823)
(0.15547315 0.069803503 0.045333235)
(0.15613979 0.065129013 0.045275472)
(0.15577246 0.061581505 0.045938285)
(0.15814305 0.061993935 0.0470965)
(0.17259888 0.072294133 0.0475592)
(0.10560515 -0.0023960465 0.0010135797)
(0.11971226 -0.002504038 0.001420783)
(0.13235238 -0.002395529 0.0014288092)
(0.14257144 -0.0020481705 0.0012089269)
(0.15146987 -0.0015296539 0.00078239236)
(0.15960647 -0.0010141431 0.00010952763)
(0.167011 -0.00064194169 -0.00086194551)
(0.17360124 -0.00048622583 -0.0022838111)
(0.17934583 -0.00061061162 -0.0044008835)
(0.18422757 -0.001082007 -0.007492127)
(0.18818175 -0.0020199631 -0.011900316)
(0.191109 -0.0035427627 -0.017923804)
(0.19247345 -0.0057337902 -0.025633369)
(0.19199704 -0.0091616988 -0.034547989)
(0.19116295 -0.01320505 -0.043655)
(0.1913519 -0.017189196 -0.051716483)
(0.19265695 -0.020202437 -0.058033051)
(0.19423593 -0.021726145 -0.062697948)
(0.19520018 -0.022015976 -0.066100909)
(0.19522556 -0.021769941 -0.068552022)
(0.19462076 -0.021572357 -0.070201206)
(0.1940242 -0.021557703 -0.071137671)
(0.19399541 -0.021634054 -0.071409812)
(0.1948201 -0.021684716 -0.071009855)
(0.19652958 -0.021641215 -0.069864435)
(0.19903125 -0.021371608 -0.067834044)
(0.2021585 -0.020418972 -0.064656848)
(0.205523 -0.017506035 -0.059822667)
(0.20815704 -0.0090916447 -0.052582812)
(0.19741034 0.014776705 -0.041953253)
(0.099984799 -0.0038088438 0.0010652356)
(0.10068464 -0.0046654208 0.0016165831)
(0.10244104 -0.0048682756 0.0018177564)
(0.10480821 -0.0046743687 0.0018652262)
(0.10761476 -0.0042741727 0.001802709)
(0.11080457 -0.0039110339 0.0016101646)
(0.114288 -0.0037733672 0.0012475216)
(0.11798285 -0.0039760669 0.00064390472)
(0.12188407 -0.0046338084 -0.00031797146)
(0.12594386 -0.0059038614 -0.0017888858)
(0.13015591 -0.0080052635 -0.0039493006)
(0.13458456 -0.011146152 -0.0070230276)
(0.13935231 -0.015514484 -0.011188425)
(0.14445756 -0.02167757 -0.016116075)
(0.15004633 -0.028635378 -0.02086503)
(0.15614288 -0.034716257 -0.024230581)
(0.16220089 -0.037902711 -0.025853468)
(0.16720217 -0.037430181 -0.026653395)
(0.17032806 -0.034217008 -0.027634999)
(0.17151947 -0.030042032 -0.029203396)
(0.17150742 -0.026425168 -0.031184058)
(0.17123732 -0.023775045 -0.033244983)
(0.17125758 -0.0218691 -0.035003456)
(0.1717165 -0.020447746 -0.035998288)
(0.17267624 -0.019599984 -0.035666639)
(0.17451116 -0.019433687 -0.033475891)
(0.1782122 -0.019785792 -0.028898802)
(0.18601709 -0.019932046 -0.020946979)
(0.20349488 -0.017954121 -0.0076835309)
(0.25960026 -0.0075550868 0.0093280057)
(0.10012895 -0.0029050755 0.0010856127)
(0.10025985 -0.0042203788 0.0016632756)
(0.10009739 -0.0046666918 0.0019102438)
(0.099769366 -0.0048287427 0.0020308086)
(0.099489231 -0.0048989108 0.0020862444)
(0.099373334 -0.0049621436 0.0020790796)
(0.099435641 -0.0051021796 0.0020087559)
(0.099654326 -0.0054117191 0.0018871894)
(0.10001765 -0.0060113849 0.0017411426)
(0.10054776 -0.0071256754 0.0015560026)
(0.1013342 -0.0090435886 0.0011980286)
(0.10255235 -0.012145633 0.00042966419)
(0.10442841 -0.016961666 -0.00075643682)
(0.10705446 -0.024062061 -0.0018600313)
(0.11067745 -0.032454004 -0.0017344404)
(0.11528113 -0.039784735 0.0017887148)
(0.12123738 -0.042584594 0.0093352591)
(0.12786436 -0.039977311 0.017938011)
(0.1336994 -0.034188677 0.025213189)
(0.13775169 -0.028217515 0.029986339)
(0.14015089 -0.023951762 0.032364621)
(0.14161717 -0.020556091 0.034422413)
(0.14381876 -0.018294023 0.036466165)
(0.14702267 -0.0169472 0.039017448)
(0.15044143 -0.016633167 0.041866215)
(0.15314514 -0.017783818 0.044219661)
(0.1553666 -0.019866056 0.046606368)
(0.15802815 -0.022601844 0.049327753)
(0.16387354 -0.026253963 0.05398119)
(0.18664554 -0.030769364 0.062625266)
(0.098111948 -0.0015725678 0.0010606076)
(0.096811035 -0.0023375404 0.0016196354)
(0.094495918 -0.0025941972 0.0018526892)
(0.091597299 -0.002670495 0.0019562362)
(0.088687307 -0.0026701708 0.0019912192)
(0.085957619 -0.0026257639 0.0019642213)
(0.083408304 -0.002578238 0.0018818662)
(0.081008536 -0.0025803214 0.0017654792)
(0.0787178 -0.0027043122 0.0016560783)
(0.076484468 -0.0030768915 0.0016216737)
(0.074224179 -0.0039275811 0.0017718735)
(0.071757728 -0.0056478084 0.0023010969)
(0.068713054 -0.0087016186 0.0033921453)
(0.064884031 -0.013008447 0.0054375514)
(0.060852422 -0.016834177 0.010415571)
(0.058431532 -0.016386235 0.0221549)
(0.060911373 -0.0087054699 0.043615442)
(0.066212987 0.0027737833 0.065440272)
(0.07209469 0.014744344 0.083125769)
(0.077939938 0.024883864 0.0957751)
(0.084778049 0.032277147 0.1040136)
(0.092976294 0.035772389 0.10776836)
(0.10077129 0.036177832 0.10891955)
(0.10746479 0.034172645 0.10840302)
(0.11264228 0.030750316 0.10672177)
(0.11618619 0.026415617 0.10387988)
(0.11874583 0.021018506 0.099282218)
(0.12067426 0.015282629 0.093282515)
(0.12442454 0.0096651289 0.087274268)
(0.14827922 0.0055028958 0.081856111)
(0.10548112 -0.0024157404 0.00036342839)
(0.11939135 -0.0025211762 0.00059726667)
(0.1319431 -0.0023860329 0.00069329701)
(0.14218379 -0.0019904143 0.00069463443)
(0.15115284 -0.001412503 0.0006274682)
(0.15932866 -0.00083657174 0.00049581791)
(0.16672645 -0.00037288516 0.00027301026)
(0.17333481 -4.8392778e-05 -6.1037992e-05)
(0.17916895 0.00010902056 -0.0005221895)
(0.1842012 6.1888967e-05 -0.0011313031)
(0.18836084 -0.00025062719 -0.001910158)
(0.19151094 -0.00092586797 -0.0028559277)
(0.19295834 -0.002122567 -0.0038931507)
(0.19219714 -0.0046989684 -0.0048859801)
(0.19071004 -0.0082731465 -0.0055287987)
(0.18976865 -0.012359243 -0.0056912054)
(0.18915272 -0.016382823 -0.005915195)
(0.18809956 -0.0201821 -0.0069638971)
(0.18634871 -0.023716949 -0.0091408665)
(0.18412632 -0.02695341 -0.012206085)
(0.18187592 -0.029904217 -0.015664805)
(0.18007856 -0.032552063 -0.019057475)
(0.17910766 -0.034768253 -0.022033873)
(0.17907882 -0.036394629 -0.024323135)
(0.17984402 -0.037361206 -0.025701306)
(0.18116283 -0.037788563 -0.026005042)
(0.18304528 -0.037880751 -0.025197631)
(0.18618968 -0.037288748 -0.02370588)
(0.19201782 -0.03286949 -0.023836565)
(0.19959672 -0.014513992 -0.027390034)
(0.099862744 -0.0038207315 0.00035698244)
(0.10033236 -0.0046642287 0.00060461848)
(0.10196431 -0.00482469 0.0007123833)
(0.10432295 -0.0045619421 0.00071738754)
(0.10715506 -0.0040762277 0.00063445366)
(0.11034472 -0.0036159491 0.00044871981)
(0.11377492 -0.0033232358 0.00012820446)
(0.117349 -0.0032466406 -0.00036690754)
(0.12100814 -0.0034575622 -0.0010828472)
(0.12471871 -0.004056564 -0.0021100486)
(0.1284734 -0.0052110339 -0.003535175)
(0.13231675 -0.0072031135 -0.0054324634)
(0.13639669 -0.01049507 -0.0077835835)
(0.14070778 -0.016217407 -0.010332182)
(0.14514243 -0.023442308 -0.012642693)
(0.14923977 -0.029959755 -0.014995211)
(0.15193645 -0.034301261 -0.018413565)
(0.1525598 -0.036986681 -0.023190356)
(0.15153811 -0.038561323 -0.02877854)
(0.14950059 -0.039429329 -0.034552934)
(0.14697042 -0.040063556 -0.039900256)
(0.14438013 -0.040810112 -0.044377121)
(0.14204534 -0.041642491 -0.047619123)
(0.14001075 -0.042364897 -0.049259489)
(0.13818915 -0.042874312 -0.048870532)
(0.13647083 -0.043571433 -0.04621022)
(0.13535697 -0.045288489 -0.041283548)
(0.13829929 -0.048170442 -0.034747777)
(0.15324256 -0.048175993 -0.033285591)
(0.2075812 -0.034865535 -0.04662824)
(0.10001126 -0.0028999477 0.00036182268)
(0.099922955 -0.0042086387 0.0006159431)
(0.099643336 -0.0046346867 0.00073802661)
(0.099317152 -0.0047645879 0.0007614722)
(0.0990881 -0.0047900819 0.00069833423)
(0.09902612 -0.0047882587 0.00053276107)
(0.099124147 -0.0048240732 0.00023264387)
(0.099340765 -0.0049639514 -0.00024535977)
(0.099648598 -0.0053046311 -0.00096128711)
(0.1000301 -0.0059928592 -0.0019969206)
(0.10044208 -0.0072893981 -0.0034704737)
(0.10084285 -0.0096643003 -0.0055528971)
(0.1012724 -0.013929748 -0.0083788962)
(0.10184521 -0.021219724 -0.01182061)
(0.10222339 -0.030284377 -0.015250278)
(0.10162469 -0.036630017 -0.018787403)
(0.099313195 -0.038290407 -0.022751877)
(0.095942502 -0.037760277 -0.025505336)
(0.09275452 -0.036493227 -0.027521526)
(0.089323429 -0.035579286 -0.030932983)
(0.085396414 -0.035780921 -0.035036855)
(0.081112789 -0.037105615 -0.038240675)
(0.077100282 -0.039086009 -0.039390675)
(0.073973005 -0.041181572 -0.03776185)
(0.072414883 -0.043131575 -0.032391217)
(0.072688176 -0.045288837 -0.023296854)
(0.073955653 -0.049127422 -0.011728027)
(0.079007837 -0.055879644 0.00052850633)
(0.091430266 -0.063740477 -0.00083228692)
(0.13139765 -0.063311326 -0.03401607)
(0.097996784 -0.0015675517 0.00035284346)
(0.096480477 -0.0023273003 0.00059604491)
(0.094050447 -0.0025756581 0.00070886712)
(0.091153427 -0.0026415219 0.00072416777)
(0.088293775 -0.0026278191 0.00065403194)
(0.085616899 -0.0025644162 0.00048289082)
(0.083103474 -0.0024875961 0.00017730235)
(0.080704516 -0.0024403235 -0.00030705755)
(0.078378578 -0.002478523 -0.0010323944)
(0.076057268 -0.0026926435 -0.0020836098)
(0.073570236 -0.0032628749 -0.0036156413)
(0.070614559 -0.0045695038 -0.0059251935)
(0.066630927 -0.0074702633 -0.0095995971)
(0.060674617 -0.013685844 -0.015759512)
(0.050787188 -0.021799304 -0.024895129)
(0.037649665 -0.024434672 -0.033056863)
(0.026683727 -0.020000485 -0.031034577)
(0.029320111 -0.014841476 -0.0046043651)
(0.036760794 -0.0058867869 0.032319119)
(0.040967454 0.0042190061 0.058512305)
(0.046648836 0.01218687 0.074086899)
(0.05359234 0.016699305 0.081906945)
(0.060321831 0.018014534 0.08501837)
(0.06582702 0.016618066 0.085152814)
(0.06912283 0.012879127 0.082949766)
(0.069310595 0.0070038716 0.078351155)
(0.066335604 -0.0012423689 0.071005245)
(0.063595024 -0.012027927 0.061156259)
(0.060710399 -0.023690352 0.032047963)
(0.079222046 -0.019353188 -0.040005163)
(0.10545332 -0.002416651 0.00019667192)
(0.119288 -0.0025166009 0.00035150981)
(0.13175671 -0.0023666041 0.00044160632)
(0.14193443 -0.0019406993 0.000469523)
(0.15086865 -0.0013075547 0.00044259601)
(0.15905 -0.00063863867 0.00036321225)
(0.16653001 -3.0160064e-05 0.00023246468)
(0.17330885 0.00049842925 5.9281933e-05)
(0.17944736 0.00096010338 -0.0001623058)
(0.18503058 0.0013583384 -0.00042322462)
(0.19014935 0.0016786961 -0.00068143779)
(0.19492104 0.0018678599 -0.00082059692)
(0.19895228 0.0017963886 -0.00056347812)
(0.20205447 0.00074613307 0.00052964537)
(0.20585313 6.8423936e-05 0.0031152923)
(0.21077204 0.00054351555 0.0070499187)
(0.21537394 0.00149501 0.011503946)
(0.21854249 0.0019733285 0.015859164)
(0.22024158 0.0016047897 0.019832777)
(0.22101606 0.00043238563 0.023298878)
(0.22136728 -0.0013822957 0.026204266)
(0.22157665 -0.0036550398 0.028571138)
(0.22171437 -0.0061921869 0.030520258)
(0.2216904 -0.0087915161 0.032274849)
(0.22135645 -0.011257809 0.034025103)
(0.22069477 -0.013187987 0.035734122)
(0.21972657 -0.013497486 0.036700763)
(0.21791446 -0.0097245932 0.035572696)
(0.21174004 0.0019645856 0.030364357)
(0.15273035 0.032228799 0.012478014)
(0.09983332 -0.0038217309 0.00019432725)
(0.10020527 -0.0046580846 0.00035430977)
(0.10171008 -0.0047970243 0.00044263219)
(0.10394738 -0.0044900732 0.00045512478)
(0.10666328 -0.0039247836 0.00039481348)
(0.109729 -0.0033316139 0.00025674231)
(0.11301969 -0.0028318522 2.7770182e-05)
(0.11643981 -0.0024571798 -0.000313196)
(0.11994307 -0.0022211975 -0.0007964858)
(0.1235349 -0.0021870714 -0.0014504902)
(0.12730178 -0.0025128599 -0.0022790053)
(0.1314916 -0.0035385595 -0.0032017176)
(0.1366178 -0.0058883405 -0.0039354796)
(0.14305408 -0.01048513 -0.003822503)
(0.15066212 -0.013713968 -0.0022697677)
(0.15805487 -0.012907614 -0.00043659155)
(0.16323957 -0.010308634 0.00017737726)
(0.1655577 -0.0088296314 -0.0011094189)
(0.16565622 -0.0093900882 -0.0042237593)
(0.16444576 -0.011510872 -0.0087261838)
(0.1624769 -0.014472789 -0.013951825)
(0.16004047 -0.01772767 -0.01897396)
(0.15711879 -0.020933152 -0.022816012)
(0.15363385 -0.023867464 -0.02469875)
(0.14950614 -0.026618356 -0.024139831)
(0.14528841 -0.029099442 -0.021381932)
(0.14305854 -0.030141036 -0.019416094)
(0.14757694 -0.024360901 -0.024104359)
(0.16520181 -0.0031214962 -0.037037973)
(0.18645072 0.039377178 -0.051473061)
(0.099982955 -0.0028971932 0.00019516254)
(0.099799732 -0.0042026245 0.00035534991)
(0.099390206 -0.0046194826 0.00044617774)
(0.098930461 -0.0047310497 0.00046000445)
(0.098562414 -0.0047250267 0.00039512734)
(0.098338003 -0.0046705334 0.00024104636)
(0.09823468 -0.0046221737 -2.2567773e-05)
(0.098203176 -0.0046298353 -0.00042845107)
(0.098190813 -0.0047683601 -0.0010230794)
(0.098148902 -0.0051857351 -0.0018758918)
(0.098052083 -0.0061975415 -0.0030641055)
(0.097987731 -0.0084714605 -0.0046180541)
(0.098434412 -0.01330101 -0.0063619356)
(0.099809629 -0.0219676 -0.0075283281)
(0.10128185 -0.027841739 -0.0066303737)
(0.10197662 -0.025859185 -0.0047082889)
(0.099387741 -0.020646892 -0.0040101359)
(0.091933063 -0.016610426 -0.0066444857)
(0.08239983 -0.015751517 -0.01218912)
(0.074089723 -0.018084426 -0.018232511)
(0.066952582 -0.022244603 -0.023486168)
(0.060171898 -0.026731412 -0.02675169)
(0.052916445 -0.031129729 -0.026605315)
(0.045774831 -0.034965478 -0.022570101)
(0.039006215 -0.038695327 -0.014768275)
(0.03365862 -0.042743955 -0.0043150389)
(0.034403645 -0.047654433 -0.0017939238)
(0.046925954 -0.044007095 -0.021670863)
(0.075972099 -0.024065474 -0.051459065)
(0.11232631 0.011808245 -0.079851509)
(0.097969025 -0.0015691803 0.00019007626)
(0.096360331 -0.0023310015 0.00034345622)
(0.09380316 -0.0025790589 0.00042731721)
(0.090773344 -0.0026409749 0.00043354666)
(0.087772924 -0.0026182764 0.00035928272)
(0.084924412 -0.0025380204 0.00019204739)
(0.082183592 -0.0024341255 -9.1653663e-05)
(0.079481793 -0.0023474098 -0.00053683287)
(0.076719242 -0.0023332788 -0.0012135177)
(0.073724171 -0.0024945053 -0.0022488206)
(0.070180663 -0.003069588 -0.0038607942)
(0.065475433 -0.0046684295 -0.0064494986)
(0.058341495 -0.0089556081 -0.01087355)
(0.046828278 -0.018764507 -0.0185838)
(0.024493154 -0.022423526 -0.028811929)
(-0.0019299445 -0.011315861 -0.032568261)
(-0.02422279 0.00026608589 -0.02901718)
(-0.03332197 0.00045843342 -0.02111041)
(-0.027396982 -0.0027406912 -0.0031927279)
(-0.014265987 -0.0026069182 0.020812094)
(-0.0054209281 -0.00063873044 0.035648013)
(0.0048944624 0.00081522806 0.043506774)
(0.01150883 -0.00024009648 0.045918478)
(0.015210631 -0.0029289213 0.046464427)
(0.014997253 -0.0076473924 0.045794605)
(0.010042645 -0.015362899 0.042172465)
(0.00072217245 -0.02774414 0.025685474)
(-0.011246011 -0.026263594 -0.020381444)
(-0.0081399743 0.007965798 -0.084501735)
(0.042672622 0.034243404 -0.11618997)
(0.10543708 -0.0024206764 5.3339276e-05)
(0.11923055 -0.0025237143 9.0123381e-05)
(0.1316489 -0.0023758945 0.00010311544)
(0.14177957 -0.0019505591 9.2526302e-05)
(0.15067252 -0.0013155531 6.0374764e-05)
(0.15881447 -0.00064264482 6.4189169e-06)
(0.16625238 -2.8019672e-05 -7.3182806e-05)
(0.17298585 0.00050619508 -0.00018553809)
(0.17906828 0.00096208715 -0.00033482587)
(0.18458461 0.0013317604 -0.00052570328)
(0.18965519 0.0015760629 -0.00074199759)
(0.19447593 0.0015960382 -0.00089397583)
(0.19877227 0.0012355754 -0.00069804609)
(0.20272239 1.5767844e-05 0.00033287071)
(0.20797748 0.00010859851 0.0022657741)
(0.21392392 0.0012018862 0.0044901871)
(0.21916918 0.0024149199 0.006612615)
(0.22321844 0.0035300789 0.0088174974)
(0.2263801 0.0046561043 0.011531366)
(0.22927585 0.0056680473 0.015085548)
(0.23246004 0.0063402555 0.019610138)
(0.23633949 0.006665218 0.02508651)
(0.24107078 0.0068720241 0.031345379)
(0.24637914 0.0073619515 0.038002032)
(0.25134457 0.0086277162 0.044427114)
(0.25424242 0.010970917 0.049706742)
(0.25252996 0.014796257 0.052488726)
(0.24267396 0.021677133 0.050790192)
(0.22047624 0.034850229 0.042130185)
(0.13012225 0.064953039 0.024484765)
(0.099815228 -0.0038262765 4.9885535e-05)
(0.1001339 -0.0046659655 8.2834279e-05)
(0.10156682 -0.0048061923 8.6493932e-05)
(0.10373072 -0.0044975243 5.8197271e-05)
(0.1063732 -0.0039267975 -2.0188669e-06)
(0.1093596 -0.003325063 -9.69956e-05)
(0.11255764 -0.0028128794 -0.00023335079)
(0.11586058 -0.0024284746 -0.0004217021)
(0.11921886 -0.0022048825 -0.00067195594)
(0.12265708 -0.0022380043 -0.00098985175)
(0.12632805 -0.002763864 -0.0013397114)
(0.13063857 -0.0042736173 -0.0015612442)
(0.13643828 -0.0074712242 -0.0011888927)
(0.14408523 -0.011996593 0.00047611268)
(0.15319246 -0.010845516 0.002820386)
(0.16082922 -0.0069224311 0.0041924826)
(0.16615162 -0.0034089909 0.0043221685)
(0.17008616 -0.0013309171 0.003868793)
(0.17342072 -0.00066730775 0.0033886271)
(0.1758453 -0.0010286653 0.0029208637)
(0.1771784 -0.0019799407 0.0023086619)
(0.1776776 -0.0031708593 0.0016110301)
(0.17788799 -0.0041309684 0.0012215205)
(0.17887948 -0.0041180652 0.0015998534)
(0.18242429 -0.0019409021 0.0029234567)
(0.1908623 0.0046838772 0.0051606332)
(0.20044844 0.016905264 0.0069579878)
(0.20375798 0.034685763 0.0046143986)
(0.19953054 0.061021116 -0.0052508286)
(0.15600811 0.10256529 -0.023246459)
(0.099964693 -0.002897998 4.9039286e-05)
(0.099727659 -0.0042050232 8.0634455e-05)
(0.099242008 -0.0046222917 8.2539035e-05)
(0.0986982 -0.0047325446 5.0087211e-05)
(0.098238164 -0.0047238352 -1.9751005e-05)
(0.097907495 -0.0046658656 -0.00013408574)
(0.097668463 -0.0046111404 -0.00030532223)
(0.097445093 -0.0046193985 -0.0005564886)
(0.097160403 -0.0047849932 -0.00091926998)
(0.096745886 -0.0053085352 -0.0014418801)
(0.096182842 -0.0066444903 -0.0021655248)
(0.095707534 -0.0097921424 -0.0030307008)
(0.096243594 -0.016591034 -0.0035296596)
(0.097118172 -0.02685116 -0.0024507062)
(0.1005543 -0.023676679 0.0010206932)
(0.10174638 -0.017087164 0.0026299509)
(0.098505922 -0.011039127 0.00095982444)
(0.09323669 -0.0062127562 -0.0021903432)
(0.085723777 -0.0037512179 -0.0061507682)
(0.076290711 -0.0050363295 -0.011141996)
(0.065156814 -0.0094578689 -0.016507336)
(0.053166066 -0.015176678 -0.020311168)
(0.042053206 -0.020472939 -0.020950164)
(0.0344254 -0.02448404 -0.01905095)
(0.034625713 -0.026308904 -0.017956912)
(0.044287958 -0.022237552 -0.021016868)
(0.071177092 -0.007659593 -0.026314718)
(0.09974515 0.016335836 -0.03313518)
(0.11730724 0.051183437 -0.046231778)
(0.10995116 0.096650569 -0.0628621)
(0.097950813 -0.0015692499 4.7507903e-05)
(0.096288523 -0.0023313075 7.7109687e-05)
(0.093654483 -0.0025790819 7.6640961e-05)
(0.090536976 -0.0026402296 4.0638598e-05)
(0.087436671 -0.0026167574 -3.5556678e-05)
(0.084469891 -0.0025362175 -0.00016216169)
(0.081567253 -0.00243127 -0.00035694947)
(0.078610757 -0.0023489642 -0.00065733257)
(0.075441115 -0.0023585904 -0.0011314468)
(0.071775674 -0.0026045345 -0.001912642)
(0.06706278 -0.003453444 -0.0032616009)
(0.060122261 -0.0059379962 -0.0057071485)
(0.048539428 -0.012970647 -0.010324658)
(0.028288366 -0.025806614 -0.016987209)
(-0.020159541 -0.0073351802 -0.020731599)
(-0.044084917 0.0037826832 -0.01744145)
(-0.063759057 0.0056370135 -0.017361104)
(-0.075713406 0.0044371605 -0.016934764)
(-0.079286645 0.00071144245 -0.013887315)
(-0.073726653 -0.0042103015 -0.0076087063)
(-0.062818839 -0.0081931803 0.00011425675)
(-0.052196479 -0.011257464 0.0051685842)
(-0.043654498 -0.014557299 0.0068003608)
(-0.037156655 -0.01841 0.0057866099)
(-0.032904631 -0.022212252 0.0013998085)
(-0.03195053 -0.022665853 -0.0099723425)
(-0.031286014 -0.0097656846 -0.033605589)
(-0.017260031 0.015197229 -0.054439171)
(0.0082265295 0.0525617 -0.075931793)
(0.049602526 0.08796495 -0.092336228)
(0.10543737 -0.0024211804 -5.3125379e-05)
(0.11923096 -0.0025247823 -9.7548047e-05)
(0.13164814 -0.0023776372 -0.00012494033)
(0.14177523 -0.0019531959 -0.00013532268)
(0.1506604 -0.0013193633 -0.00013132123)
(0.15878682 -0.00064853221 -0.00011452188)
(0.1661955 -3.9214517e-05 -8.4581363e-05)
(0.17288256 0.00048402706 -3.921984e-05)
(0.17890089 0.00091995741 2.2145147e-05)
(0.18433613 0.0012411515 0.00010309356)
(0.18934726 0.0013751265 0.00021149585)
(0.19430754 0.0011830322 0.00035581357)
(0.19936938 0.00066211531 0.00054319573)
(0.20494036 0.00026929069 0.00080662787)
(0.21159879 0.0011135927 0.0010087911)
(0.21848329 0.0023899519 0.0010975542)
(0.22433935 0.0038399173 0.0011597064)
(0.22946269 0.0057028425 0.0011596009)
(0.23439541 0.0081491043 0.0010392582)
(0.23945955 0.011149715 0.00077066302)
(0.2447792 0.014585488 0.00030499995)
(0.25025492 0.018386489 -0.00043740129)
(0.25543761 0.02248793 -0.0015982222)
(0.25954166 0.026741695 -0.0034171665)
(0.26155493 0.031005422 -0.0060872387)
(0.26009108 0.035420932 -0.009423438)
(0.25286015 0.04059098 -0.012592095)
(0.236197 0.047392045 -0.014295805)
(0.20612812 0.057824917 -0.011882052)
(0.10183243 0.081129995 -0.003400799)
(0.099815131 -0.0038270692 -5.4726148e-05)
(0.10013314 -0.0046676942 -0.00010577706)
(0.10156404 -0.0048091629 -0.00014107525)
(0.10372314 -0.0045023921 -0.00015857437)
(0.1063556 -0.003934754 -0.00015942548)
(0.10932194 -0.003339158 -0.00014266542)
(0.11248537 -0.0028420277 -0.00010447296)
(0.11574151 -0.0024890818 -3.7262723e-05)
(0.11904097 -0.0023306547 6.3984406e-05)
(0.1224262 -0.0025173974 0.00021779422)
(0.12615103 -0.0033965316 0.00044636692)
(0.13092265 -0.0056108978 0.00077309139)
(0.13781311 -0.0093739319 0.0012142442)
(0.14714441 -0.0099567558 0.0016877247)
(0.1567845 -0.0062034838 0.0019326224)
(0.16460564 -0.0019836751 0.0023152925)
(0.17164553 0.0015106166 0.0029190259)
(0.17836332 0.0046082098 0.003718474)
(0.18513067 0.007854262 0.0046749252)
(0.19244311 0.011562571 0.0058400421)
(0.20073035 0.016103185 0.0071980415)
(0.21014077 0.022056027 0.0084657925)
(0.22019504 0.029855446 0.0091587214)
(0.2298928 0.039207975 0.0087476364)
(0.23807147 0.049561111 0.0069225905)
(0.24312684 0.061196093 0.0041754714)
(0.24180039 0.074993542 0.001856795)
(0.22913773 0.090820671 0.00093889701)
(0.20321539 0.10956673 0.0029989536)
(0.111294 0.13750798 0.011037425)
(0.099964534 -0.002898455 -5.4821598e-05)
(0.099726512 -0.0042060764 -0.00010570348)
(0.099237899 -0.0046243127 -0.00014191219)
(0.09868711 -0.0047363291 -0.00016094918)
(0.098211979 -0.0047310871 -0.00016302754)
(0.09784902 -0.0046805492 -0.00014604382)
(0.097550824 -0.0046443096 -0.00010537786)
(0.097233719 -0.0046913469 -3.0921784e-05)
(0.0967919 -0.004949468 8.5087972e-05)
(0.096120905 -0.0057027572 0.00026968923)
(0.095256374 -0.0076234046 0.00056033764)
(0.094892759 -0.012211781 0.0010149819)
(0.095991734 -0.021586514 0.0017755241)
(0.098915079 -0.022722235 0.0032325718)
(0.10509736 -0.016431522 0.0032901043)
(0.10591657 -0.010295332 0.0034985746)
(0.10402424 -0.0045586461 0.0039278634)
(0.10047408 0.0008568643 0.0046172223)
(0.097546014 0.0048069575 0.0060700213)
(0.095825311 0.006713913 0.0085261246)
(0.093919161 0.0069848942 0.011185246)
(0.092966649 0.0071078022 0.012874421)
(0.09714987 0.0095097515 0.012977135)
(0.10991434 0.016276529 0.01175423)
(0.12788055 0.027457356 0.0086635651)
(0.14704357 0.042483711 0.0041727104)
(0.16038633 0.060014764 0.00050977836)
(0.16043324 0.080280527 0.00020418178)
(0.14809753 0.1062575 0.0038076788)
(0.077219127 0.14310244 0.012114957)
(0.097950612 -0.0015694221 -5.3229446e-05)
(0.096287122 -0.0023317328 -0.00010162189)
(0.093649485 -0.0025799403 -0.0001350067)
(0.090523333 -0.0026418618 -0.00015086076)
(0.087403679 -0.0026198781 -0.00014912988)
(0.084392613 -0.0025426465 -0.00012739155)
(0.081405921 -0.002446853 -8.1781577e-05)
(0.078296929 -0.0023842771 -1.5026225e-06)
(0.074819567 -0.0024474901 0.0001258356)
(0.070497741 -0.0028442414 0.00032919371)
(0.064353241 -0.0041565556 0.00065654906)
(0.054222458 -0.0082108796 0.0012042966)
(0.038252353 -0.019453834 0.00240692)
(-0.0023488834 -0.01493515 0.009042559)
(-0.036745437 0.0042088556 0.012572073)
(-0.05485623 0.0065861191 0.008153058)
(-0.06976991 0.006172927 0.0035915934)
(-0.078086342 0.0031909136 -0.0023536519)
(-0.08053541 -0.0014305028 -0.0087571018)
(-0.077639111 -0.006106425 -0.014688257)
(-0.070292592 -0.010153171 -0.018613323)
(-0.061281048 -0.013504485 -0.021288727)
(-0.051834026 -0.015704854 -0.023887738)
(-0.041289467 -0.015374816 -0.026497284)
(-0.02582413 -0.010034014 -0.027650749)
(-0.009364691 0.0020354519 -0.023662689)
(0.018498633 0.034689454 -0.016858284)
(0.020857782 0.057399594 -0.011340777)
(0.025667746 0.08782746 -0.001500769)
(0.020952314 0.12746791 0.010943283)
(0.1054547 -0.0024179263 -0.00019429206)
(0.1192912 -0.0025189618 -0.00035240244)
(0.1317593 -0.0023703604 -0.00045023375)
(0.14193289 -0.0019462088 -0.0004895631)
(0.15085868 -0.001315103 -0.00047687299)
(0.15902624 -0.00064857373 -0.00041342246)
(0.16648647 -4.2527377e-05 -0.00029848314)
(0.17323788 0.00048222777 -0.00013833761)
(0.17933162 0.00092484439 7.2811547e-05)
(0.18486139 0.0012860402 0.00032925295)
(0.18994994 0.001532958 0.00058791106)
(0.19478972 0.0015748888 0.00070540578)
(0.19918375 0.0012692028 0.00029622151)