/*--------------------------------*- C++ -*----------------------------------*\
| =========                 |                                                 |
| \\      /  F ield         | OpenFOAM: The Open Source CFD Toolbox           |
|  \\    /   O peration     | Version:  v2012                                 |
|   \\  /    A nd           | Website:  www.openfoam.com                      |
|    \\/     M anipulation  |                                                 |
\*---------------------------------------------------------------------------*/
FoamFile
{
    version     2.0;
    format      ascii;
    class       volScalarField;
    location    "660/bottomWater";
    object      p_rgh;
}
// * * * * * * * * * * * * * * * * * * * * * * * * * * * * * * * * * * * * * //

dimensions      [1 -1 -2 0 0 0 0];


internalField   nonuniform List<scalar> 
1460
(
0.28774348
0.29608874
0.29033141
0.28558345
0.31241074
0.31439336
0.3078117
0.31906494
0.31144885
0.29996336
0.30330408
0.30763599
0.30552099
0.30551409
0.29308386
0.31442344
0.30857917
0.30561905
0.30865632
0.30109038
0.31800114
0.30391342
0.30668092
0.29908513
0.30394581
0.30134251
0.29376815
0.32375913
0.29760784
0.28710569
-0.23517275
-0.21597681
-0.25833529
-0.25377745
-0.20024201
-0.20898554
-0.27368679
-0.26756442
-0.22942296
-0.24773095
-0.25003864
-0.21527375
-0.19839962
-0.19976408
-0.22114715
-0.17821133
-0.22340203
-0.27786629
-0.2730369
-0.25943709
-0.20706263
-0.19461167
-0.23173951
-0.25778206
-0.27171891
-0.26946758
-0.23804997
-0.1718403
-0.21117513
-0.23719862
0.10424904
0.085216694
0.11370539
0.080668033
0.040513358
0.055727783
0.077141672
0.12264985
0.062726264
0.12366337
0.078863923
0.059520294
0.073753783
0.064126925
0.081215972
0.046856467
0.04540003
0.07753097
0.093386129
0.061497369
0.038043868
0.039284247
0.051368247
0.11177254
0.10895076
0.10496413
0.06427078
0.049239184
0.052324386
0.11089305
-0.091149154
-0.078645223
-0.032382573
-0.058285309
-0.068720189
-0.06587105
-0.05521468
-0.050379082
-0.042942104
-0.057158967
-0.069890707
-0.073401882
-0.043446492
-0.039330317
-0.068981119
-0.075340007
-0.088477523
-0.051853655
-0.036833695
-0.092172865
-0.071428381
-0.074126784
-0.0702147
-0.049324758
-0.024035718
-0.048789711
-0.10068908
-0.080991836
-0.078160348
-0.037235445
0.0095452849
-0.016160508
-0.0027211395
-0.017119454
0.0081289072
-0.013615774
-0.0037065713
-0.0095916016
-0.023589525
-0.010984066
-0.0036931478
-0.0033009316
-0.012998142
-0.016165139
-0.01968029
0.0052896733
0.016336785
0.015397358
0.03469731
0.028588559
0.028201828
0.0096498498
-0.014458344
-0.012233393
0.018598537
0.014457652
0.023788964
0.031089001
-0.0098987687
-6.4218736e-05
0.28817822
0.29131145
0.28774859
0.28546205
0.30786609
0.31097865
0.30482057
0.32010987
0.28850822
0.29925389
0.29769717
0.29595116
0.29164956
0.29165326
0.29004057
0.30613807
0.30697655
0.29545798
0.30180817
0.30446426
0.29718514
0.30165491
0.30436966
0.31209354
0.30185144
0.29274331
0.27945944
0.28020359
0.27860274
0.2833913
-0.27055382
-0.2467399
-0.25146224
-0.25441185
-0.21101933
-0.2230114
-0.28152425
-0.20577872
-0.27102169
-0.25960127
-0.27780504
-0.25864435
-0.25727678
-0.25260679
-0.25298259
-0.20319562
-0.2161402
-0.28091525
-0.28158215
-0.27825343
-0.26147427
-0.27757071
-0.25566267
-0.22121992
-0.21820327
-0.24109446
-0.23921609
-0.23964697
-0.24825501
-0.25285763
0.10818339
0.093720537
0.10015222
0.10152904
0.04662116
0.056931665
0.081527717
0.050841633
0.069122612
0.098688445
0.10621643
0.088135983
0.095762787
0.10677535
0.10535903
0.054600371
0.037574778
0.056730279
0.089377631
0.09285138
0.079293243
0.07986357
0.064832072
0.073862926
0.068416619
0.1046171
0.09814295
0.10288821
0.093410638
0.11690668
-0.063495654
-0.12316668
-0.067701028
-0.090044396
-0.067388403
-0.1097461
-0.057001484
-0.095943561
-0.074878861
-0.077027265
-0.071011058
-0.11735306
-0.10791913
-0.068286116
-0.057392734
-0.072343709
-0.083261565
-0.08328929
-0.05335713
-0.040221772
-0.094961526
-0.05241892
-0.10142413
-0.058122594
-0.053307018
-0.091281057
-0.10468642
-0.11893096
-0.11316932
-0.078976159
0.012851673
0.018883454
0.0082865425
-0.018364134
0.0089048211
0.017108567
0.0029074689
0.0022504034
-0.012970244
-0.0006148121
0.0059534248
0.020346819
-0.0035257144
-0.015183876
-0.011467857
-0.01374567
0.012152914
0.020881482
0.022897032
0.014238658
0.023961514
-0.0086680455
0.001952653
-0.026100268
-0.0083167972
-0.02020027
0.0099958193
0.04269987
0.010201321
-0.0014465592
0.29152016
0.2924626
0.28828702
0.30036446
0.3124582
0.30519012
0.30544958
0.3042215
0.30089658
0.3031287
0.30229411
0.29925398
0.29642709
0.29348947
0.2876639
0.30766431
0.29292781
0.29903395
0.29732291
0.29613982
0.2924331
0.29484367
0.29417743
0.28790019
0.28710164
0.28716571
0.28637814
0.28675199
0.28877985
0.2872046
-0.26372103
-0.27108193
-0.25476124
-0.22483253
-0.22455197
-0.25960089
-0.27062552
-0.25321269
-0.26683916
-0.27982579
-0.28317666
-0.28517547
-0.28494773
-0.25819238
-0.24726801
-0.22694297
-0.26585933
-0.27150713
-0.27920865
-0.26029293
-0.27668161
-0.27510907
-0.274967
-0.25853318
-0.2588965
-0.25469858
-0.26826635
-0.27491087
-0.2706809
-0.26163948
0.12594529
0.08846041
0.064631662
0.050266257
0.060425747
0.064499063
0.092869098
0.10777439
0.10368182
0.11030902
0.11606332
0.1096901
0.088136478
0.071392238
0.078133092
0.052755228
0.069197309
0.093489521
0.11489479
0.092118888
0.099860547
0.11794051
0.11715266
0.098112002
0.12586581
0.1008997
0.10357394
0.10732037
0.11230918
0.12919078
-0.043050791
-0.053225739
-0.085168295
-0.061125832
-0.059410833
-0.10708255
-0.041077311
-0.10815304
-0.094090643
-0.055191272
-0.041323261
-0.041275592
-0.057772266
-0.091225313
-0.064443756
-0.060965318
-0.078996785
-0.04687425
-0.0480913
-0.097108066
-0.054853237
-0.042679312
-0.053152607
-0.085168435
-0.046654865
-0.05961488
-0.05361699
-0.042292089
-0.04567189
-0.052758212
0.024147043
0.017856256
0.015973074
0.0011926169
-0.0011579801
0.018890212
0.017567864
0.057712304
0.026430012
0.019888428
0.028218636
0.024746692
0.01342109
0.0069843794
0.0064492511
-0.0066841257
0.0083848027
0.013053711
0.021351758
0.032736662
0.0034240332
-0.00401983
0.016312622
0.012752383
-0.013322908
0.012080832
-0.00011393038
0.011388344
0.01067108
0.013013134
0.28967039
0.28661126
0.28173152
0.30780907
0.30941133
0.30606933
0.29904978
0.30474573
0.29503221
0.28877759
0.2877339
0.29161038
0.29598331
0.29101545
0.28581588
0.29024814
0.28550808
0.29588548
0.29540065
0.31535401
0.28452268
0.29116437
0.28925274
0.28688173
0.2770942
0.28579772
0.28121154
0.29921604
0.28314245
0.28797315
-0.26090492
-0.26258149
-0.2498326
-0.22287493
-0.25428903
-0.28345048
-0.2545503
-0.26178181
-0.28025387
-0.25879534
-0.26940476
-0.27150645
-0.27568474
-0.27058926
-0.26371496
-0.25428916
-0.26993283
-0.26997327
-0.25773202
-0.22739221
-0.26303647
-0.26664337
-0.27638277
-0.24180235
-0.25250081
-0.24081709
-0.24214845
-0.21946765
-0.2597235
-0.25754598
0.11492191
0.080657501
0.061680223
0.0569734
0.077049692
0.094492982
0.10588721
0.10419673
0.10520376
0.10765929
0.10810278
0.12679575
0.14171531
0.11097796
0.10681441
0.084110047
0.11386224
0.085784784
0.076375408
0.046354755
0.073941788
0.097576144
0.10072213
0.077214402
0.10379214
0.089507633
0.09779665
0.070485924
0.10466975
0.12245536
-0.046789739
-0.05281799
-0.078946591
-0.049661883
-0.058133632
-0.071046501
-0.10313532
-0.10455117
-0.053072982
-0.096678075
-0.096531159
-0.066930111
-0.050975818
-0.058996942
-0.089447068
-0.090937511
-0.055564959
-0.03925494
-0.10340036
-0.086321496
-0.086213799
-0.053711832
-0.045905796
-0.10492315
-0.072632623
-0.09330821
-0.11057358
-0.091341536
-0.074220701
-0.042417702
0.012665223
0.0089901631
0.0022465301
-0.014133007
-0.016654472
-0.013804707
0.012602587
0.046944081
0.015819322
0.056676799
0.045431776
0.013085815
0.017649802
-0.010985614
0.030969909
0.019165607
-0.0018316015
-0.0050094246
0.014707266
0.01381446
-0.013026908
-0.013172238
0.001346445
0.0057497636
-0.007143609
-0.002696112
0.027988899
0.0098374432
-0.001540177
0.0002790861
0.29493535
0.27753453
0.32371274
0.31482043
0.33029154
0.30819542
0.32628211
0.30773087
0.30779077
0.32314419
0.30769577
0.28904547
0.29699915
0.3008837
0.3028891
0.30952661
0.30994721
0.30417841
0.30291466
0.31303924
0.30602732
0.30270905
0.28619818
0.28823915
0.29709459
0.2840764
-0.25848419
-0.25437361
-0.22710409
-0.25163611
-0.2937997
-0.2652412
-0.2458559
-0.26192417
-0.24710908
-0.19870284
-0.23887541
-0.27326641
-0.26601769
-0.24007081
-0.23917885
-0.20588527
-0.22322855
-0.25507564
-0.27131426
-0.21622725
-0.20335521
-0.2151065
-0.23552558
-0.2375381
-0.22271557
-0.24381245
0.077833653
0.054706927
0.021936307
0.05784772
0.063757702
0.13545256
0.059963686
0.10126713
0.062636629
0.045254623
0.039333359
0.075610853
0.091433985
0.10790983
0.10288521
0.090469405
0.070320778
0.089161384
0.069404223
0.043179284
0.052266526
0.066871086
0.079363897
0.11713364
0.050678489
0.096668409
-0.03714503
-0.073324225
-0.044911838
-0.073018901
-0.026773483
-0.058857922
-0.052820155
-0.06547089
-0.073800607
-0.075383089
-0.080898623
-0.075049744
-0.045624128
-0.10531137
-0.092249478
-0.0723149
-0.046289345
-0.072665492
-0.06251899
-0.083995031
-0.060362063
-0.066477712
-0.089559541
-0.090396365
-0.098586387
-0.079566019
0.00056513569
0.010991487
0.015800093
0.0052764861
0.0077708914
0.001390554
-0.012360357
-0.0046225601
0.007046109
0.012052742
0.0019696154
-0.013663068
-0.0091013714
0.023662097
-0.0078980946
-0.010305136
-0.012362327
-0.011984894
-0.0072296671
0.0037772294
0.00010633135
-0.012025276
0.0044693313
0.043213819
-0.0045071127
-0.010153327
0.29670514
0.27773647
0.31993484
0.31807831
0.32335499
0.3181094
0.32636846
0.31560453
0.32596535
0.31985894
0.30572057
0.30113816
0.29754326
0.30768853
0.31061294
0.31105726
0.30867975
0.31582137
0.3120944
0.32008231
0.31665019
0.30971586
0.30180067
0.28340543
0.29075791
0.28850876
-0.2526253
-0.25590113
-0.20395835
-0.22177029
-0.29891748
-0.29193303
-0.26783058
-0.26565061
-0.21365758
-0.20767878
-0.24963971
-0.26486692
-0.25725479
-0.22487314
-0.21032181
-0.20275673
-0.20454586
-0.22827304
-0.28156587
-0.26061108
-0.21204475
-0.19379766
-0.21615017
-0.24322427
-0.25541564
-0.25842072
0.09432614
0.05707661
0.032198779
0.028412883
0.052479373
0.10530667
0.090051049
0.083130377
0.074400333
0.060268743
0.081918923
0.1117893
0.14223819
0.074731144
0.072996497
0.06821301
0.063987402
0.047347652
0.077258831
0.086773704
0.035524665
0.086336365
0.050380389
0.089351296
0.098073979
0.13888908
-0.0254454
-0.059612063
-0.062229757
-0.060908449
-0.043233634
-0.04775034
-0.10114588
-0.063446644
-0.051525412
-0.059020923
-0.089120812
-0.039770535
-0.040655187
-0.071971018
-0.047025506
-0.060529799
-0.075933687
-0.10138057
-0.06351126
-0.086255628
-0.098511136
-0.066223856
-0.072232934
-0.10702105
-0.086400017
-0.045302232
-0.0045321517
-0.010369106
0.012556227
-0.0012397958
0.0033411599
0.022009355
0.027912075
0.00050066989
-0.018422301
-0.00043536462
0.0041733491
-0.011985081
-0.0047558175
-0.019403708
-0.01966599
-0.01365471
-0.0027125095
0.0059609768
0.0075065936
0.0059902073
0.012703645
-0.0012763763
0.014689096
0.024892141
-0.014722423
-0.0069680139
0.29462005
0.28661076
0.30458763
0.31031146
0.32252832
0.31568786
0.32299405
0.30935861
0.32083438
0.31089764
0.31103837
0.30778044
0.31235409
0.30968807
0.30740541
0.29745632
0.30186343
0.3027276
0.29799167
0.31170927
0.3070358
0.30655751
0.31164442
0.31122605
0.31153146
0.31002608
0.2943345
0.27831699
0.28972803
0.28732866
-0.25616393
-0.2499844
-0.21595589
-0.21722598
-0.26310789
-0.29379757
-0.28631383
-0.27549542
-0.23540727
-0.23427521
-0.27054037
-0.2632142
-0.23275274
-0.19831746
-0.22505315
-0.26740549
-0.27295325
-0.26255239
-0.24383706
-0.19917133
-0.22553994
-0.27380156
-0.27952693
-0.28555889
-0.26641963
-0.22098613
-0.22444617
-0.25429153
-0.25961337
-0.25666254
0.084958165
0.066284174
0.046416392
0.056849325
0.02458798
0.07095649
0.086927291
0.060251114
0.030305091
0.05648591
0.072078814
0.11816591
0.06390724
0.044416775
0.04938083
0.076741812
0.099264166
0.085101058
0.06892256
0.070233968
0.047263106
0.070171782
0.10805401
0.096664127
0.048133813
0.059267199
0.051983316
0.078574821
0.097050475
0.12250804
-0.027301154
-0.054801108
-0.043962372
-0.048640121
-0.075141101
-0.040664046
-0.036618139
-0.089337665
-0.057991222
-0.060844252
-0.050351934
-0.044392597
-0.046602194
-0.073109092
-0.068754142
-0.073942168
-0.047408645
-0.069583432
-0.068677904
-0.069037697
-0.088497305
-0.093739702
-0.04307753
-0.053111606
-0.10537264
-0.079922646
-0.071158722
-0.068112381
-0.043527309
-0.028001354
-0.00080399426
-0.011140198
-0.011307542
-0.019915722
0.0048624303
0.017020123
0.028365694
0.017211337
0.0095980929
0.0073636212
-0.019545817
-0.0091279526
-0.016232717
-0.006991281
0.015055614
0.0065753692
0.017310209
0.0066201027
-0.0044439796
-0.0039242151
0.018236595
0.024903374
0.03674326
0.02992359
0.020913925
0.00092928648
-0.011981734
-0.0050328969
-0.017546428
-0.0072122081
0.30294346
0.30531416
0.31371857
0.30912964
0.32500417
0.32108508
0.32024054
0.32204501
0.3154916
0.30763343
0.32184678
0.30578881
0.31579463
0.30745929
0.30571258
0.305552
0.30418682
0.30271887
0.2942689
0.31618946
0.30225588
0.3145521
0.3104259
0.31278053
0.31092317
0.31177905
0.30406046
0.28684217
0.28649982
0.29219407
-0.25240743
-0.22322295
-0.19592199
-0.21287858
-0.22337033
-0.26746959
-0.29912584
-0.28881628
-0.28461581
-0.26935577
-0.2258213
-0.21673518
-0.2213076
-0.25886219
-0.27447793
-0.28805473
-0.2845134
-0.28119258
-0.25519205
-0.23741338
-0.27195266
-0.28661289
-0.29184435
-0.29116816
-0.2836663
-0.25715231
-0.23012617
-0.25266116
-0.25803165
-0.26253319
0.089804721
0.05387304
0.058862386
0.051062422
0.031413848
0.048413634
0.075409078
0.10628877
0.070766535
0.062609903
0.033728375
0.076247941
0.071241757
0.064423953
0.087445727
0.099759924
0.14063543
0.093413564
0.080441172
0.033449128
0.081804881
0.10103069
0.12432085
0.13445243
0.091978085
0.082419944
0.07064994
0.094208635
0.079538907
0.11377257
-0.038699446
-0.055349931
-0.026716973
-0.054866963
-0.063535174
-0.080312836
-0.038634589
-0.043782162
-0.062360832
-0.085130813
-0.091768209
-0.069668034
-0.061108626
-0.081692074
-0.076125797
-0.052718485
-0.039868083
-0.04580804
-0.07838185
-0.0495706
-0.077673594
-0.0368928
-0.032153673
-0.039430965
-0.063760915
-0.10502391
-0.064778312
-0.060426298
-0.072822785
-0.052728885
-0.0011921856
-0.0084143196
-0.013947336
-0.024029111
-0.00011532742
0.022332286
0.018876702
0.026122821
0.013327865
0.013637935
0.0014109792
-0.011660969
-0.014412484
0.0056387365
0.013915516
0.024188327
0.040000153
0.021173697
0.031847038
0.022449508
0.028324936
0.034221376
0.040046317
0.036042425
0.016303128
0.015044721
-0.010895468
0.0016965304
0.0029713529
0.0075376717
0.29196693
0.30265392
0.2963335
0.29629254
0.29229894
0.31340332
0.31083366
0.31308662
0.31439996
0.31155085
0.31097099
0.32024486
0.29765218
0.30702238
0.29970832
0.2950174
0.29595187
0.29625978
0.29595215
0.2932187
0.29596171
0.29732372
0.30259686
0.2990069
0.29844723
0.2988905
0.29153205
0.30790503
0.2851015
0.29759561
-0.23893614
-0.21239945
-0.22654578
-0.25638249
-0.25300339
-0.23212906
-0.24873886
-0.28430251
-0.28846144
-0.29199939
-0.25817271
-0.22646702
-0.26886462
-0.27720424
-0.26517532
-0.27192876
-0.28783662
-0.28121697
-0.26035011
-0.26109459
-0.2743939
-0.26572269
-0.24770179
-0.26713825
-0.27125718
-0.26964792
-0.25500591
-0.23037616
-0.25850269
-0.26638878
0.072303886
0.044673383
0.055141773
0.076669518
0.065227834
0.033746805
0.047855187
0.069633528
0.10611784
0.07793474
0.062601018
0.043901293
0.094583345
0.10200443
0.11010182
0.085564808
0.12526764
0.12302571
0.096394491
0.11918551
0.093604057
0.1068051
0.063715717
0.091268837
0.099643943
0.10029645
0.096016864
0.042048584
0.066662987
0.093285421
-0.065748175
-0.065495617
-0.053328822
-0.045993738
-0.067962848
-0.06370092
-0.071794366
-0.063151169
-0.043861742
-0.052760622
-0.10219679
-0.092914306
-0.071939705
-0.044942539
-0.09027269
-0.10101088
-0.060989849
-0.064715589
-0.11617265
-0.073638046
-0.080768783
-0.11948224
-0.092377152
-0.10780378
-0.078991218
-0.04250209
-0.075752983
-0.082140143
-0.098467973
-0.045428924
0.010194226
-0.0026221289
-0.016116012
-0.017923795
-0.010099188
1.0609517e-05
0.016607846
0.017091952
0.034364344
0.017365547
0.015272895
0.0018659175
-0.012765732
-0.0090600038
0.001034572
0.027463501
0.021748961
0.017658834
0.022847809
0.0049632517
-0.0030914428
0.010634066
0.039176559
0.010313995
-0.0098525714
-0.0080894555
-0.011043907
0.0053821754
0.014956775
0.016504252
0.28917463
0.28942966
0.2885583
0.29572673
0.29933668
0.29218543
0.29820901
0.31702969
0.30097889
0.30748911
0.30182224
0.29914573
0.2988936
0.30738375
0.31112333
0.3245069
0.2930657
0.2962663
0.28833768
0.2929266
0.29171735
0.30530917
0.3102887
0.30370079
0.30157328
0.28594146
0.29410338
0.32137196
0.30036892
0.30584921
-0.2613625
-0.24849986
-0.25631403
-0.27012266
-0.26461002
-0.26631811
-0.24879749
-0.23888307
-0.27249216
-0.27935566
-0.2705576
-0.24401325
-0.24257086
-0.22718488
-0.19962085
-0.19184383
-0.25713974
-0.25700952
-0.24417133
-0.25640741
-0.25330717
-0.21813084
-0.17078669
-0.20195702
-0.20930033
-0.22596611
-0.23266353
-0.18517543
-0.23216237
-0.26385642
0.11364306
0.088628641
0.095718122
0.11128503
0.12732619
0.089541656
0.079855763
0.037951976
0.092140716
0.099214152
0.094618847
0.09515324
0.10292481
0.087361774
0.085212052
0.031299317
0.069514354
0.090884866
0.12301477
0.11705919
0.10369563
0.072518811
0.063218641
0.065243932
0.075480662
0.11373271
0.078235883
0.041383022
0.046745335
0.080969597
-0.035749509
-0.076021564
-0.078701946
-0.014152141
-0.0073010418
-0.046002856
-0.068748262
-0.060635215
-0.071274706
-0.054782381
-0.088878521
-0.1043686
-0.098814781
-0.062710151
-0.05533821
-0.091581613
-0.080818365
-0.077663898
-0.06725979
-0.019548281
-0.045878059
-0.062860832
-0.07089528
-0.075018885
-0.051966118
-0.053126525
-0.091574681
-0.068603078
-0.094302381
-0.041201672
0.024588939
0.047418214
0.021695073
0.0040756708
0.0085549463
-0.018502841
0.019771257
0.027689783
0.03588805
0.023500238
0.010034418
0.024407719
-0.0090770133
-0.016742471
-0.008631556
0.015172339
0.021977081
0.0010438522
-0.014919454
-0.0054551519
-0.0085606455
-0.014363662
0.012843911
-0.0059290614
-0.0081152601
-0.017949778
0.006426269
0.019314928
0.01266858
0.017185176
)
;

boundaryField
{
    minX
    {
        type            fixedFluxPressure;
        gradient        uniform 0;
        value           nonuniform List<scalar> 
50
(
0.28774348
-0.23517275
0.10424904
-0.091149154
0.0095452849
0.28817822
-0.27055382
0.10818339
-0.063495654
0.012851673
0.29152016
-0.26372103
0.12594529
-0.043050791
0.024147043
0.28967039
-0.26090492
0.11492191
-0.046789739
0.012665223
0.29493535
-0.25848419
0.077833653
-0.03714503
0.00056513569
0.29670514
-0.2526253
0.09432614
-0.0254454
-0.0045321517
0.29462005
-0.25616393
0.084958165
-0.027301154
-0.00080399426
0.30294346
-0.25240743
0.089804721
-0.038699446
-0.0011921856
0.29196693
-0.23893614
0.072303886
-0.065748175
0.010194226
0.28917463
-0.2613625
0.11364306
-0.035749509
0.024588939
)
;
    }
    maxX
    {
        type            fixedFluxPressure;
        gradient        uniform 0;
        value           nonuniform List<scalar> 
50
(
0.28710569
-0.23719862
0.11089305
-0.037235445
-6.4218736e-05
0.2833913
-0.25285763
0.11690668
-0.078976159
-0.0014465592
0.2872046
-0.26163948
0.12919078
-0.052758212
0.013013134
0.28797315
-0.25754598
0.12245536
-0.042417702
0.0002790861
0.2840764
-0.24381245
0.096668409
-0.079566019
-0.010153327
0.28850876
-0.25842072
0.13888908
-0.045302232
-0.0069680139
0.28732866
-0.25666254
0.12250804
-0.028001354
-0.0072122081
0.29219407
-0.26253319
0.11377257
-0.052728885
0.0075376717
0.29759561
-0.26638878
0.093285421
-0.045428924
0.016504252
0.30584921
-0.26385642
0.080969597
-0.041201672
0.017185176
)
;
    }
    minY
    {
        type            fixedValue;
        value           uniform 0;
    }
    minZ
    {
        type            fixedFluxPressure;
        gradient        uniform 0;
        value           nonuniform List<scalar> 
150
(
0.28774348
-0.23517275
0.10424904
-0.091149154
0.0095452849
0.29608874
-0.21597681
0.085216694
-0.078645223
-0.016160508
0.29033141
-0.25833529
0.11370539
-0.032382573
-0.0027211395
0.28558345
-0.25377745
0.080668033
-0.058285309
-0.017119454
0.31241074
-0.20024201
0.040513358
-0.068720189
0.0081289072
0.31439336
-0.20898554
0.055727783
-0.06587105
-0.013615774
0.3078117
-0.27368679
0.077141672
-0.05521468
-0.0037065713
0.31906494
-0.26756442
0.12264985
-0.050379082
-0.0095916016
0.31144885
-0.22942296
0.062726264
-0.042942104
-0.023589525
0.29996336
-0.24773095
0.12366337
-0.057158967
-0.010984066
0.30330408
-0.25003864
0.078863923
-0.069890707
-0.0036931478
0.30763599
-0.21527375
0.059520294
-0.073401882
-0.0033009316
0.30552099
-0.19839962
0.073753783
-0.043446492
-0.012998142
0.30551409
-0.19976408
0.064126925
-0.039330317
-0.016165139
0.29308386
-0.22114715
0.081215972
-0.068981119
-0.01968029
0.31442344
-0.17821133
0.046856467
-0.075340007
0.0052896733
0.30857917
-0.22340203
0.04540003
-0.088477523
0.016336785
0.30561905
-0.27786629
0.07753097
-0.051853655
0.015397358
0.30865632
-0.2730369
0.093386129
-0.036833695
0.03469731
0.30109038
-0.25943709
0.061497369
-0.092172865
0.028588559
0.31800114
-0.20706263
0.038043868
-0.071428381
0.028201828
0.30391342
-0.19461167
0.039284247
-0.074126784
0.0096498498
0.30668092
-0.23173951
0.051368247
-0.0702147
-0.014458344
0.29908513
-0.25778206
0.11177254
-0.049324758
-0.012233393
0.30394581
-0.27171891
0.10895076
-0.024035718
0.018598537
0.30134251
-0.26946758
0.10496413
-0.048789711
0.014457652
0.29376815
-0.23804997
0.06427078
-0.10068908
0.023788964
0.32375913
-0.1718403
0.049239184
-0.080991836
0.031089001
0.29760784
-0.21117513
0.052324386
-0.078160348
-0.0098987687
0.28710569
-0.23719862
0.11089305
-0.037235445
-6.4218736e-05
)
;
    }
    maxZ
    {
        type            fixedFluxPressure;
        gradient        uniform 0;
        value           nonuniform List<scalar> 
150
(
0.28917463
-0.2613625
0.11364306
-0.035749509
0.024588939
0.28942966
-0.24849986
0.088628641
-0.076021564
0.047418214
0.2885583
-0.25631403
0.095718122
-0.078701946
0.021695073
0.29572673
-0.27012266
0.11128503
-0.014152141
0.0040756708
0.29933668
-0.26461002
0.12732619
-0.0073010418
0.0085549463
0.29218543
-0.26631811
0.089541656
-0.046002856
-0.018502841
0.29820901
-0.24879749
0.079855763
-0.068748262
0.019771257
0.31702969
-0.23888307
0.037951976
-0.060635215
0.027689783
0.30097889
-0.27249216
0.092140716
-0.071274706
0.03588805
0.30748911
-0.27935566
0.099214152
-0.054782381
0.023500238
0.30182224
-0.2705576
0.094618847
-0.088878521
0.010034418
0.29914573
-0.24401325
0.09515324
-0.1043686
0.024407719
0.2988936
-0.24257086
0.10292481
-0.098814781
-0.0090770133
0.30738375
-0.22718488
0.087361774
-0.062710151
-0.016742471
0.31112333
-0.19962085
0.085212052
-0.05533821
-0.008631556
0.3245069
-0.19184383
0.031299317
-0.091581613
0.015172339
0.2930657
-0.25713974
0.069514354
-0.080818365
0.021977081
0.2962663
-0.25700952
0.090884866
-0.077663898
0.0010438522
0.28833768
-0.24417133
0.12301477
-0.06725979
-0.014919454
0.2929266
-0.25640741
0.11705919
-0.019548281
-0.0054551519
0.29171735
-0.25330717
0.10369563
-0.045878059
-0.0085606455
0.30530917
-0.21813084
0.072518811
-0.062860832
-0.014363662
0.3102887
-0.17078669
0.063218641
-0.07089528
0.012843911
0.30370079
-0.20195702
0.065243932
-0.075018885
-0.0059290614
0.30157328
-0.20930033
0.075480662
-0.051966118
-0.0081152601
0.28594146
-0.22596611
0.11373271
-0.053126525
-0.017949778
0.29410338
-0.23266353
0.078235883
-0.091574681
0.006426269
0.32137196
-0.18517543
0.041383022
-0.068603078
0.019314928
0.30036892
-0.23216237
0.046745335
-0.094302381
0.01266858
0.30584921
-0.26385642
0.080969597
-0.041201672
0.017185176
)
;
    }
    bottomWater_to_rightSolid
    {
        type            fixedFluxPressure;
        gradient        uniform 0;
        value           nonuniform List<scalar> 
130
(
0.015397358
0.03469731
0.028588559
0.028201828
0.0096498498
-0.014458344
-0.012233393
0.018598537
0.014457652
0.023788964
0.031089001
-0.0098987687
-6.4218736e-05
0.020881482
0.022897032
0.014238658
0.023961514
-0.0086680455
0.001952653
-0.026100268
-0.0083167972
-0.02020027
0.0099958193
0.04269987
0.010201321
-0.0014465592
0.013053711
0.021351758
0.032736662
0.0034240332
-0.00401983
0.016312622
0.012752383
-0.013322908
0.012080832
-0.00011393038
0.011388344
0.01067108
0.013013134
-0.0050094246
0.014707266
0.01381446
-0.013026908
-0.013172238
0.001346445
0.0057497636
-0.007143609
-0.002696112
0.027988899
0.0098374432
-0.001540177
0.0002790861
0.023662097
-0.0078980946
-0.010305136
-0.012362327
-0.011984894
-0.0072296671
0.0037772294
0.00010633135
-0.012025276
0.0044693313
0.043213819
-0.0045071127
-0.010153327
-0.019403708
-0.01966599
-0.01365471
-0.0027125095
0.0059609768
0.0075065936
0.0059902073
0.012703645
-0.0012763763
0.014689096
0.024892141
-0.014722423
-0.0069680139
0.0066201027
-0.0044439796
-0.0039242151
0.018236595
0.024903374
0.03674326
0.02992359
0.020913925
0.00092928648
-0.011981734
-0.0050328969
-0.017546428
-0.0072122081
0.021173697
0.031847038
0.022449508
0.028324936
0.034221376
0.040046317
0.036042425
0.016303128
0.015044721
-0.010895468
0.0016965304
0.0029713529
0.0075376717
0.017658834
0.022847809
0.0049632517
-0.0030914428
0.010634066
0.039176559
0.010313995
-0.0098525714
-0.0080894555
-0.011043907
0.0053821754
0.014956775
0.016504252
0.0010438522
-0.014919454
-0.0054551519
-0.0085606455
-0.014363662
0.012843911
-0.0059290614
-0.0081152601
-0.017949778
0.006426269
0.019314928
0.01266858
0.017185176
)
;
    }
    bottomWater_to_leftSolid
    {
        type            fixedFluxPressure;
        gradient        uniform 0;
        value           nonuniform List<scalar> 
130
(
0.0095452849
-0.016160508
-0.0027211395
-0.017119454
0.0081289072
-0.013615774
-0.0037065713
-0.0095916016
-0.023589525
-0.010984066
-0.0036931478
-0.0033009316
-0.012998142
0.012851673
0.018883454
0.0082865425
-0.018364134
0.0089048211
0.017108567
0.0029074689
0.0022504034
-0.012970244
-0.0006148121
0.0059534248
0.020346819
-0.0035257144
0.024147043
0.017856256
0.015973074
0.0011926169
-0.0011579801
0.018890212
0.017567864
0.057712304
0.026430012
0.019888428
0.028218636
0.024746692
0.01342109
0.012665223
0.0089901631
0.0022465301
-0.014133007
-0.016654472
-0.013804707
0.012602587
0.046944081
0.015819322
0.056676799
0.045431776
0.013085815
0.017649802
0.00056513569
0.010991487
0.015800093
0.0052764861
0.0077708914
0.001390554
-0.012360357
-0.0046225601
0.007046109
0.012052742
0.0019696154
-0.013663068
-0.0091013714
-0.0045321517
-0.010369106
0.012556227
-0.0012397958
0.0033411599
0.022009355
0.027912075
0.00050066989
-0.018422301
-0.00043536462
0.0041733491
-0.011985081
-0.0047558175
-0.00080399426
-0.011140198
-0.011307542
-0.019915722
0.0048624303
0.017020123
0.028365694
0.017211337
0.0095980929
0.0073636212
-0.019545817
-0.0091279526
-0.016232717
-0.0011921856
-0.0084143196
-0.013947336
-0.024029111
-0.00011532742
0.022332286
0.018876702
0.026122821
0.013327865
0.013637935
0.0014109792
-0.011660969
-0.014412484
0.010194226
-0.0026221289
-0.016116012
-0.017923795
-0.010099188
1.0609517e-05
0.016607846
0.017091952
0.034364344
0.017365547
0.015272895
0.0018659175
-0.012765732
0.024588939
0.047418214
0.021695073
0.0040756708
0.0085549463
-0.018502841
0.019771257
0.027689783
0.03588805
0.023500238
0.010034418
0.024407719
-0.0090770133
)
;
    }
    bottomWater_to_heater
    {
        type            fixedFluxPressure;
        gradient        uniform 0;
        value           nonuniform List<scalar> 
92
(
-0.016165139
-0.01968029
0.0052896733
0.016336785
-0.015183876
-0.011467857
-0.01374567
0.012152914
0.0069843794
0.0064492511
-0.0066841257
0.0083848027
0.29101545
0.28581588
0.29024814
0.28550808
-0.27058926
-0.26371496
-0.25428916
-0.26993283
0.11097796
0.10681441
0.084110047
0.11386224
-0.058996942
-0.089447068
-0.090937511
-0.055564959
-0.010985614
-0.010985614
0.030969909
0.030969909
0.019165607
0.019165607
-0.0018316015
-0.0018316015
0.29699915
0.3008837
-0.26601769
-0.24007081
0.091433985
0.10790983
-0.045624128
-0.10531137
-0.0091013714
0.023662097
0.29754326
0.30968807
0.30740541
0.29745632
0.30768853
0.30186343
-0.25725479
-0.19831746
-0.22505315
-0.26740549
-0.22487314
-0.27295325
0.14223819
0.044416775
0.04938083
0.076741812
0.074731144
0.099264166
-0.040655187
-0.073109092
-0.068754142
-0.073942168
-0.071971018
-0.047408645
-0.0047558175
-0.006991281
0.015055614
0.0065753692
-0.019403708
0.017310209
-0.006991281
0.015055614
0.0065753692
0.017310209
0.0056387365
0.013915516
0.024188327
0.040000153
-0.0090600038
0.001034572
0.027463501
0.021748961
-0.016742471
-0.008631556
0.015172339
0.021977081
)
;
    }
}


// ************************************************************************* //
