/*--------------------------------*- C++ -*----------------------------------*\
| =========                 |                                                 |
| \\      /  F ield         | OpenFOAM: The Open Source CFD Toolbox           |
|  \\    /   O peration     | Version:  v2012                                 |
|   \\  /    A nd           | Website:  www.openfoam.com                      |
|    \\/     M anipulation  |                                                 |
\*---------------------------------------------------------------------------*/
FoamFile
{
    version     2.0;
    format      ascii;
    class       surfaceScalarField;
    location    "660/bottomWater";
    object      phi;
}
// * * * * * * * * * * * * * * * * * * * * * * * * * * * * * * * * * * * * * //

dimensions      [1 0 -1 0 0 0 0];
oriented        oriented;


internalField   nonuniform List<scalar> 
3858
(
-8.6460448e-05
2.4033952e-05
6.5250362e-05
-1.0265735e-05
-0.00016662252
9.1526567e-05
-0.00015131179
0.00012877158
1.4608716e-05
-0.00022961161
0.00010949536
-2.7640718e-05
4.9269066e-05
-0.00028059572
-6.271674e-07
0.00015437689
-0.00017218791
6.4195736e-05
7.5498341e-06
8.7707706e-05
5.7579483e-05
6.2661992e-06
-2.1691622e-05
1.8715904e-05
0.00014528054
-0.00026651045
0.00012535209
-3.024262e-05
9.0829546e-05
8.4930348e-05
-0.00022346549
8.0722707e-05
0.00011207624
-0.00015055142
-0.00021129872
0.00013723464
1.0681919e-05
-0.00031611845
0.00015412597
3.9043017e-05
-0.0001975398
0.00016823957
-2.5615626e-05
-6.6014502e-05
0.00013236368
0.0001684422
-0.00024610937
4.9202986e-05
0.00024814636
-8.888948e-05
7.6498439e-06
0.00011404992
8.6048829e-05
4.7152059e-05
-9.782481e-05
0.00012548738
8.4757822e-05
-0.00020723052
4.348853e-05
6.5957855e-05
-3.8020616e-05
-0.00030306574
0.00013038126
6.2460361e-05
-0.00019357495
9.2484906e-05
0.00013811497
-0.00015850272
8.167184e-05
8.7403009e-05
5.192336e-05
-8.4010216e-07
-1.8855718e-05
7.604399e-05
2.9451576e-05
-0.00018746385
6.7838878e-05
0.0001007198
-0.00020735675
-7.395658e-05
9.5631629e-05
9.7553608e-05
-0.0004501465
0.00014068212
0.00020780755
-0.0002783906
0.00016922411
7.2727189e-05
0.0001382386
-0.00011094119
-7.7932358e-05
0.00021290749
1.203684e-05
-0.00042445596
0.00013485541
-0.00023938157
0.00041355827
-3.3368283e-05
-0.00018491793
0.00011795758
-6.292585e-05
0.00017400454
-0.00061570777
-2.381041e-05
0.00036890083
-0.00041395222
4.6868036e-05
0.00010879978
0.00030220401
4.5604746e-05
-0.00021010532
0.00040716685
-0.00010995336
0.00010373311
-0.00065481357
7.44647e-05
-2.7897539e-05
8.079086e-05
0.00014166934
-0.00030555109
0.00017541245
0.00018296381
-0.0001695616
-0.00052662089
0.00017933267
-5.0651133e-05
-0.00065041892
0.00021539
3.0401639e-05
-0.00045569012
0.00017709753
7.9392204e-05
-0.00022542114
0.00011041606
0.00036772444
-0.00052783292
-6.6086916e-06
0.00059629799
-0.00021883262
-9.8630408e-05
0.0002297711
0.00052548882
-7.2913104e-05
-0.00033597423
0.00070883981
-1.7607097e-05
-0.0003788197
4.7577982e-05
3.8756015e-05
-0.00013783233
-0.00068090749
0.00013685439
-4.2276909e-05
-0.00047216413
0.00018303375
0.00020190995
-0.00048169027
7.9000694e-05
0.00031845208
2.2556626e-05
-8.7175397e-05
-6.0803253e-05
0.00057234127
-0.00011704194
-0.00041857098
0.00053948764
-0.00011388103
-0.00025750741
-0.00021003654
-2.4983611e-05
-3.5112079e-05
-0.00079723905
0.00012469722
0.00010037949
-0.00062350892
0.00020962676
-3.7416608e-05
0.00021052328
3.3856297e-05
-0.00012161933
9.8306685e-06
-6.6628789e-05
-0.00027942512
-4.4545758e-05
0.00025946123
-2.222454e-05
0.00010969279
0.00046118697
-7.1818388e-05
-1.1949756e-05
-1.3169883e-05
-7.4233171e-05
-6.7117732e-05
-0.00029549176
-5.4842829e-05
-7.6787505e-05
-0.00017705333
0.0001794075
4.3580983e-06
-4.7015742e-05
0.00023158991
4.5539382e-05
-0.00010903908
-0.0005449881
-4.7802114e-05
9.3332516e-05
-0.00023636889
0.00011478816
0.00020393144
6.3796547e-05
1.0169771e-06
1.1485189e-05
-0.00016648845
-0.00016768621
-8.0673068e-05
-0.00046984394
-8.8416747e-05
2.52536e-05
-0.00047350077
-8.811604e-05
0.00020119885
-0.00025711854
-0.00014424786
-0.00010665126
-9.784547e-05
-0.00012213735
-8.9092293e-05
-9.686866e-05
-0.00013952293
7.9146394e-05
0.00042138691
-6.4136783e-05
0.00015950426
0.00066178344
-3.3301496e-05
0.00029998082
2.5304314e-06
-9.542901e-05
-7.1434557e-05
-9.1100094e-05
-0.00021839201
-0.00035248512
-7.7099743e-05
-0.00011401382
-0.00042446598
-0.00027032464
-0.00013938476
-3.1382905e-05
-0.00041431366
4.3787216e-05
0.00010692981
0.00044951821
-1.5489658e-05
0.00019525303
0.00048994805
-3.8783633e-05
0.0002623585
-3.7722949e-05
-0.00023941906
-0.00014186441
-7.8326362e-05
-0.00031468978
-0.00038792452
-0.00025887707
-0.00011857174
-0.00049839153
7.3050399e-05
-0.00019400544
0.00013992491
-6.75388e-05
-0.00015626762
-0.00027964232
-3.7520619e-05
0.0001188035
-0.00037890091
8.1605266e-05
0.0001768256
-0.00016090938
3.1068913e-05
-0.0001024712
0.00018056988
2.449376e-05
-0.00029934847
-5.4488794e-05
0.00019652326
-0.00017439964
3.0353164e-05
2.4105531e-05
-1.1681393e-05
-0.00014961161
0.00021848329
2.1881256e-05
-0.0005539882
-2.4562526e-05
9.4329565e-05
-0.00030116988
-7.6473102e-06
0.0001066812
4.2968681e-05
8.4762229e-06
-5.6795718e-05
-6.2583581e-05
5.9572035e-05
-7.9517989e-05
-0.0004454163
-1.705389e-06
-5.3903884e-05
-0.00047203261
-2.7082287e-05
2.5500377e-06
-0.00019202998
-0.00012154249
-0.00013446691
0.00013341967
-9.4248199e-05
-0.00025580029
0.00012890487
-0.00010444015
-4.2591863e-06
0.00016835345
1.4923548e-06
0.00031043845
0.00034016038
6.925423e-06
0.00024541354
0.00015835991
-9.0804575e-05
7.9383316e-05
0.00015196707
-7.7036933e-05
6.4240713e-05
0.00014347346
-0.00020543059
2.2210702e-05
-0.0001868245
-4.1470119e-05
6.8198874e-05
-0.00044313158
-1.717025e-05
0.00029245835
0.00014385289
8.1405854e-05
0.00045977893
0.00027425949
4.8367974e-05
0.00032776063
0.00016314436
-6.8849011e-05
9.6551779e-05
0.00018647807
-3.3595573e-05
5.8625187e-06
-0.00019450407
2.6316257e-05
-0.00050509604
1.2567029e-05
0.00024222369
-0.00010229878
0.00017025515
-0.00020767378
-3.2373695e-05
-0.00017627206
-0.00016559716
-2.7685901e-05
-1.7275154e-05
3.2247888e-05
-6.226123e-06
-6.5537804e-05
0.00011445377
-9.0326708e-05
0.00016655198
-0.0002017098
-9.9722136e-05
-0.00028771407
-0.00013262296
-0.00026826906
7.4860369e-05
-0.00016451465
0.00021142869
-0.00019915192
-4.8907301e-05
-0.00018508033
-0.00040373711
-0.00011720282
-0.00051832573
-7.7441376e-05
-0.00039850134
1.3595274e-05
-0.00027548997
5.8934863e-06
-0.00012923167
2.2095146e-05
0.00014606336
6.4865356e-05
0.00028471994
1.9703341e-05
0.00042247256
1.4214441e-05
0.00054233152
2.3614506e-05
0.00041652709
-6.1020074e-05
3.4075424e-05
-6.0679912e-05
1.1233928e-05
0.00016669438
0.00018275122
0.0001027422
0.00027214224
7.3753337e-05
0.00049363138
-3.5011068e-05
0.00040443785
-0.00010531055
-0.00010065819
-6.3647113e-05
0.00016038146
-2.865144e-05
-0.00010654565
8.2749702e-05
5.3859384e-05
-0.00021826204
0.00013887811
-9.5090921e-06
-0.0002226848
3.7822999e-05
-5.7431751e-05
4.8439347e-05
-0.00027040683
-2.7038254e-06
0.00010484263
-8.4487656e-05
9.0101826e-05
-3.2137065e-05
0.00010732165
8.6420352e-05
0.00012575779
-0.00026305421
0.00011982129
0.00016942436
-1.4169962e-05
9.876818e-05
4.4006923e-05
0.00015085593
6.0007821e-05
-6.7827262e-05
0.00014129176
8.3429315e-05
-6.5770115e-05
2.4086542e-05
0.00011225452
-4.7069717e-05
1.2772571e-05
0.00012476745
-0.00011666377
9.3028192e-05
0.00014705367
-0.00015371272
7.2954897e-05
9.9064559e-05
8.1895541e-05
-0.00022968417
4.2312197e-05
0.00025857582
-0.00024965657
7.9575457e-05
0.00016267158
8.7745989e-05
5.6749504e-05
1.4239668e-05
0.00015251834
8.0610226e-05
-6.3493591e-05
0.00015263167
-9.7478056e-06
-0.00013031222
0.00012334028
7.4844014e-05
-0.00015535896
0.00011120035
6.30459e-06
-0.0001410093
3.6283019e-05
3.0369577e-05
5.5418756e-05
-0.00024726351
4.7656298e-05
0.00022275484
-0.00024370988
0.00010588901
0.00026929676
-3.4978652e-05
9.1281823e-05
0.00017636249
0.00012712734
6.6506755e-05
0.00013600658
6.5805973e-05
0.00012006269
8.7601763e-05
7.5740784e-05
0.00014705427
0.00012953457
0.00010030724
-0.00026401408
0.00053342081
0.00010388222
-0.00018305039
-2.5043958e-05
0.00016168537
-0.00020680959
0.00011957193
9.6971034e-06
-0.00010126819
-9.1420905e-05
-3.9223337e-05
0.00024812818
-0.00062052192
-2.3091681e-05
0.00026936345
-0.00020057318
0.00014171829
-8.5630216e-05
0.00046451396
4.3406113e-05
-2.4465333e-05
-0.00057402003
0.00013984759
0.00014922166
-0.00024859994
0.0001352077
2.6266504e-05
0.00031226431
0.00010321611
-0.00025946509
0.00049520851
0.00011477865
-0.00023207474
-9.9569164e-05
0.00027559802
-0.00020489389
-9.4505459e-05
0.00029548717
-0.00025024856
8.7124077e-05
0.0002283563
-0.00013474994
-3.3348898e-05
0.00010122122
0.00016483972
-0.00051622698
-1.9655543e-05
0.00041524105
-0.00060985557
1.116726e-05
0.00043328308
4.2396074e-05
-4.5605219e-05
7.7213391e-05
0.00058426112
-9.3280197e-05
-0.0001850323
0.00053508123
-8.144785e-05
-0.00019556832
0.0001058751
0.00016485559
-0.00038956966
0.00040135466
8.6880789e-05
-0.00029843224
-3.6439048e-05
6.0585339e-05
-2.4225904e-05
-0.00058593086
-2.2714375e-05
0.00014648162
-0.00056834388
3.6884538e-05
0.00019913831
-0.00015542341
-4.6092967e-05
0.00021190086
7.8993311e-05
1.0387867e-05
0.00018503308
-1.1954519e-05
0.00022932549
0.00016685216
-7.2717496e-06
0.00031082022
0.00027816364
0.00022874636
-1.3942674e-05
0.00049386372
6.3330427e-05
-2.920972e-05
-9.7786513e-05
4.3463842e-05
5.6335973e-05
-8.5359636e-05
0.00022907867
0.0003220636
-0.0004497095
8.061123e-05
-4.937698e-05
-0.00019941223
-0.00011678683
-0.00014748277
-2.3493583e-05
-0.00015576129
-1.3468659e-05
0.00036939572
-3.4537753e-05
-0.00029658988
-0.00010936232
-0.00013599708
-0.00031001283
-0.00017488273
-0.00010809636
-0.00015304843
0.00022410004
4.5988039e-05
-8.3719365e-05
0.00040581079
2.1085629e-05
-0.00021286811
-9.0848564e-05
-4.7258078e-05
-0.0002465597
-0.00015330395
4.0733195e-06
2.5319031e-05
-0.00031201073
3.9140014e-05
0.00030800767
-0.00042239652
-3.7888896e-05
6.6347204e-05
-0.00026174689
-0.00013495699
-0.00029460924
-8.1717401e-05
-0.00030670466
-0.00015924998
-1.3405457e-05
-0.00014369451
-3.3487731e-05
0.00052373824
-9.8540861e-05
-7.6688712e-05
0.00037143844
0.00011141476
-0.00011536884
2.0751253e-05
-9.458803e-05
-3.7042158e-05
0.00028818274
-7.9168584e-05
6.5934611e-05
-7.6802663e-05
-0.00020199792
-1.6264365e-06
-0.00043011243
-4.4470171e-05
-8.1560904e-05
-0.00045992078
-4.3978288e-05
2.4897031e-05
-0.00029810522
-2.559758e-06
2.3798893e-05
-2.2228706e-05
-0.00013709891
-0.00015770622
-4.6532735e-05
-9.8606455e-05
-0.00022319153
-6.8175327e-05
7.8171422e-06
1.0296088e-06
0.0001269929
0.0002503095
0.00020043507
-2.4419656e-05
-6.7654243e-05
0.00028738515
-0.00010472854
-0.00012120062
-2.4166003e-05
7.3958018e-05
8.7404248e-05
-0.0005290479
-9.8197546e-05
-1.0458483e-05
-1.7334196e-05
-5.9721522e-05
-0.00017862745
0.00036869859
-2.749993e-05
-1.7315461e-05
0.0001973615
3.4827797e-05
-0.00015775419
5.7659045e-05
0.00019190068
-0.00020164616
-0.00017641676
2.0863486e-05
-2.0383589e-05
-6.7953331e-06
4.1985495e-05
0.00017485849
0.00020729567
1.1749255e-05
-0.00016511404
0.00036863523
-5.9939246e-05
-0.00030172721
5.3952695e-05
-7.2348881e-05
-0.00015824942
-0.00040542911
-7.7141721e-05
-0.00015096678
-0.00046584382
-8.5377857e-05
-0.00015496816
-0.00023378423
-0.00011820948
-0.00025266644
0.00012403331
-0.0002124926
-0.00027058
0.00017042757
-0.00016442711
2.2015433e-05
0.00023575391
2.3143162e-06
0.00012743831
0.00012942151
4.578948e-05
-6.1228886e-05
0.00024310916
-0.00011072764
9.2110143e-05
5.2190033e-05
-0.00012277692
0.00012892605
2.3459144e-05
-0.00017854783
8.7771874e-05
-0.00046024414
5.4115644e-05
0.00014452727
-0.0004827527
4.7482373e-05
0.0002398406
-0.0003377325
-7.3180758e-06
0.00020386697
6.8549491e-05
-0.00012365357
-0.00016989521
0.00041440158
-0.00012076771
-0.00030106554
0.00013578412
-4.6472866e-05
-0.0002467045
-4.0764401e-05
0.00016102908
-6.2892793e-05
0.00032527125
-8.4530793e-05
0.00021750972
-9.2676532e-05
-0.00028577101
-5.3453058e-05
-0.00033203126
6.1173958e-05
-5.2879593e-05
2.4009141e-05
9.1302946e-05
-3.7147726e-05
9.0353479e-05
-0.00014310127
-0.00010700994
-0.0002667674
-0.0001299853
-0.00025208903
4.2783119e-05
-0.00012998741
0.00028271615
-7.0449738e-05
0.00029022018
-0.00013863167
-6.8952988e-05
-0.00016345878
-0.00040989218
-0.00020234602
-0.00052846415
-0.00010161699
-0.00037018917
-2.8348191e-05
-0.00016731075
-1.0355707e-05
8.1606301e-05
5.1702217e-05
0.00020194001
2.8791145e-05
0.00038342825
7.5835355e-05
0.00041664466
4.2588136e-05
0.00048813786
-0.00010905413
0.00011563413
-0.00014842032
-0.00021040737
9.9831805e-06
-0.00035214483
-9.3252833e-05
-0.00016327747
-4.6564534e-05
0.00018748644
2.8626598e-05
0.00024649419
-2.8534174e-05
-0.0001008685
-7.0243052e-05
0.00015007792
-0.00010636442
-0.00016321734
0.00016520952
-1.639007e-05
-0.00022395422
0.00011028421
-5.6072095e-05
-4.6194464e-05
-0.00023123801
-3.6397309e-06
0.00017416949
-0.00023369466
8.183708e-06
0.00017385644
5.9237657e-05
3.0397526e-05
0.00012469448
0.00014236195
-7.6125036e-06
0.0001324675
6.2946699e-05
4.8501313e-05
0.00012076434
0.0001265852
-1.5973609e-05
9.1776927e-05
0.00014539563
-5.6770611e-05
5.4021516e-05
0.00015231915
-3.1371382e-05
1.1970481e-05
0.00015343035
1.2451473e-06
-4.6416376e-05
0.0001780488
6.1309014e-06
-0.000155007
0.00016319534
9.4318737e-05
-0.00010310052
-2.5201129e-05
7.5398791e-05
0.00015641733
-0.00028688693
6.8461732e-05
0.00013890058
5.6116147e-05
4.2863121e-05
7.818781e-05
0.00015695589
-3.8961373e-05
5.6657943e-05
0.00014728052
-4.4280886e-05
8.5069887e-05
8.6017871e-05
-0.00012309389
9.0665735e-05
0.00017584066
-0.00010455028
9.4982486e-05
0.0001636331
-0.00016014856
0.00011157731
0.00014189738
-0.00012648716
0.00010686965
0.00014624924
-9.0862331e-05
0.0001244571
0.000121103
-2.9613958e-05
0.00014187086
0.00014935433
-7.2240708e-05
0.00011144291
0.00016563099
-6.5299075e-05
8.429995e-05
0.00016644478
-1.596606e-05
5.9903946e-05
0.00014873415
2.5514634e-05
0.00013813676
2.5127236e-05
-0.00021636613
0.00053063894
-6.0312679e-05
-0.00036739646
0.00048625233
-8.3271059e-06
-0.00018595581
-5.1346342e-05
-1.0112989e-05
8.569696e-05
-0.00060190386
5.9789749e-05
0.00031855131
-0.00057270262
8.306194e-05
0.00031808272
4.6292626e-05
0.00015513192
6.0405699e-05
0.00050381685
-6.0371754e-05
0.0001215954
-2.3819245e-05
0.00016542384
0.00025758354
6.9316183e-05
5.6488584e-05
0.00015253953
0.00052190273
-0.00016824698
-4.7558681e-05
0.00061088168
-0.00014368567
-0.00022781004
0.00057453566
3.4744065e-05
-0.00032783007
0.00046140553
0.00011215045
-0.00020370378
8.730083e-05
0.00018012451
1.9177379e-05
-0.00025859717
0.0001117361
0.00035257859
-0.00068541706
4.5473364e-05
0.00036221961
-6.7948805e-06
6.4437271e-05
8.5839508e-05
0.0005244596
-0.00013672883
-0.0001166948
0.00045916544
-0.0002026308
5.141601e-05
-2.2816899e-05
-0.00014072389
8.3529849e-05
0.00039403721
-8.5454796e-05
-6.9969139e-05
0.00054487343
-0.00014086055
-0.00016314838
0.00038608592
-9.0423959e-05
-3.9026266e-05
0.00016678205
-0.0001673693
8.0642717e-05
0.00017687777
-0.00013855921
0.00018541783
0.00019459126
-0.00019610502
0.00018613964
0.00037905893
-0.00020376188
0.00010586336
0.00045903619
1.7010368e-05
4.2001523e-05
0.00045450355
6.891265e-05
0.00036112119
4.7763456e-05
7.7443529e-05
0.00051150785
5.0179865e-06
0.00015976866
0.0003896476
5.7743437e-05
0.00024418012
-8.335264e-05
0.00017667351
4.0212538e-05
-0.00037584712
5.8522078e-05
-0.00017170591
-0.00037517925
-0.00010239174
-0.00014227828
-2.0828911e-05
-0.00011806737
-5.8500626e-05
0.00035293632
3.2565142e-05
-1.1306324e-05
-0.00010807976
-9.8930851e-05
7.5276417e-05
-4.1307646e-05
-8.4055261e-05
9.6180323e-05
0.0004110913
0.00013589557
4.1167378e-05
0.00056508908
0.00012189117
5.0381868e-06
0.00052978309
3.3623672e-05
7.8710508e-05
0.00037442067
1.7385838e-05
0.00019076722
-3.0234746e-05
4.4618861e-05
0.00020217301
-0.00023195894
-7.5932934e-05
-0.00011053866
-0.0003183904
-0.00018927198
-0.00014974097
-3.0020731e-05
-0.00024427651
-4.8664849e-05
0.00045376478
-0.0001740758
1.2732444e-05
0.00036624929
-6.7022007e-05
-8.1208799e-06
-8.5526537e-05
0.00019497772
-8.4064638e-05
0.00031520928
6.0183659e-05
-3.196783e-05
0.00049267254
-7.90645e-05
-4.8435969e-05
0.00026010351
-5.9547361e-05
-8.0951743e-05
1.2365016e-05
0.00014246264
0.00015583013
-0.00018603374
8.2151352e-05
0.00021462412
7.2912407e-05
6.0325101e-05
0.00015434224
0.00027130172
3.0940179e-05
1.0909531e-05
0.00036627591
0.00013758653
-0.00010462407
0.00037427679
0.00020357751
0.00029758586
8.5904166e-05
0.00020242698
0.00030881887
-2.415766e-05
0.00031607954
0.00019033443
-1.906793e-05
0.00018416494
0.00017362065
-5.1100662e-05
0.00010963872
-0.00034821837
-5.1300067e-05
1.4594728e-05
-0.00030575498
-3.4101775e-05
-6.0051534e-05
0.00019556885
-0.0001692514
4.7494535e-05
0.00021085523
6.9362852e-05
-0.00025230889
0.00040843319
-2.4808814e-05
-0.00038714065
0.00017869136
-6.4303748e-05
-0.00010962003
0.00012244421
5.3111969e-05
3.3561998e-05
0.00033039568
0.00010326062
0.00015712094
0.0003400232
6.2616874e-06
0.00030642023
0.00022986407
-7.7091597e-05
0.00018131117
9.7576178e-05
-7.9843607e-05
3.4849837e-05
-0.00018257407
1.1698583e-05
-0.00010802314
-0.00028801779
-5.7091295e-06
-0.00020735071
4.3086629e-05
-0.0001862724
6.5572926e-05
0.00015825802
-0.00014184398
0.00012479533
0.00023010704
7.9234163e-05
-0.00026669484
0.00030051769
5.1235426e-05
-0.00019727035
8.5325379e-05
4.9731777e-05
0.0001477496
-3.9920475e-05
6.4796152e-05
7.5239725e-05
0.00025752196
-0.00010345639
-0.00012629711
0.0001646666
0.0001033509
7.088284e-05
-0.00033634156
6.1025165e-07
6.9222162e-05
5.68577e-05
1.0397311e-05
2.5101818e-05
9.1207362e-05
0.00010056113
1.0977695e-05
8.9807539e-05
0.00016982479
-1.8635167e-05
0.00019625038
0.00016116641
0.00020861141
2.957488e-05
0.00022153027
2.4395808e-05
0.00030212493
2.5208977e-05
0.00036272599
2.0343068e-05
-3.4576139e-05
-4.3692873e-06
-0.00037790885
9.875171e-05
-0.00027264785
0.00011431701
-0.00019620417
9.7263841e-05
1.6424201e-05
5.2703564e-05
-3.703203e-05
-3.4619799e-05
-9.1367143e-05
-7.5309711e-05
6.7893219e-05
4.1147894e-05
0.00024346781
9.3998851e-05
0.00030862158
2.6078614e-05
0.00021426674
2.8472217e-05
-2.1301628e-05
-0.00014935173
-0.00028987697
-0.00012105945
-0.00026927034
-5.8682054e-06
-9.5378027e-05
-2.5989998e-05
6.3953905e-05
0.00012247732
0.00024705875
0.000146204
0.00022337083
0.00018484866
0.0001014607
0.00012457779
0.00021671974
3.320879e-05
0.00026452063
-3.1554606e-05
1.4898133e-05
-7.6735884e-05
-5.3453521e-05
3.1956523e-05
-3.3455864e-05
2.4645171e-05
-3.2874574e-05
0.00011785285
-1.7069877e-05
0.00015191151
9.0673033e-05
-0.00010845478
0.00015896362
-0.00015420364
-0.00021804997
0.00018513774
-8.8535232e-05
-0.00022979644
9.8355157e-05
-0.00013810991
3.7736005e-05
-0.00028576784
1.3270877e-05
0.00019716122
-0.00010773361
-4.5335746e-05
0.00016869922
0.00010498731
-4.7087009e-05
0.00011602384
0.00013802443
-9.2389752e-05
0.00011881284
0.00013285396
-8.7845128e-05
0.00010986214
0.00015622992
-0.00016175972
0.00013197968
4.0686211e-05
-0.00011678294
8.9476558e-05
0.00012168803
-0.00010751314
2.0841208e-05
0.00015653667
-8.457519e-05
-1.0583074e-05
0.00013145558
-9.2862945e-05
-8.4620042e-05
0.00017058311
-0.00014506386
0.0001392879
-0.00014682095
7.2674426e-05
-0.00024283227
0.00014249108
-0.00024633639
0.00014567546
-0.00017959254
-0.00014351894
3.7136911e-05
-0.00018274907
0.00017916193
-0.00034065314
-0.00010783515
0.0002284835
3.4760277e-05
-0.0001846835
0.00015139094
0.00013962469
-0.0002200639
7.007087e-05
0.00016943776
-0.00021170223
2.4926742e-05
0.00011686553
-0.00015936815
1.9913943e-05
0.00011993064
-0.00013924792
6.2725333e-05
8.1243279e-05
-0.00019286585
4.452637e-05
0.00012633238
-0.00016895728
0.0001705921
-0.00014006092
-1.5591626e-06
0.0001151096
9.1686969e-05
-6.6872302e-06
0.00013069975
1.2387621e-05
-0.00023325844
0.00047691813
-0.00014500875
-0.00030682703
0.00037331691
-0.00012293768
-0.00010060533
-9.0955672e-05
-2.7023859e-05
0.00024623125
-0.000666768
9.3953326e-05
0.00030761845
-0.00026305072
0.00017699186
2.6787547e-05
0.00044106318
9.9886965e-05
4.2202448e-05
8.7587546e-05
-2.5349761e-05
0.00018806464
0.00013154213
2.087349e-05
9.4941632e-06
0.00052895067
-0.00013766168
6.4655019e-05
-3.8063907e-05
-0.00014465772
0.00015674357
9.3859926e-06
-0.00012347219
1.3817563e-05
0.00042650277
-9.2296041e-05
-0.00021024973
0.00055740885
-8.9735541e-05
-0.00024900853
0.00038946641
-4.2865773e-05
4.488123e-05
0.00016275708
-8.7475072e-05
-7.6960106e-05
0.00044664553
-0.0003293266
0.00056362906
-0.00030231594
-0.00022210416
-4.2992541e-05
-0.00022972379
0.00016133278
-0.00077731795
-8.7496014e-05
0.00032284028
-7.712679e-05
-0.00013507523
0.00016702046
0.00033164996
-0.000177066
-0.00018115112
0.00055806561
-0.00013088023
-0.00013333137
-2.4878816e-05
-7.344471e-05
-5.2313462e-05
1.0479065e-05
-0.00011012554
-1.289982e-05
4.9197188e-05
-0.00020347257
5.8211125e-05
6.238121e-05
-0.00021092165
0.00031064415
-0.00041542119
3.9937608e-05
0.00028345252
0.00019371029
-5.9190425e-06
0.00047554671
-1.3630983e-05
8.4839264e-05
0.0004344913
-3.7394456e-05
0.00020859202
0.00028204403
2.5263554e-05
0.00023395787
-9.9842907e-05
0.0001601949
-8.2710386e-05
-0.0003855132
9.3935551e-05
-0.00011976111
-0.00039264259
6.4250868e-05
4.0015159e-05
0.00022667012
-6.3450562e-05
7.4444352e-05
-4.5053629e-05
0.00013077714
8.5534529e-05
-1.2332472e-05
3.3853593e-05
2.5242608e-05
0.00044057726
6.4610078e-05
-0.00010178322
-5.5513179e-05
0.00028037067
-0.00015198655
-2.0555315e-05
0.0002020358
-7.8210802e-05
0.00041698603
-3.0635345e-05
1.2851788e-05
0.00056718929
-8.3457217e-05
0.00018136357
0.00026557347
0.0001882851
-3.7973254e-05
4.3313117e-05
-0.00013177507
3.8536724e-05
0.00020714541
0.0001458152
0.00043327705
-0.00015100227
0.00019284568
-7.2160541e-05
-8.4884488e-05
-0.00026963041
-0.00013103021
1.116608e-05
-0.00019700701
-0.0001704086
8.0842064e-05
3.5700069e-05
-3.0928952e-05
5.0807339e-05
1.3639612e-05
0.00049839934
2.2179374e-05
-7.1026825e-06
-8.7589112e-05
0.00022591523
0.00011130459
-0.00028799764
0.00026222079
0.00023302458
-0.00011776087
0.00010556317
0.00021310371
-2.2204785e-05
0.00013544704
-9.6216155e-05
-4.0834381e-05
7.231959e-05
-7.2586834e-05
0.00017565838
0.00019800009
0.00045042236
3.8441688e-05
0.00018801176
0.00029250868
-7.0186799e-05
0.00028330986
0.00015602203
1.1655982e-05
0.00017711648
1.4982016e-05
-5.9732203e-05
7.8855024e-05
-0.00040242187
6.3870079e-05
8.3253598e-05
-0.00045801347
2.6870552e-05
0.00034597582
-0.00012246036
-8.2843126e-05
0.00014149978
0.00019430203
3.4483256e-05
-8.4378939e-05
0.0003181506
-0.00012941314
0.00014022507
0.00018778654
-3.6117021e-05
-0.00012757165
0.00033364409
-6.8248576e-05
-0.00039075084
0.00030720947
3.8675011e-05
-0.0002000219
0.00021574286
1.6775894e-05
0.00011530016
0.00016298624
1.1789373e-05
0.00042923958
-0.00012820957
0.00012994637
0.00027301852
-0.00020630303
0.00019876518
2.1783252e-05
-0.00020721327
0.00036984375
-2.028182e-05
-3.6345612e-05
0.00012194755
0.00029606306
-4.1093243e-05
-0.00020525884
0.00021485007
3.2561533e-05
-0.00026858224
-0.00013555371
7.8200288e-05
2.9091188e-05
-0.0003874726
0.00012366637
0.00032990879
4.8233875e-05
4.5891478e-05
0.00019630511
0.00015726992
-7.9044519e-06
0.00027288586
-0.00036239008
-1.5780418e-06
0.00019711917
-4.9806548e-05
1.8209673e-05
-0.00020100723
0.00044295328
3.3529471e-05
-0.00036931677
6.3724104e-05
0.00023357585
-0.00027879347
6.303879e-06
0.0002399976
4.933244e-05
0.00015187133
0.0002101141
0.00010679038
0.00032804016
6.3304948e-05
0.00039394344
-3.0578185e-05
3.3203198e-05
-4.6050911e-05
-0.00034574084
1.9682299e-05
-0.00038976569
3.5881511e-05
-0.00026904906
0.00017084927
-0.00011033342
0.00021213854
-0.00010582298
0.0001486563
-1.0930166e-05
0.00016344156
8.98198e-05
0.00024760739
0.00016833215
0.00023122934
0.00015992538
0.0001974716
6.0188009e-05
0.00018385479
0.00026156052
4.8479044e-05
-4.8025377e-06
7.009759e-06
0.00019852587
0.00021521198
0.00031814268
0.00024143725
0.00022195315
0.00014548448
-1.8997157e-05
-2.1944492e-05
6.2264763e-05
1.8074808e-07
0.00023271346
-4.4733377e-05
-8.2326393e-05
-0.00012408612
-0.00024743199
0.00014725557
2.1407985e-05
0.00019875847
0.00010875642
9.4228512e-05
7.3317631e-05
0.00019365418
0.0002133231
-0.00018039752
0.00017434413
-0.00014654153
-0.00029625451
0.00015436203
-0.00012146734
-2.3372445e-05
-0.00034191767
-7.3647449e-05
7.7712808e-05
-5.1791981e-05
-3.9215191e-05
-3.3976733e-06
8.7246994e-05
-5.8039475e-05
-3.5998554e-05
5.5912218e-05
-7.2110759e-05
8.0218135e-05
-0.00022369021
9.559843e-06
-8.2994246e-05
0.00012470087
-5.0763395e-05
-0.00011628115
-3.0369572e-05
-9.9491141e-05
0.00015801397
-0.0004203052
2.4747187e-05
0.00028672796
-0.00023178516
-5.5572373e-06
0.00013835068
0.00015810877
-9.1334244e-05
0.0001696713
-0.00012313794
-0.00015559799
8.2150118e-05
-0.00010595845
-0.00016335004
-3.9489762e-05
-0.0001356559
4.5171473e-05
-0.00019426915
-0.00012373751
0.00023308108
-0.0002798603
-9.4303898e-05
0.00012716962
1.5225409e-06
-0.00011609067
-9.0812623e-05
0.00012806907
-0.00012194111
-7.1993835e-05
-0.00018759796
6.8837304e-06
8.2584441e-05
-0.00028467117
-1.0070816e-05
0.00025781533
-0.00027812145
-8.9898753e-05
0.00011777616
5.9670146e-05
-8.5042559e-05
-1.0560572e-05
6.8882868e-05
6.0648795e-05
0.0001212757
-0.00022858271
9.1011395e-05
0.0001111506
2.6217807e-05
-0.00028671032
0.00045948204
-0.00014343634
-0.00013184675
-4.4489367e-06
-0.00011899029
0.0003226634
-0.00078325997
-4.0191712e-05
0.00043742953
-7.712241e-05
4.517624e-06
-1.7094465e-05
0.00069311956
2.5643289e-05
-0.00013511818
0.00018891646
8.4906443e-05
1.8248226e-05
-0.00057976497
0.0001773586
-0.00019285679
0.00032505462
3.1624762e-05
-0.00015764837
-0.0001127878
-9.0451871e-05
8.8709564e-06
-0.00079805546
6.6573218e-05
0.00016022255
-0.00060831949
0.00010171055
0.00013651104
0.00010636554
-1.6841308e-05
0.00039866342
-0.00018221663
-0.00021339356
0.00010931285
-0.00011608511
-0.00017523655
-0.0001389971
-0.00016837347
9.9972939e-05
-0.00042359247
-0.00013338218
0.00037899279
-0.00064706094
-4.689444e-05
0.00026846966
-4.5117976e-05
-1.9902341e-05
-0.0001255223
0.00035865019
3.2530615e-05
-0.00013722966
-0.00047001041
0.0002206751
-1.3436068e-05
-0.00061751958
9.8929288e-05
0.00018226459
-0.00062537065
-5.1924021e-05
0.00011303665
-4.6098467e-05
-3.5925097e-05
-3.4473015e-05
0.00013722181
0.00011910833
0.00013986322
-0.00059414414
0.00018530615
0.00011231347
0.00012506937
0.00022817547
0.00030895944
-0.00011504733
0.00036721183
-8.1514759e-05
-3.6706987e-05
-0.0001069022
-0.00015878191
9.8308878e-06
-0.0001777449
-6.0710628e-05
0.00014836648
-3.4783159e-05
0.0005318515
8.2557206e-05
0.00012471306
-0.00010302006
6.8989769e-05
6.3283052e-05
-0.00041856099
3.1003189e-05
0.00027213255
7.9461584e-05
7.0597156e-05
0.000260034
-8.4210771e-05
4.8131596e-05
-0.00017596688
-0.00013457871
5.2894815e-05
-0.00045731107
-0.00011424682
-1.0692704e-05
-0.00026892533
-7.7868816e-05
-3.4786742e-05
4.6914538e-05
-6.3367813e-07
-2.8083117e-05
-9.3973998e-06
-4.2089101e-06
6.1090914e-05
-0.00024083913
-7.2216493e-05
6.4296641e-05
-0.00032902095
-8.6611169e-05
-3.181535e-05
-0.00050961873
3.9511847e-05
0.00010907224
-0.00035231892
0.0002171207
0.0002597411
0.00018325403
4.6906665e-05
6.1574432e-05
-8.2493704e-05
3.6565203e-05
-9.3645367e-05
-0.00024669478
4.6615786e-05
-9.9784295e-05
-0.00050472385
-8.9447041e-06
5.7540854e-05
-0.00020848864
0.00014051207
0.00015078462
2.3675097e-05
9.2622545e-05
-0.00023886346
-5.9696361e-05
5.3200393e-05
-0.00012470103
3.6592725e-05
0.00030257669
7.0341966e-06
-7.0838247e-05
0.00010856878
0.00018080882
-5.6659683e-05
-0.00013117484
4.9236485e-05
-2.8006979e-05
-0.00024561594
8.6687391e-05
3.091318e-05
9.8996953e-05
9.2169368e-05
0.00012193981
0.00012476608
-0.00022316264
1.1530356e-05
6.703973e-05
-0.00039723565
7.0884285e-05
0.00015097455
-9.5001352e-05
-3.8885012e-05
1.6165666e-05
7.7422377e-05
-6.2941272e-05
-0.0002122177
0.00015896947
-0.00013341339
-0.00028931847
7.1009813e-05
-6.9480873e-05
-0.00022573113
-9.4867886e-05
-2.9812395e-05
-0.00025370282
8.6675584e-05
-0.00020277746
0.00028911403
-0.0001320796
-0.00015810994
-0.00012121603
-0.00020538386
-4.7480981e-05
-0.00031764822
-8.9440157e-05
-1.2955849e-05
-0.0005055301
3.9586532e-05
5.4712653e-05
-0.0003468089
5.0487855e-05
0.000259811
-1.4094857e-05
3.8142027e-05
0.00011794123
0.00012842557
-7.6953958e-05
5.3123093e-05
-0.00019750532
1.4050645e-05
0.00017552744
-0.00054438153
-6.4536997e-05
5.9245327e-05
1.7562481e-05
-7.623953e-05
-0.00019442017
0.00044038471
7.0531732e-05
-0.00018612971
0.00010833554
6.3675245e-05
-0.00025568902
9.6729609e-05
-2.2042023e-05
0.0001358666
8.0673993e-05
0.00014139775
8.4362134e-05
1.4970166e-05
5.876566e-05
6.6232967e-05
0.00013853795
3.2079395e-05
-1.1290794e-05
-3.7452372e-05
-0.00026109019
2.3413037e-05
-0.00023431989
9.0366898e-05
-0.00010912686
0.00010088566
7.6313234e-05
0.00013697093
0.00021434519
0.00018058523
0.00019581603
0.0001548906
0.00013958481
0.00023075108
6.5372709e-05
0.00030224925
2.2497779e-05
0.00021278966
1.3248621e-05
-6.1246911e-05
-8.6009057e-05
-0.00021765649
-0.00021234381
-4.1832769e-05
-0.00018973783
0.00020502974
-0.00016317031
7.4889234e-05
-0.00019145093
-0.00027439529
-4.7841432e-05
-0.00023341129
0.00017533696
0.00016373341
0.00013746852
0.00024222059
0.00022350253
0.00019985468
-0.00017209107
0.00014681285
-0.00012010218
-0.00027412181
0.00013090413
-0.0001448107
4.0940463e-05
-0.00033799373
-5.4536371e-05
0.00019646518
-0.00013822255
-6.0195949e-05
0.00011391359
9.2910357e-05
-7.3191894e-05
-4.0279354e-05
0.00014254089
-6.4181496e-05
-0.00011385351
3.3027078e-05
4.4382562e-05
-0.00015308063
-6.0469908e-05
4.5757899e-05
3.1517209e-05
-0.00037563957
8.6368609e-05
0.0002444586
-0.00031450752
0.00012247103
0.00025120064
2.8233958e-05
-4.1394521e-05