/*--------------------------------*- C++ -*----------------------------------*\
| =========                 |                                                 |
| \\      /  F ield         | OpenFOAM: The Open Source CFD Toolbox           |
|  \\    /   O peration     | Version:  v2012                                 |
|   \\  /    A nd           | Website:  www.openfoam.com                      |
|    \\/     M anipulation  |                                                 |
\*---------------------------------------------------------------------------*/
FoamFile
{
    version     2.0;
    format      ascii;
    class       volScalarField;
    location    "230/bottomWater";
    object      p_rgh;
}
// * * * * * * * * * * * * * * * * * * * * * * * * * * * * * * * * * * * * * //

dimensions      [1 -1 -2 0 0 0 0];


internalField   nonuniform List<scalar> 
1460
(
0.22935215
0.24655024
0.24023503
0.24256706
0.2385854
0.24378153
0.24552278
0.24556857
0.24034828
0.24386059
0.25225967
0.24575653
0.24994666
0.2480074
0.24353841
0.26599289
0.25718889
0.26148607
0.25433214
0.26047946
0.26286429
0.26647873
0.26622749
0.2646333
0.26439065
0.26606494
0.26634651
0.26580501
0.26238684
0.25900797
-0.19317885
-0.18803594
-0.21132094
-0.21772058
-0.21786978
-0.20502389
-0.18360968
-0.20966699
-0.2161082
-0.18600043
-0.19319863
-0.22138833
-0.22812379
-0.22521702
-0.20952821
-0.1969924
-0.22430312
-0.23704464
-0.22020977
-0.19747852
-0.16704758
-0.16615019
-0.19381053
-0.21484297
-0.23587906
-0.19454889
-0.17448992
-0.16560222
-0.19103825
-0.20366917
0.081984644
0.046284257
0.062239951
0.070090048
0.070113158
0.045389817
0.02862152
0.066703973
0.055655798
0.032334162
0.040108582
0.073169656
0.079567372
0.052054466
0.048625817
0.024142605
0.074127089
0.051463802
0.044406146
0.023144404
0.048641999
0.043984119
0.036608361
0.051733344
0.049312594
0.021364993
0.047540086
0.054515986
0.049018124
0.062594251
-0.017758291
-0.022822326
-0.041021501
-0.010723916
-0.024174401
-0.035112185
-0.041235108
-0.043863089
-0.037823775
-0.052738342
-0.032642417
-0.027407088
0.001915814
-0.015536102
-0.056564488
-0.041210816
-0.051151745
-0.024652094
-0.066281846
-0.049232709
-0.029251811
-0.031616074
-0.05427963
-0.080285757
-0.043678579
-0.068194839
-0.031072394
-0.038099583
-0.064026083
-0.077567051
-0.0052300483
-0.016540381
-0.012526472
-0.0067229416
-0.00081710555
-0.0046045714
0.0036467442
0.0019937826
0.0027309031
0.0062807038
-0.0053137122
-0.0034557188
0.010694688
0.0049456675
-0.00047162111
-0.0085541183
-0.013730839
-0.0090081522
-0.0038214354
-0.0082340168
-0.012465411
-0.0098271641
-0.016565807
0.0066486551
0.0014479613
-0.0007541857
-0.012599684
-0.012071875
-0.012932451
0.0098161198
0.23951778
0.23919688
0.25514389
0.24981174
0.23888862
0.2443111
0.24471236
0.24505008
0.2455738
0.24546474
0.24303253
0.25874628
0.24471922
0.24619878
0.25777759
0.26413992
0.2648859
0.26339931
0.26318323
0.25478644
0.25766948
0.26510661
0.2598328
0.26532777
0.26624433
0.26190127
0.26424997
0.26463496
0.2551953
0.25858267
-0.20637134
-0.20354087
-0.15369515
-0.17645191
-0.21933122
-0.22401574
-0.23091257
-0.22867486
-0.22995725
-0.22745846
-0.21246322
-0.18872518
-0.22009775
-0.20858458
-0.18564922
-0.18052434
-0.21440868
-0.25121598
-0.24130112
-0.23569407
-0.2089577
-0.20229697
-0.23946249
-0.25313452
-0.24703999
-0.24741538
-0.20884179
-0.19491022
-0.23024861
-0.23357973
0.066189467
0.041917545
0.019719899
0.015549376
0.033142717
0.054830927
0.064133379
0.075058476
0.075145581
0.047832513
0.049870646
0.016917871
0.053534064
0.042579797
0.036209496
0.039558298
0.019337941
0.058861626
0.05866378
0.02703332
0.02771452
0.029366631
0.031420491
0.049945468
0.084476455
0.037250261
0.044457312
0.018617795
0.039494136
0.065816169
-0.033985323
-0.051138978
-0.049927033
-0.049273062
-0.051551215
-0.042689348
-0.031581024
-0.037075264
-0.031467062
-0.039893374
-0.071284464
-0.057101345
-0.048164155
-0.05538015
-0.034510519
-0.047292001
-0.081694193
-0.038200777
-0.049361031
-0.074757155
-0.056630432
-0.052491917
-0.093740032
-0.050985281
-0.045173183
-0.066580114
-0.06177551
-0.058390372
-0.073693727
-0.045548453
-0.012292879
-0.010753465
-0.0041285363
-0.0051305664
0.0062397271
0.0027367536
0.007121839
0.0065385673
0.01405077
0.0063304372
0.010349254
0.0056710176
0.0026070066
-0.010964036
-0.015840856
-0.019521876
-0.007431288
-0.0025330812
0.00040146107
0.0019235554
-0.0062273119
-0.0088928213
0.0033574687
0.0086985177
0.017705665
0.00084523365
-0.0060639256
0.00067145997
0.0051322946
0.0069816853
0.23881038
0.22959063
0.25815472
0.2467147
0.24479258
0.24880198
0.24293311
0.24586501
0.24165442
0.24716847
0.24805281
0.24809288
0.24414512
0.25519831
0.25825286
0.26486221
0.2546282
0.25739186
0.26113446
0.25724377
0.25626326
0.25640196
0.25635356
0.26088067
0.26256772
0.25658242
0.2607085
0.25112765
0.2584405
0.25587174
-0.21155614
-0.21098323
-0.17630556
-0.19812391
-0.22449204
-0.23106902
-0.21953555
-0.20390114
-0.21238321
-0.22907333
-0.23183497
-0.22826569
-0.21923936
-0.19623024
-0.16393412
-0.1854222
-0.23690138
-0.24590734
-0.24451021
-0.24318514
-0.22279002
-0.23461951
-0.25321294
-0.25109115
-0.25184288
-0.25403887
-0.23342624
-0.22771256
-0.24212404
-0.23776731
0.063611902
0.043868985
0.015620059
0.0479539
0.06468078
0.075372961
0.063653605
0.044931803
0.059510183
0.062648545
0.074860523
0.067944357
0.052887338
0.031467687
0.053619477
0.010100617
0.036582953
0.058857818
0.093267311
0.058519993
0.056830665
0.05399383
0.057209202
0.10304812
0.11339807
0.0844553
0.070740571
0.080779379
0.079772812
0.11377218
-0.031472575
-0.054583804
-0.048626745
-0.055615539
-0.032580625
-0.026765749
-0.046263049
-0.048162242
-0.061223258
-0.029497344
-0.027404864
-0.033746022
-0.058249235
-0.041916337
-0.040022181
-0.066108232
-0.068277434
-0.037971914
-0.034071978
-0.044111344
-0.059166538
-0.061835822
-0.049648126
-0.03643231
-0.031007459
-0.052443552
-0.074089775
-0.069914012
-0.049260397
-0.04123994
-0.0024731902
0.0061918906
0.016763562
0.017065793
0.0088703114
0.02144937
0.016191812
0.01443121
0.027227533
0.010529717
0.024059492
0.010119064
0.026782228
0.0052893264
-0.0048712262
0.0042274333
0.011113596
0.014981262
0.024972462
0.013461399
0.01700934
0.017917261
0.01521835
0.024954295
0.035655507
0.017629139
0.034465269
0.029883846
0.0083250911
0.014441084
0.23818751
0.23583338
0.23763004
0.24368277
0.24316554
0.23946795
0.24692018
0.24395977
0.24533635
0.2478521
0.24182382
0.24337512
0.25078894
0.23986236
0.25786466
0.25794979
0.25853297
0.26309959
0.25966028
0.25796137
0.25479897
0.27334005
0.25933718
0.26424536
0.26645127
0.26392915
0.26966392
0.24676396
0.25189445
0.25294629
-0.22030695
-0.22362357
-0.2159182
-0.22179707
-0.22864816
-0.21772299
-0.18980289
-0.17417754
-0.17965854
-0.19151465
-0.21560418
-0.23293495
-0.22971711
-0.21419874
-0.20613087
-0.2255254
-0.24791373
-0.24469835
-0.2473782
-0.24737708
-0.2204167
-0.20417073
-0.23213314
-0.24972321
-0.25106067
-0.24040513
-0.19885971
-0.21547555
-0.227171
-0.22992929
0.093720894
0.076343489
0.066473945
0.080420996
0.058553265
0.030877922
0.012343909
0.040261559
0.036304104
0.012809714
0.035143674
0.033675381
0.071811667
0.057316913
0.030645161
0.044827465
0.05867606
0.10042516
0.08590575
0.04863688
0.034888718
0.026598422
0.039040803
0.051558199
0.080720432
0.071111623
0.02094948
0.055055441
0.062863012
0.085557532
-0.032942412
-0.043346598
-0.068506956
-0.035005026
-0.03180567
-0.072327786
-0.059231019
-0.048348085
-0.056045623
-0.064750192
-0.078857988
-0.042090577
-0.027715063
-0.048045493
-0.042974702
-0.074048029
-0.03880088
-0.027130993
-0.037803129
-0.046261904
-0.069314831
-0.046987446
-0.084250864
-0.046306528
-0.045808102
-0.074559399
-0.069534598
-0.068558884
-0.061902096
-0.047005744
0.010170256
0.0047491981
0.027862782
0.0095277967
0.0053659132
0.0084009581
0.00096343315
-0.013361573
-0.0071925172
-0.0014189519
0.010091969
0.0048630597
0.025876927
0.0027924235
0.0045392011
0.014621549
0.018849338
0.026688909
0.019028024
0.0077402156
0.0079407003
-0.007578611
0.0082735019
0.0051185956
0.020287332
0.0069361521
0.0051689342
-0.0017263855
-0.0154796
-0.01003878
0.23771549
0.22684285
0.25481482
0.24534069
0.24754065
0.24455073
0.25460058
0.25659759
0.25780468
0.25522009
0.25890645
0.24969429
0.2531698
0.2594796
0.25310545
0.25574963
0.26640803
0.26389952
0.26515255
0.2599776
0.26270132
0.26423482
0.26747351
0.26245822
0.2657352
0.2548497
-0.21253108
-0.20538166
-0.18361833
-0.20712921
-0.22115562
-0.20867957
-0.17443631
-0.1531755
-0.15675151
-0.17385309
-0.18679911
-0.21593917
-0.22740131
-0.23902567
-0.24552965
-0.22677121
-0.18069458
-0.17619348
-0.2023643
-0.22970572
-0.24355957
-0.23702105
-0.20125231
-0.18450055
-0.2000834
-0.21614199
0.062981199
0.04773675
0.017334197
0.072220177
0.044954011
0.048711238
0.040717318
0.046162185
0.049128301
0.047446742
0.051636063
0.034041263
0.062512875
0.076840934
0.042706219
0.024746368
0.010239536
0.049039235
0.037879845
0.037938741
0.061130964
0.064066239
0.032921474
0.053456752
0.045176779
0.089487605
-0.029368415
-0.060516997
-0.037001681
-0.056295147
-0.016541696
-0.060467227
-0.027839415
-0.01460585
-0.019099593
-0.036549118
-0.044165172
-0.074421014
-0.04402459
-0.044944675
-0.064441765
-0.07027616
-0.065818553
-0.046238108
-0.0523436
-0.086179852
-0.052826508
-0.064198607
-0.065846034
-0.056442588
-0.029715362
-0.021539079
0.0088364088
0.013706958
0.0084532492
0.003976167
-0.0095563837
-0.017682366
-0.020571059
-0.012159901
-0.0098795413
-0.018498519
-0.015255641
-0.004693003
0.0014122397
0.0063269263
0.0022400492
-0.00040270366
-0.0067881613
-0.019568977
-0.016430668
0.0012294564
0.00092288332
-0.006282328
-0.019044514
-0.029534553
-0.026543353
-0.0095377732
0.23884647
0.23170334
0.24404032
0.25551063
0.25039492
0.25237841
0.25430813
0.25614125
0.25468626
0.25394661
0.25186572
0.26176746
0.25067286
0.27088098
0.26560955
0.27421102
0.27156495
0.2775611
0.2732576
0.27352519
0.27203013
0.27307861
0.27512931
0.26937341
0.2644225
0.25304719
-0.21079753
-0.20657968
-0.19339458
-0.16458666
-0.21969504
-0.17662787
-0.16645075
-0.16826543
-0.19035668
-0.22469234
-0.21838544
-0.19187926
-0.19451801
-0.24204778
-0.23253222
-0.18460751
-0.16757843
-0.16580806
-0.1800195
-0.19838498
-0.21046009
-0.24951807
-0.20139146
-0.18090923
-0.18754918
-0.20897886
0.075822146
0.060562557
0.047486026
0.053643751
0.051043732
0.031828063
0.042944483
0.045717888
0.056161396
0.066169148
0.082980266
0.025572644
0.056541459
0.062653734
0.032239023
0.030968671
0.054507884
0.046430435
0.055679126
0.035566115
0.054983956
0.050590285
0.029527569
0.034841788
0.054548216
0.096951417
-0.03362604
-0.052535241
-0.037347223
-0.042986127
-0.033193693
-0.06310027
-0.030698708
-0.020830581
-0.033109204
-0.027063056
-0.053501235
-0.061426691
-0.073745919
-0.041355606
-0.061898943
-0.048076095
-0.038840963
-0.015385108
-0.050176742
-0.05917903
-0.083761516
-0.054825936
-0.092633723
-0.07140547
-0.073542424
-0.036505184
0.0053989756
0.0025065608
-0.012653304
-0.0088000179
-0.0080723669
-0.0052731729
-0.017896826
-0.012673691
-0.017419629
-0.019244947
-0.0092481878
-0.002117676
0.018992836
-0.0053443226
-0.0057166112
-0.012181958
-0.018072504
-0.0094842594
-0.021538861
-0.0054709301
0.015665179
0.007325377
0.0078673035
-0.0030699886
-0.024920479
-0.0063217471
0.23911543
0.2378034
0.23644838
0.23769798
0.25298934
0.26176398
0.24660297
0.24440339
0.2470411
0.23059733
0.26730575
0.25554466
0.2540777
0.25821492
0.25618649
0.25260305
0.25245427
0.25413623
0.25159081
0.26667171
0.27119506
0.27800321
0.27434677
0.27108385
0.26830397
0.27452509
0.27287412
0.27048706
0.27960456
0.26925766
-0.22120047
-0.22482165
-0.22386418
-0.21123781
-0.17481508
-0.16672944
-0.2249256
-0.22617109
-0.21675144
-0.206798
-0.18049967
-0.20884592
-0.23520016
-0.23796424
-0.24269008
-0.22350325
-0.20992168
-0.2369148
-0.23386081
-0.20190039
-0.17467744
-0.18128342
-0.20023921
-0.22226033
-0.25052949
-0.25568976
-0.25721016
-0.24427296
-0.1969278
-0.19880611
0.079609114
0.062844633
0.048504003
0.0336933
0.018936914
0.025490667
0.052577151
0.081281348
0.074253061
0.084607004
0.028783515
0.043038334
0.066670418
0.10166747
0.082845163
0.072585018
0.071172884
0.075438129
0.062010337
0.04085504
0.052496928
0.048437625
0.047556645
0.039426658
0.065857962
0.099932224
0.049059636
0.042941347
0.010318637
0.037886989
-0.035407481
-0.027043005
-0.038814113
-0.078865938
-0.052311558
-0.060648262
-0.045645206
-0.032124611
-0.049595223
-0.070952895
-0.062454261
-0.067409521
-0.047942223
-0.03970156
-0.051294881
-0.097435297
-0.092131572
-0.061805368
-0.06202228
-0.05123554
-0.040316436
-0.044070102
-0.070539203
-0.086021522
-0.072475155
-0.046595907
-0.058094671
-0.097779482
-0.096225722
-0.063243429
0.0040606888
0.00047328723
-0.0026094999
0.0010469232
0.011576007
0.0071160237
-0.0052284005
-0.0064880133
-0.011610134
0.0044600146
0.013331085
0.013333543
0.013551642
0.025204367
0.013971086
0.020983464
0.022491977
-0.0043093063
-0.01911346
-0.021520353
-0.014854212
-0.01681767
-0.021355837
0.0082997952
0.0043088745
0.025730654
0.011607541
0.0098932494
-0.0003349335
-0.013140647
0.24008568
0.23997678
0.24544468
0.24618131
0.24327021
0.24946608
0.25384469
0.25440442
0.24880151
0.24664544
0.24491834
0.24992325
0.25219296
0.25293895
0.24905989
0.24909239
0.27429637
0.2761374
0.27291449
0.27287299
0.27924844
0.26971478
0.27195803
0.27033968
0.26993917
0.27077412
0.26747907
0.25847125
0.25872253
0.25607647
-0.19973559
-0.20853847
-0.21863537
-0.22065825
-0.21822242
-0.19051219
-0.1661452
-0.18546987
-0.20463529
-0.21286486
-0.21594776
-0.2301629
-0.23245769
-0.23364404
-0.23224787
-0.21498689
-0.20584248
-0.24064094
-0.25625656
-0.23106295
-0.21013765
-0.24392517
-0.24875061
-0.25891586
-0.26305181
-0.25840579
-0.25451234
-0.25994679
-0.22440744
-0.22929812
0.084505599
0.078822617
0.084759938
0.0771664
0.049732692
0.029483984
0.055584549
0.050825528
0.074293079
0.079829188
0.069700672
0.075050502
0.094931285
0.079005923
0.056577806
0.051309453
0.042420705
0.084529332
0.056634589
0.050576684
0.041831803
0.07045852
0.061863681
0.084354427
0.10218925
0.13074719
0.12246996
0.071940841
0.068539539
0.073074709
-0.077419338
-0.083467165
-0.037143924
-0.0335619
-0.058307343
-0.06680878
-0.045719642
-0.068329452
-0.090679288
-0.081558171
-0.072438721
-0.055052147
-0.042429327
-0.04704589
-0.075500399
-0.083970989
-0.060085789
-0.068245579
-0.052889587
-0.097892206
-0.072060005
-0.06943731
-0.060242826
-0.049349907
-0.043689143
-0.026799181
-0.036690041
-0.057796813
-0.093490873
-0.074200091
0.029663999
0.032408109
0.015348048
0.019927065
0.010818828
0.0098943986
-0.0035167577
-0.0016841172
0.017465353
0.038739634
-0.0041125436
0.0095302905
0.017606369
0.016861963
0.0065103232
0.0081765519
-0.013253567
0.010563476
0.0070229129
0.012263053
-0.0041765087
-0.0075243441
0.0077517925
0.011472873
0.026228987
0.041816228
0.038637227
0.027494102
0.027737097
0.03116601
0.23427509
0.24774355
0.25204246
0.24769626
0.25316086
0.24536591
0.25353027
0.24616225
0.2495064
0.24424354
0.24913677
0.24917167
0.24541835
0.2426586
0.24742987
0.26176858
0.27514091
0.27528865
0.27771157
0.27440396
0.27797957
0.28134968
0.26897371
0.26810221
0.2651587
0.27027768
0.26653486
0.26038937
0.25838976
0.25998946
-0.19968292
-0.18535719
-0.19054769
-0.22750842
-0.22943467
-0.21999234
-0.20271953
-0.21939567
-0.23835355
-0.23330777
-0.23157836
-0.21532957
-0.2200819
-0.21174634
-0.19851551
-0.18915081
-0.20237395
-0.25298331
-0.26270448
-0.26464238
-0.2289767
-0.20552893
-0.24153461
-0.24099398
-0.24425917
-0.25700087
-0.26237781
-0.23691361
-0.23560012
-0.23773824
0.063371634
0.028778509
0.025724737
0.050326617
0.05454265
0.080766386
0.029472198
0.062046357
0.063226504
0.086220137
0.096304158
0.08604968
0.07277066
0.061831565
0.060973025
0.064226049
0.032292801
0.064109424
0.10240152
0.060386306
0.063010445
0.043652265
0.093272062
0.084962399
0.082426824
0.096895521
0.073726069
0.062622822
0.066427325
0.08009708
-0.049910814
-0.065243202
-0.071071228
-0.05256617
-0.018295132
-0.069488326
-0.061626967
-0.081517852
-0.04087868
-0.041292413
-0.042538623
-0.067347401
-0.069978065
-0.090412029
-0.056030714
-0.073086883
-0.086756391
-0.086840761
-0.032624703
-0.039273879
-0.10466502
-0.089935592
-0.083522897
-0.086546141
-0.11730784
-0.064022458
-0.069893133
-0.094406541
-0.093574064
-0.056802565
-0.0089019977
0.0032865025
0.0071816281
-0.0049925194
0.01394287
-0.016893632
0.011155253
0.020836267
0.0042009762
0.0052977003
-0.012714411
-0.0028632054
0.0059994295
0.012354742
-0.0043712187
-0.013063648
0.012007173
0.021871539
0.039107018
0.024564775
0.018295869
0.015382625
-0.014147832
0.0059274024
0.016761836
0.015655784
0.004400387
0.019416965
-0.0059322806
-0.017056839
0.23445733
0.24194114
0.2468703
0.2459551
0.25046037
0.24856897
0.25028505
0.25025933
0.2515023
0.25059398
0.24516962
0.24182871
0.24247028
0.25416573
0.27177844
0.26051505
0.28367417
0.27674014
0.28085798
0.27781094
0.27219834
0.2826526
0.27956928
0.28661899
0.27550905
0.27288578
0.2803935
0.27608603
0.26614579
0.25649486
-0.19174842
-0.17252045
-0.16073805
-0.18188944
-0.19067764
-0.20903209
-0.22678867
-0.23489941
-0.19117794
-0.1921656
-0.22354378
-0.21412015
-0.20379088
-0.17059997
-0.16220169
-0.17777326
-0.17890018
-0.2373047
-0.2600741
-0.24775815
-0.23508343
-0.18976927
-0.18408852
-0.18230814
-0.19323127
-0.22459724
-0.1833627
-0.15987868
-0.19539954
-0.21324794
0.085004288
0.055436445
0.05460487
0.056344656
0.059353128
0.059608983
0.067309991
0.069393907
0.060731757
0.054836459
0.092921535
0.082284978
0.049132083
0.054682856
0.053138264
0.070364057
0.038295786
0.046475236
0.072177753
0.06896926
0.03830291
0.024439994
0.055431875
0.047774174
0.05070022
0.061247492
0.037103398
0.033717665
0.050349378
0.096837687
-0.026962661
-0.047422934
-0.042425776
-0.060238602
-0.050717678
-0.097753174
-0.048353713
-0.03875971
-0.079307935
-0.065375417
-0.041506494
-0.032455521
-0.05377853
-0.038341806
-0.029221295
-0.070982276
-0.075162079
-0.09885086
-0.028069676
-0.031874795
-0.1006682
-0.080968481
-0.053044343
-0.028590191
-0.074330208
-0.076440091
-0.08319907
-0.081343274
-0.070591466
-0.032240701
-0.0081865067
-0.015810323
-0.010841931
-0.015523925
-0.014150733
0.0023144693
0.0080543624
0.017887743
0.026580543
0.0063972478
-0.012588018
-0.01441541
-0.0078594621
-0.0097939936
-0.012414907
-0.022303398
0.009711458
0.029031203
0.03572376
0.025946771
0.010932679
-0.0047069892
-0.019548683
-0.0037724043
-0.0094737485
0.011009031
0.017204312
0.0098736609
-0.028946671
-0.0033760128
)
;

boundaryField
{
    minX
    {
        type            fixedFluxPressure;
        gradient        uniform 0;
        value           nonuniform List<scalar> 
50
(
0.22935215
-0.19317885
0.081984644
-0.017758291
-0.0052300483
0.23951778
-0.20637134
0.066189467
-0.033985323
-0.012292879
0.23881038
-0.21155614
0.063611902
-0.031472575
-0.0024731902
0.23818751
-0.22030695
0.093720894
-0.032942412
0.010170256
0.23771549
-0.21253108
0.062981199
-0.029368415
0.0088364088
0.23884647
-0.21079753
0.075822146
-0.03362604
0.0053989756
0.23911543
-0.22120047
0.079609114
-0.035407481
0.0040606888
0.24008568
-0.19973559
0.084505599
-0.077419338
0.029663999
0.23427509
-0.19968292
0.063371634
-0.049910814
-0.0089019977
0.23445733
-0.19174842
0.085004288
-0.026962661
-0.0081865067
)
;
    }
    maxX
    {
        type            fixedFluxPressure;
        gradient        uniform 0;
        value           nonuniform List<scalar> 
50
(
0.25900797
-0.20366917
0.062594251
-0.077567051
0.0098161198
0.25858267
-0.23357973
0.065816169
-0.045548453
0.0069816853
0.25587174
-0.23776731
0.11377218
-0.04123994
0.014441084
0.25294629
-0.22992929
0.085557532
-0.047005744
-0.01003878
0.2548497
-0.21614199
0.089487605
-0.021539079
-0.0095377732
0.25304719
-0.20897886
0.096951417
-0.036505184
-0.0063217471
0.26925766
-0.19880611
0.037886989
-0.063243429
-0.013140647
0.25607647
-0.22929812
0.073074709
-0.074200091
0.03116601
0.25998946
-0.23773824
0.08009708
-0.056802565
-0.017056839
0.25649486
-0.21324794
0.096837687
-0.032240701
-0.0033760128
)
;
    }
    minY
    {
        type            fixedValue;
        value           uniform 0;
    }
    minZ
    {
        type            fixedFluxPressure;
        gradient        uniform 0;
        value           nonuniform List<scalar> 
150
(
0.22935215
-0.19317885
0.081984644
-0.017758291
-0.0052300483
0.24655024
-0.18803594
0.046284257
-0.022822326
-0.016540381
0.24023503
-0.21132094
0.062239951
-0.041021501
-0.012526472
0.24256706
-0.21772058
0.070090048
-0.010723916
-0.0067229416
0.2385854
-0.21786978
0.070113158
-0.024174401
-0.00081710555
0.24378153
-0.20502389
0.045389817
-0.035112185
-0.0046045714
0.24552278
-0.18360968
0.02862152
-0.041235108
0.0036467442
0.24556857
-0.20966699
0.066703973
-0.043863089
0.0019937826
0.24034828
-0.2161082
0.055655798
-0.037823775
0.0027309031
0.24386059
-0.18600043
0.032334162
-0.052738342
0.0062807038
0.25225967
-0.19319863
0.040108582
-0.032642417
-0.0053137122
0.24575653
-0.22138833
0.073169656
-0.027407088
-0.0034557188
0.24994666
-0.22812379
0.079567372
0.001915814
0.010694688
0.2480074
-0.22521702
0.052054466
-0.015536102
0.0049456675
0.24353841
-0.20952821
0.048625817
-0.056564488
-0.00047162111
0.26599289
-0.1969924
0.024142605
-0.041210816
-0.0085541183
0.25718889
-0.22430312
0.074127089
-0.051151745
-0.013730839
0.26148607
-0.23704464
0.051463802
-0.024652094
-0.0090081522
0.25433214
-0.22020977
0.044406146
-0.066281846
-0.0038214354
0.26047946
-0.19747852
0.023144404
-0.049232709
-0.0082340168
0.26286429
-0.16704758
0.048641999
-0.029251811
-0.012465411
0.26647873
-0.16615019
0.043984119
-0.031616074
-0.0098271641
0.26622749
-0.19381053
0.036608361
-0.05427963
-0.016565807
0.2646333
-0.21484297
0.051733344
-0.080285757
0.0066486551
0.26439065
-0.23587906
0.049312594
-0.043678579
0.0014479613
0.26606494
-0.19454889
0.021364993
-0.068194839
-0.0007541857
0.26634651
-0.17448992
0.047540086
-0.031072394
-0.012599684
0.26580501
-0.16560222
0.054515986
-0.038099583
-0.012071875
0.26238684
-0.19103825
0.049018124
-0.064026083
-0.012932451
0.25900797
-0.20366917
0.062594251
-0.077567051
0.0098161198
)
;
    }
    maxZ
    {
        type            fixedFluxPressure;
        gradient        uniform 0;
        value           nonuniform List<scalar> 
150
(
0.23445733
-0.19174842
0.085004288
-0.026962661
-0.0081865067
0.24194114
-0.17252045
0.055436445
-0.047422934
-0.015810323
0.2468703
-0.16073805
0.05460487
-0.042425776
-0.010841931
0.2459551
-0.18188944
0.056344656
-0.060238602
-0.015523925
0.25046037
-0.19067764
0.059353128
-0.050717678
-0.014150733
0.24856897
-0.20903209
0.059608983
-0.097753174
0.0023144693
0.25028505
-0.22678867
0.067309991
-0.048353713
0.0080543624
0.25025933
-0.23489941
0.069393907
-0.03875971
0.017887743
0.2515023
-0.19117794
0.060731757
-0.079307935
0.026580543
0.25059398
-0.1921656
0.054836459
-0.065375417
0.0063972478
0.24516962
-0.22354378
0.092921535
-0.041506494
-0.012588018
0.24182871
-0.21412015
0.082284978
-0.032455521
-0.01441541
0.24247028
-0.20379088
0.049132083
-0.05377853
-0.0078594621
0.25416573
-0.17059997
0.054682856
-0.038341806
-0.0097939936
0.27177844
-0.16220169
0.053138264
-0.029221295
-0.012414907
0.26051505
-0.17777326
0.070364057
-0.070982276
-0.022303398
0.28367417
-0.17890018
0.038295786
-0.075162079
0.009711458
0.27674014
-0.2373047
0.046475236
-0.09885086
0.029031203
0.28085798
-0.2600741
0.072177753
-0.028069676
0.03572376
0.27781094
-0.24775815
0.06896926
-0.031874795
0.025946771
0.27219834
-0.23508343
0.03830291
-0.1006682
0.010932679
0.2826526
-0.18976927
0.024439994
-0.080968481
-0.0047069892
0.27956928
-0.18408852
0.055431875
-0.053044343
-0.019548683
0.28661899
-0.18230814
0.047774174
-0.028590191
-0.0037724043
0.27550905
-0.19323127
0.05070022
-0.074330208
-0.0094737485
0.27288578
-0.22459724
0.061247492
-0.076440091
0.011009031
0.2803935
-0.1833627
0.037103398
-0.08319907
0.017204312
0.27608603
-0.15987868
0.033717665
-0.081343274
0.0098736609
0.26614579
-0.19539954
0.050349378
-0.070591466
-0.028946671
0.25649486
-0.21324794
0.096837687
-0.032240701
-0.0033760128
)
;
    }
    bottomWater_to_rightSolid
    {
        type            fixedFluxPressure;
        gradient        uniform 0;
        value           nonuniform List<scalar> 
130
(
-0.0090081522
-0.0038214354
-0.0082340168
-0.012465411
-0.0098271641
-0.016565807
0.0066486551
0.0014479613
-0.0007541857
-0.012599684
-0.012071875
-0.012932451
0.0098161198
-0.0025330812
0.00040146107
0.0019235554
-0.0062273119
-0.0088928213
0.0033574687
0.0086985177
0.017705665
0.00084523365
-0.0060639256
0.00067145997
0.0051322946
0.0069816853
0.014981262
0.024972462
0.013461399
0.01700934
0.017917261
0.01521835
0.024954295
0.035655507
0.017629139
0.034465269
0.029883846
0.0083250911
0.014441084
0.026688909
0.019028024
0.0077402156
0.0079407003
-0.007578611
0.0082735019
0.0051185956
0.020287332
0.0069361521
0.0051689342
-0.0017263855
-0.0154796
-0.01003878
0.0063269263
0.0022400492
-0.00040270366
-0.0067881613
-0.019568977
-0.016430668
0.0012294564
0.00092288332
-0.006282328
-0.019044514
-0.029534553
-0.026543353
-0.0095377732
-0.0053443226
-0.0057166112
-0.012181958
-0.018072504
-0.0094842594
-0.021538861
-0.0054709301
0.015665179
0.007325377
0.0078673035
-0.0030699886
-0.024920479
-0.0063217471
-0.0043093063
-0.01911346
-0.021520353
-0.014854212
-0.01681767
-0.021355837
0.0082997952
0.0043088745
0.025730654
0.011607541
0.0098932494
-0.0003349335
-0.013140647
0.010563476
0.0070229129
0.012263053
-0.0041765087
-0.0075243441
0.0077517925
0.011472873
0.026228987
0.041816228
0.038637227
0.027494102
0.027737097
0.03116601
0.021871539
0.039107018
0.024564775
0.018295869
0.015382625
-0.014147832
0.0059274024
0.016761836
0.015655784
0.004400387
0.019416965
-0.0059322806
-0.017056839
0.029031203
0.03572376
0.025946771
0.010932679
-0.0047069892
-0.019548683
-0.0037724043
-0.0094737485
0.011009031
0.017204312
0.0098736609
-0.028946671
-0.0033760128
)
;
    }
    bottomWater_to_leftSolid
    {
        type            fixedFluxPressure;
        gradient        uniform 0;
        value           nonuniform List<scalar> 
130
(
-0.0052300483
-0.016540381
-0.012526472
-0.0067229416
-0.00081710555
-0.0046045714
0.0036467442
0.0019937826
0.0027309031
0.0062807038
-0.0053137122
-0.0034557188
0.010694688
-0.012292879
-0.010753465
-0.0041285363
-0.0051305664
0.0062397271
0.0027367536
0.007121839
0.0065385673
0.01405077
0.0063304372
0.010349254
0.0056710176
0.0026070066
-0.0024731902
0.0061918906
0.016763562
0.017065793
0.0088703114
0.02144937
0.016191812
0.01443121
0.027227533
0.010529717
0.024059492
0.010119064
0.026782228
0.010170256
0.0047491981
0.027862782
0.0095277967
0.0053659132
0.0084009581
0.00096343315
-0.013361573
-0.0071925172
-0.0014189519
0.010091969
0.0048630597
0.025876927
0.0088364088
0.013706958
0.0084532492
0.003976167
-0.0095563837
-0.017682366
-0.020571059
-0.012159901
-0.0098795413
-0.018498519
-0.015255641
-0.004693003
0.0014122397
0.0053989756
0.0025065608
-0.012653304
-0.0088000179
-0.0080723669
-0.0052731729
-0.017896826
-0.012673691
-0.017419629
-0.019244947
-0.0092481878
-0.002117676
0.018992836
0.0040606888
0.00047328723
-0.0026094999
0.0010469232
0.011576007
0.0071160237
-0.0052284005
-0.0064880133
-0.011610134
0.0044600146
0.013331085
0.013333543
0.013551642
0.029663999
0.032408109
0.015348048
0.019927065
0.010818828
0.0098943986
-0.0035167577
-0.0016841172
0.017465353
0.038739634
-0.0041125436
0.0095302905
0.017606369
-0.0089019977
0.0032865025
0.0071816281
-0.0049925194
0.01394287
-0.016893632
0.011155253
0.020836267
0.0042009762
0.0052977003
-0.012714411
-0.0028632054
0.0059994295
-0.0081865067
-0.015810323
-0.010841931
-0.015523925
-0.014150733
0.0023144693
0.0080543624
0.017887743
0.026580543
0.0063972478
-0.012588018
-0.01441541
-0.0078594621
)
;
    }
    bottomWater_to_heater
    {
        type            fixedFluxPressure;
        gradient        uniform 0;
        value           nonuniform List<scalar> 
92
(
0.0049456675
-0.00047162111
-0.0085541183
-0.013730839
-0.010964036
-0.015840856
-0.019521876
-0.007431288
0.0052893264
-0.0048712262
0.0042274333
0.011113596
0.23986236
0.25786466
0.25794979
0.25853297
-0.21419874
-0.20613087
-0.2255254
-0.24791373
0.057316913
0.030645161
0.044827465
0.05867606
-0.048045493
-0.042974702
-0.074048029
-0.03880088
0.0027924235
0.0027924235
0.0045392011
0.0045392011
0.014621549
0.014621549
0.018849338
0.018849338
0.2531698
0.2594796
-0.22740131
-0.23902567
0.062512875
0.076840934
-0.04402459
-0.044944675
0.0014122397
0.0063269263
0.25067286
0.25821492
0.25618649
0.25260305
0.27088098
0.25245427
-0.19451801
-0.23796424
-0.24269008
-0.22350325
-0.24204778
-0.20992168
0.056541459
0.10166747
0.082845163
0.072585018
0.062653734
0.071172884
-0.073745919
-0.03970156
-0.051294881
-0.097435297
-0.041355606
-0.092131572
0.018992836
0.025204367
0.013971086
0.020983464
-0.0053443226
0.022491977
0.025204367
0.013971086
0.020983464
0.022491977
0.016861963
0.0065103232
0.0081765519
-0.013253567
0.012354742
-0.0043712187
-0.013063648
0.012007173
-0.0097939936
-0.012414907
-0.022303398
0.009711458
)
;
    }
}


// ************************************************************************* //
