/*--------------------------------*- C++ -*----------------------------------*\
| =========                 |                                                 |
| \\      /  F ield         | OpenFOAM: The Open Source CFD Toolbox           |
|  \\    /   O peration     | Version:  v2012                                 |
|   \\  /    A nd           | Website:  www.openfoam.com                      |
|    \\/     M anipulation  |                                                 |
\*---------------------------------------------------------------------------*/
FoamFile
{
    version     2.0;
    format      ascii;
    class       surfaceScalarField;
    location    "230/bottomWater";
    object      phi;
}
// * * * * * * * * * * * * * * * * * * * * * * * * * * * * * * * * * * * * * //

dimensions      [1 0 -1 0 0 0 0];
oriented        oriented;


internalField   nonuniform List<scalar> 
3858
(
-0.00011810374
0.00010785727
1.7056163e-05
5.1329009e-05
-0.00027069267
0.00010383848
7.9738304e-05
1.7987992e-06
-2.6340147e-05
7.38636e-05
6.9639494e-05
-6.0391121e-05
-1.8683361e-05
0.00014615767
-4.919329e-05
6.112655e-06
-5.6175866e-05
3.4278836e-05
8.2239021e-05
-0.00012624506
5.2705716e-05
-2.8495314e-05
8.6634297e-05
2.6634223e-05
-0.0002071562
0.00015507131
2.7666917e-05
-0.00018678054
-8.0633464e-05
6.3530783e-05
-2.8838577e-05
-0.00025363648
9.6809123e-05
-6.0135831e-05
8.5997902e-05
-5.2212846e-05
-0.00015336117
0.00013645875
-4.1683707e-05
-0.00019224662
0.00015688443
-0.00011572938
-0.00014279445
0.00010257337
-0.00014862399
8.5438019e-05
-0.00019497114
-3.5827755e-05
8.819496e-05
2.2768534e-05
-2.6030855e-05
-6.8026438e-05
0.00013540269
1.9278835e-05
-0.00023251972
9.9736403e-05
6.5236405e-05
-0.00019783701
-0.00019702888
0.00016154324
-6.7321359e-05
-0.00028162519
0.00014959613
0.00011136889
-0.00027573587
9.4444372e-05
0.00017594391
-0.00020601104
0.00013898416
3.4580737e-05
1.7570372e-05
0.00012146997
-0.00018646715
0.00010756801
0.000111312
-0.00020534232
-0.00010448422
0.00012093434
-3.4374651e-05
-0.00025463129
8.1123493e-05
0.00015595605
-0.00025768249
6.4889126e-05
0.00018601964
-0.00014241469
0.00011086054
8.1655949e-05
0.00010355321
1.5920306e-05
-4.1727601e-05
0.00013366456
0.00029916493
-0.00067213948
0.00011820219
0.00032719287
7.5590258e-06
-3.3788172e-05
6.9583543e-05
0.0004662546
-0.00013900578
-3.6978513e-05
0.00025738179
-4.6620679e-06
6.7268499e-05
-0.00028426308
0.00012384021
0.00024406542
-0.00041616086
0.00011311888
8.9187716e-05
0.00016808556
7.3426445e-05
-0.00016894784
0.00033176366
8.1443207e-05
-0.00010673772
-0.00031305834
0.00017021476
0.00011241145
-0.00062032633
0.00014754067
0.00016845141
8.1569227e-05
-5.1611284e-05
-0.00015260863
0.00059437255
-0.00013685376
-0.00031978862
0.0005285163
-0.00020445186
-4.6304907e-05
7.899073e-06
-0.00017880942
0.00036790312
-0.00054501615
-6.4163014e-05
0.00030457818
5.9363705e-05
2.6729774e-05
-0.00016864534
0.000512233
9.6393205e-05
-0.00030687825
4.9075526e-05
0.00018889379
-0.00018551365
-0.0005184115
0.00020001801
-2.2126031e-05
-0.00058288403
0.00013787121
0.00019619633
-0.00056522461
7.1166378e-05
0.00033627297
-0.00051484234
0.00016875465
0.00015443936
-3.35705e-05
0.00023297448
-0.0003349075
0.00041422297
0.00018269191
-0.00030997726
-0.00030277528
0.00017336081
-7.5366812e-05
-0.00056170283
7.2461098e-05
0.00016323584
-0.00053261277
3.632763e-05
0.00023107374
-0.00037448198
0.00016422941
7.6611802e-05
0.00023611789
0.00020200407
-0.00033385418
9.0122513e-05
-0.00014764617
-0.00039633353
7.3844296e-05
-7.9636742e-05
-0.00024256424
0.00018211383
0.00014967738
0.00025458199
-1.7641518e-05
0.0002942653
4.3658003e-05
6.9135874e-05
0.00021189476
-0.00020106286
-8.296838e-07
-1.9829021e-05
-0.0001278928
-5.6544277e-05
3.7186034e-05
6.8905345e-05
4.2165169e-05
0.00015170816
0.00020208897
1.515257e-05
-6.5310784e-05
-0.00010041836
4.3789674e-06
-0.00033467219
-0.00030524373
-4.5721192e-05
-8.5992615e-05
-0.00026457318
9.7462841e-05
2.2439626e-05
0.00046097637
2.4963949e-05
0.00012024414
0.00040913539
2.1576402e-05
0.00029430414
-0.00012265922
-4.3501699e-05
2.0088002e-05
-0.00023978019
-3.1019824e-05
9.0402815e-05
-0.00028904047
0.00027808937
0.00029572724
0.00022756006
7.934851e-05
0.0003248865
-3.360297e-05
5.3519228e-05
6.9242357e-05
-0.00025638855
-6.3788184e-06
-7.7075916e-06
-0.00048413829
-2.1795799e-05
-1.9959852e-05
-0.00048956174
-6.3410625e-05
-0.00014052217
-0.00034007893
-5.4201093e-05
-8.3571123e-05
-0.00010287768
1.2356133e-05
4.67126e-05
0.00026131412
2.2625128e-05
-5.7331661e-05
-0.00010215331
-9.6577697e-05
-4.6190215e-05
-0.00048278234
-9.006193e-05
-2.2574402e-05
-0.00048391288
-7.2315684e-05
-7.5843594e-05
-0.00027061068
-5.0602099e-05
-5.4164016e-05
5.4932232e-05
-3.2083935e-05
-0.00026131454
-4.0455707e-05
-0.0001506072
-0.00033394634
5.6136064e-05
-0.00022225731
-0.00022661905
5.5704933e-05
7.0059842e-05
-0.00014000286
0.00010226771
0.00018976064
-9.840815e-05
2.2365354e-05
0.00013135471
-0.00013425737
-8.3995545e-06
-1.0420568e-05
3.7670285e-05
-2.3787799e-05
1.6596834e-05
7.6416791e-06
3.4246272e-05
0.00016785242
2.5725041e-05
2.5108353e-05
1.6015388e-05
0.00010018244
-4.876376e-05
-0.00010995369
-0.00020331882
2.4044172e-05
-7.6003548e-05
-0.00029959304
1.0697156e-06
0.00015669198
-6.0151122e-06
0.00023429596
0.00035025034
0.00013323454
8.23425e-05
0.00028113957
5.4613235e-05
-0.00010816168
0.0001895471
-0.00010715268
-4.1035021e-05
0.00010213815
-0.00034142208
0.00013979055
0.00030017901
-7.1175143e-05
0.00010069435
0.00012146549
0.00014767236
-2.561821e-06
-1.023996e-05
-0.00014654531
2.1862197e-05
2.9830156e-06
-0.00046881587
-2.8545412e-05
2.1824948e-05
-0.00044875223
-5.9651447e-05
-3.9066925e-05
-0.0002519501
-2.7236961e-05
-0.00014746528
0.00010219567
-9.6674992e-05
-1.771581e-05
0.00012992924
1.6354157e-06
1.554929e-06
-3.5040287e-06
-0.00011792001
4.6608456e-05
-0.00047121589
-5.661996e-05
7.897774e-05
-0.00049433378
-2.1948369e-05
0.00011132496
-0.00020794218
-9.5015693e-05
0.0001806231
-0.00012346215
-0.00011549763
-0.00014581691
-0.00024391776
-0.0002055262
-0.00026992549
-0.00020061133
-0.00023120448
-0.00017872387
-0.00018045494
-0.00014915769
-0.00018201646
-0.00013269584
-7.8590708e-05
-6.5755465e-05
-2.0521754e-05
-5.0427271e-05
8.3855839e-05
-7.8652547e-05
0.00024714372
-6.3105442e-05
0.00019339792
-0.00014957302
5.0066114e-05
-0.00015626122
0.00011047932
-6.6428317e-05
0.00025568117
-1.1967304e-05
0.00032628126
-1.598684e-05
0.00025900002
-3.9871446e-05
-1.8058877e-05
-6.4363178e-05
-6.6064954e-06
-8.262753e-05
0.00023537489
-9.430903e-05
0.00022833223
-0.00013950267
-4.169107e-05
-0.00019879257
-0.00029878232
-0.00019166098
-0.00036138861
-0.00018934382
-0.00013497715
-0.00012421579
0.00012137047
-0.00012641837
0.00026310493
-0.00014523848
2.5473419e-05
-0.00023358436
-0.00022615694
-0.0002427034
-0.00026398633
-0.00017011278
-8.3363223e-05
-0.00015442758
0.00012249765
5.3226517e-05
-0.00017664416
5.2161204e-06
0.00012534155
4.1000029e-05
-0.00031417823
7.0609018e-05
0.00020519918
-0.00025751322
3.4695274e-05
0.00012174204
5.4150716e-05
-1.5413615e-05
3.5115122e-05
0.00012517574
-1.32935e-06
-6.483246e-06
0.0001511836
-5.4060348e-05
-6.8549033e-05
0.00015992935
-6.8469786e-05
-0.00014731273
0.00015784153
-4.8675477e-05
-0.00019061119
0.0001371885
-2.7486674e-05
-0.00016294431
4.0695572e-05
3.1911835e-05
-3.904731e-05
-0.00019940627
2.2625111e-05
-0.00015773129
0.00014509849
-6.5141675e-05
-0.00022885586
5.0139872e-05
-9.1990007e-05
-2.0716015e-05
-0.00027154282
-8.5367092e-05
0.00016899498
-0.00024085638
1.3244598e-05
0.0001983131
-9.121873e-05
3.3640661e-05
8.5439006e-05
0.00010897986
2.124594e-05
-7.9976856e-05
0.000154997
7.3811476e-05
-0.00019395342
0.00012857818
0.00014753038
-9.608587e-05
-0.0001068035
0.00015836593
6.8202019e-05
-0.00018848377
0.00011640059
3.2767117e-05
5.1003895e-05
0.00012239807
-6.9233822e-05
0.00014723102
7.3821969e-05
-0.00014480522
0.00014250644
4.1786337e-05
-0.00019741649
0.00011915199
5.3059329e-05
-6.4374001e-05
-8.7652374e-05
3.3616356e-05
0.00014859227
-0.00023768588
8.7531535e-05
0.00013073185
9.7758812e-05
3.1257751e-05
0.00014840693
8.5263963e-05
-0.00019711346
0.00029407796
0.00015919771
-0.0001469314
-0.00010073128
0.00017396752
4.6581178e-05
-0.0006392482
9.7769211e-05
0.00023867531
-0.00060698033
1.836721e-05
0.00032535777
-6.8781746e-05
3.1587929e-05
0.00024671059
0.00030850443
1.9158688e-05
0.00012531573
0.00045496322
-6.9265875e-05
-2.8678207e-06
0.00041247033
-5.0930981e-05
-0.00020531908
0.00055135449
-0.00010961849
-0.00033599895
0.00045501259
-1.6929457e-05
-0.0002134234
-1.9506937e-05
8.5167637e-05
-2.3007418e-05
-0.00053989186
9.8458318e-05
-0.00019342192
0.00024368727
-6.5028032e-05
-0.00018303017
-3.3548446e-05
-0.00013115529
9.1704963e-05
-0.0006313453
-9.3742061e-05
0.00033220255
-0.00055144738
5.9304116e-06
0.00044744335
-0.00030982244
0.00013009268
8.8437016e-05
0.00048524167
7.9137725e-05
-0.0002568631
0.00051846079
0.00017073011
-0.00022821417
6.7415511e-05
0.00023253174
3.0173355e-06
-0.00037935422
0.00017919043
0.00028863513
-0.0005190493
0.0001161141
0.00037369832
-3.0470945e-05
0.0001651663
3.9900739e-05
0.00055734196
0.00015666112
-0.00033668768
0.00060768526
9.4101513e-05
-0.00039501484
0.00025841105
9.2428916e-05
-0.00015995255
-0.00028919524
3.8941674e-05
0.00019159859
-0.00059346355
4.0554168e-05
0.00029246275
9.012677e-05
7.0997304e-05
0.00057795647
9.9031105e-05
0.00029698047
-3.9073664e-05
0.00012629367
0.00031261583
-0.00010253176
6.0009418e-05
-7.2675717e-05
-0.00012939883
5.7556019e-05
-0.00032846424
-0.00018047701
-0.00018835631
-0.00018240691
-0.00010831404
-3.7389169e-05
-2.6271959e-06
0.00016571152
-3.7816473e-05
1.4071769e-05
0.00035121441
3.0505569e-05
2.4510607e-05
0.00031180533
0.00013239133
-2.1308991e-05
0.00048559849
0.00012672817
0.00010977936
0.00034143357
-1.3130353e-05
0.00018866501
-5.9099826e-05
-8.5013949e-05
-0.0001741594
-0.00010409316
2.4488554e-05
-1.5770028e-05
8.5814593e-05
2.4447255e-05
0.00016135841
-0.00025488469
6.5784214e-05
8.9424446e-05
-0.00052292509
-7.9987945e-05
-4.3385904e-05
-0.00043249552
-1.7161335e-05
-1.6895857e-05
-0.00015865043
0.00010042732
0.00014255603
0.00038193992
2.3198363e-05
0.00022986358
0.0004186508
6.6021668e-05
0.00025967315
-1.3653933e-05
4.4881049e-05
7.9233691e-05
-0.00022838375
7.6731767e-06
-0.00016606218
-0.00033155611
-5.6079502e-06
-0.00015053061
-8.2863586e-05
-1.7340033e-05
-0.00010133899
0.00045997115
6.0535328e-05
-6.3517593e-05
0.00058932022
3.1687707e-06
8.133252e-05
0.00013170358
-0.00011472033
5.0292081e-05
-0.00026974597
-7.8470743e-05
-0.0002675686
-0.00016981301
-0.00017810552
-0.00014140197
2.4801321e-05
-0.00011144327
0.00049728383
-5.7970906e-06
0.00015523421
-0.00022331726
-1.1446317e-05
9.5338902e-06
1.1335668e-05
8.796895e-05
-0.00018307475
4.1266655e-05
7.7648087e-05
-0.00017360013
-5.7584835e-05
-3.0099093e-05
-0.00023006808
8.8525315e-05
-0.00011800604
-0.00015409961
8.4028526e-05
-2.6850332e-06
-2.0277288e-05
0.00011553922
7.8065087e-05
2.6142519e-05
0.00019038697
0.00010924483
0.00013590966
0.0002798088
0.00012113091
0.00030369307
0.000117362
7.5243955e-06
0.00016292702
0.00011967454
-1.396413e-05
3.6460662e-06
7.3792223e-05
-1.7534713e-05
5.3445457e-05
0.00010561016
0.00016470101
6.7569202e-05
-0.00019324259
6.5766638e-06
5.7030791e-05
-0.00050382653
-0.00011672182
-1.4491773e-05
-0.0003809629
-2.1045071e-05
-8.8891925e-05
4.2912101e-05
1.2628173e-05
0.00013440853
0.00021285245
4.6481364e-05
0.00033008077
0.00019252314
2.7893582e-05
0.00020431459
0.00011542108
1.855335e-05
7.7038808e-05
-0.00019331616
6.3662774e-05
-8.0737993e-05
-0.00022979569
-3.6350703e-06
-0.00031613528
0.00014940733
-2.4110595e-05
-0.00016876122
0.00022063392
-4.711824e-06
7.9678239e-05
0.000359411
-1.689482e-05
0.00013779789
5.5385146e-05
-9.9721222e-05
6.5591974e-05
-0.00022125765
-3.2902344e-05
-0.00010369198
-4.8206989e-05
2.572958e-05
-0.0002164042
0.00016234339
-0.00011984552
0.00020831443
-5.0896945e-05
-0.0001872449
-0.00018188927
-0.00020551431
-0.00017592113
-0.00017713481
-0.00018772416
-0.00021032059
-0.00020312292
-0.00015390678
-0.00011704618
-0.00012861018
-7.3963916e-05
-8.9176685e-05
1.0350261e-05
-1.8338017e-05
6.9121036e-05
0.00012381924
5.8998994e-05
0.00017037275
7.7030538e-06
0.00020406562
-6.3591349e-05
0.00020179858
-8.0201956e-05
0.00032503294
-8.4052514e-05
0.00023606788
-0.00011624482
-0.00011926668
-0.0001644788
-0.00034473951
-0.00019536151
-0.00021687315
-0.00014931744
-1.4550351e-06
-8.51932e-05
0.00017198887
-7.5229794e-05
0.00021603942
-6.8132151e-05
-5.5462809e-05
-0.00012060652
-0.00035719019
-0.0001197293
-0.00031270593
-8.4420761e-05
-0.00016057863
-5.5709175e-05
0.00015100032
-7.8586313e-05
0.00019072716
-0.00012958017
-6.2927352e-05
-0.00020118748
-0.00020263088
-0.00015120685
-0.00015740925
-5.2991007e-05
-3.2458033e-05
-0.0001421354
0.00015425451
4.557607e-05
-0.0002012663
0.0001275268
6.4029458e-05
0.0001057484
-0.00030074996
6.4088068e-05
0.00018526698
-4.878861e-05
6.3383317e-06
8.7273788e-05
0.00011516628
-2.9663915e-05
-1.3084791e-05
0.00013044172
-2.9697736e-05
-4.0432536e-05
0.00010964915
-0.00013303066
5.2267415e-05
-6.3435738e-05
-9.5195747e-05
2.0698666e-05
8.7630144e-05
-0.000101109
-4.3359263e-05
0.00012603406
-8.7279919e-05
-9.7566425e-05
0.00013688408
-4.8762248e-05
-0.00015581653
0.00011209276
-2.9169548e-05
-0.0002227692
6.0650517e-05
-5.5630154e-05
-0.00012882106
-0.00022747085
4.2015057e-05
3.2801689e-05
-0.00025671429
9.2176416e-06
0.00021265901
-0.00024885317
8.0088527e-05
0.00017599806
3.7365668e-05
3.3353331e-05
3.682086e-05
0.00016185078
-1.8234878e-06
-6.8696699e-05
0.00014675016
3.1166693e-05
-0.0001261807
0.0001799655
2.4838586e-05
-0.00011390888
0.00011948919
2.6648324e-05
-5.7333921e-05
4.604763e-05
1.3591976e-05
-8.1776794e-05
0.00017537444
-2.8591406e-05
-8.8529057e-05
0.00014768822
-6.8356749e-05
-8.1113387e-05
0.00013661078
-0.00010393091
-8.2678975e-05
0.00015695081
-0.00010243319
2.3881099e-05
9.4869194e-06
-8.3855266e-05
3.9165932e-05
0.00013601758
-6.2579542e-05
2.2965912e-05
0.00015848917
-0.00011173424
0.00013311495
-2.4990535e-05
-0.00026869596
0.00044760735
0.00013454083
-0.0001347601
3.2812089e-05
0.00013474637
0.00026449227
-0.00067488085
7.264773e-05
0.00038552401
-0.00014220134
-9.251803e-06
0.00019833416
0.00038999971
-5.6055647e-05
-0.00013211694
0.00061134333
-0.00013129183
-0.00010312127
0.00020257541
-0.0001911878
0.00017952989
-0.0002996983
-9.7319572e-05
0.00029962724
1.557543e-06
-0.00014364324
0.00014688967
0.0004179046
-0.00015606243
-0.00012742581
0.00060325627
-0.00010688909
-0.0002953205
0.00040450631
-2.6060532e-05
-0.00024204058
-3.4936757e-05
-2.2720684e-05
-5.6001559e-05
-0.0005864569
4.1791749e-05
9.5508742e-05
-0.00053274626
3.0779621e-05
0.00033194681
-0.0006014268
0.00012206597
0.00041682784
-4.7639637e-05
0.00013021697
0.0001687029
0.00046405049
2.5062954e-05
-0.0001659574
0.00062814917
2.3991394e-05
-0.00026676157
0.00046641732
4.6884078e-05
2.2201687e-05
-3.4098553e-05
4.381491e-05
0.00026145877
-0.00013043096
5.3335607e-05
0.00021707704
0.00042538064
-4.0458183e-05
1.0616262e-05
0.00056889729
-5.8087178e-05
-0.00025655623
0.00059976007
-0.00010187528
-0.00035046553
0.00040723731
-6.3948282e-05
-0.00010542243
-0.0001549032
-4.17113e-05
0.00013992133
3.1463125e-05
-0.00010023513
0.00012199137
0.00044020745
-0.000192791
0.00050578823
-0.0001516508
0.00023081885
0.00026754907
7.5533098e-05
0.00037058478
-5.5559923e-05
8.6154982e-06
-4.4000831e-05
-0.00013767551
-6.50637e-05
-8.5760373e-05
-4.1278104e-05
-0.00024752001
6.920426e-05
0.00028400958
-8.6363676e-05
0.00011100275
0.00054169716
-9.9687833e-06
0.00017639022
0.00011326213
5.4431383e-05
-3.5954545e-05
-8.4995577e-05
0.00013003339
-2.9395048e-05
-8.2557137e-05
0.00020428336
5.0218548e-05
0.0002880996
3.7061051e-05
-4.5571451e-05
0.0005311454
8.2886921e-05
0.00011583774
0.0002765567
-8.9710244e-06
0.00026401068
-8.9876014e-05
-6.8786423e-05
0.00012623329
-0.00029021816
-9.2677142e-05
-5.0867458e-05
-0.00038806222
-4.7571232e-05
-0.00039935093
-0.00014613118
-0.00012397347
-0.00023307702
-9.9738674e-05
-1.374756e-05
-3.8337203e-05
0.00035094904
-5.8440001e-05
-1.5827064e-05
0.00061405445
5.7606247e-05
6.2443278e-05
0.00035445749
7.8570531e-05
5.3126177e-06
-0.00012828614
0.00015899142
-0.00012523755
-0.00013419091
0.00012870215
-0.0001440244
0.00031413658
0.00011269087
-9.5461944e-05
0.00055101682
2.9853332e-05
-4.0331814e-05
0.00059589086
-4.8092146e-05
-2.4123825e-05
0.00031676934
-4.0460341e-05
-0.0001733494
-0.00014460238
6.0454018e-05
-0.00018785418
-6.5519426e-05
-6.6618175e-05
-0.00013450983
0.00034462876
-6.9208914e-05
0.00047384883
-0.00010836752
0.00026405392
-6.2370439e-05
5.4419281e-05
0.0001226352
0.00012060442
5.3223318e-05
-0.00013062171
0.00017385506
1.9374425e-05
-0.00019304136
0.00015870424
-0.00016766178
1.1385151e-05
0.00011179242
-0.00015021539
0.00020839359
0.00030937948
3.2624211e-05
0.00026544073
0.00010731608
2.6964001e-05
0.00012522025
4.855482e-05
0.00011591492
-0.00014902693
0.00020506694
0.00010775401
-7.6326445e-05
0.00014139356
8.1529959e-05
9.3363294e-05
0.00027480258
7.2688962e-05
0.00019340019
0.00015551883
3.466261e-06
9.0121356e-05
0.00023732233
-5.9218498e-05
2.6044823e-05
-0.00016578151
-5.3783444e-05
-2.9384523e-05
-0.00037826627
-7.108841e-05
-0.00023417984
3.7727703e-05
-1.0863116e-07
-0.00035290631
0.00013660761
-0.00010499164
-0.00010359679
0.00018047562
-3.2354735e-05
9.6481516e-05
0.00036356672
7.8302995e-05
0.00023563935
0.00014731001
8.6542983e-05
-1.5374045e-05
4.8968829e-05
0.00013742118
-0.00031372269
9.9138812e-05
6.1383843e-05
-0.00025337007
0.00015130912
7.8364242e-05
-0.00010038065
0.00032377484
6.9540737e-05
0.00014632842
0.00035660795
-2.4320987e-05
0.00022689714
0.00014681091
-1.0331507e-05
-0.00013063213
0.00020279939
-2.2774825e-05
-0.00037201731
0.00026827
-6.6674641e-05
-0.00022692602
0.00013569639
-5.6004413e-05
0.00028766215
-9.1636273e-05
-0.00013339892
-0.00011086079
-0.00012405123
-6.4664396e-05
-7.331893e-05
-6.4601403e-05
-5.687335e-05
-6.0864261e-05
-3.7370032e-05
-2.4757068e-05
0.00011654662
8.1498915e-05
7.9191448e-05
0.00015502152
-3.7269588e-05
0.0002341369
-3.1310997e-05
0.00025810735
-3.4946343e-05
0.00015273196
6.3764706e-05
0.00011250018
0.00010362452
3.5457068e-05
0.00029050584
-3.3611504e-05
7.5231755e-05
-6.6752238e-05
-0.00032953258
-0.00013798073
-0.00036470017
-0.00012246621
-0.00028030543
-9.7104579e-05
-0.00012993546
-5.5087551e-05
8.4544014e-05
7.3857453e-05
7.652601e-05
8.719586e-05
-9.5837668e-05
0.00010072598
-0.00025013018
0.00013370201
-0.00029362934
0.00011038751
-0.00012980219
0.00010423851
0.0001064078
4.1811647e-05
7.6321738e-05
4.7316816e-05
-1.7184299e-05
9.5117955e-05
-5.4795927e-05
0.00015467479
-0.0001437258
0.00017163527
0.00011147832
-9.7739895e-05
0.00015055411
-2.6968317e-06
-0.00018133829
0.00014883983
4.1028397e-06
-0.00014933014
7.1915553e-05
-3.4983583e-05
-0.00014010922
0.00012835336
-0.00012791296
-0.00020273606
0.00016200176
-0.00012548172
-0.0002287109
0.00011806218
-0.0001172344
-0.00010700396
-0.00013397521
-0.00011812378
2.375689e-05
-0.00014508776
-7.7714145e-05
0.00013354509
-0.00015617462
-5.1909784e-05
0.0002226707
-0.00011665249
-5.7453139e-05
0.00018457625
9.1151679e-05
-9.7927459e-05
8.7619591e-05
0.00018022363
-0.00010899809
-6.0489776e-05
0.00015399439
-6.0169767e-05
-0.00017047877
0.00015621795
9.3008489e-06
-0.00017110779
7.4512046e-05
1.4129302e-05
-4.3996218e-05
0.00015108469
-0.00011627467
0.00014483493
-7.6279125e-05
-0.00018041952
0.00016825838
-7.3763905e-05
-0.00021996434
0.00017349051
-0.00010934677
-0.00015714194
7.4511744e-05
-0.0001102194
0.00010679291
-0.00021327539
-4.148217e-05
0.00012262241
6.6313464e-05
-0.00011159976
6.2594143e-06
0.00016355413
-0.00011764962
-0.00010793879
0.00014268003
-0.00013507115
-0.00014271499
5.7678704e-05
-0.00012729432
2.9226699e-05
-0.00016968782
-8.9585366e-05
7.5564254e-05
6.3810152e-05
-0.00017034949
4.0193053e-05
0.00010863541
-0.00018384235
0.00013734826
-0.00012143099
-0.00014995586
0.00042513885
9.9119493e-06
-0.00011662189
0.00024931426
9.3796231e-07
6.3223766e-05
-5.3494158e-05
1.8211786e-05
-0.00011259369
0.00044959586
-0.00015467684
-0.00040573019
0.00058149319
-0.00018241058
-0.00032148057
7.5394194e-05
-0.00017287346
-0.00011107541
-0.00043089855
-0.00010466961
7.1299153e-05
-0.0003885688
-3.6213102e-05
0.00019353939
-0.00043424354
1.2185447e-05
0.00034600652
-0.00040337143
-2.1810612e-05
0.00044962723
1.3298492e-05
-0.00013265661
0.0002358485
0.00052850718
-0.00016056536
-0.00013482786
0.0006122413
-0.00011029123
-7.3132248e-05
0.0001363141
0.00031759596
-0.00053105638
0.00044092128
1.2869949e-05
0.00019794947
0.00052427348
-0.00015740435
0.00060652748
-8.1275777e-05
-0.00037222374
0.00053866241
-0.00013159325
-0.00042555327
0.00042547517
-0.00015177105
-0.00014668218
-5.9399889e-05
-0.00010114455
0.00028936221
-0.00058743018
-8.5539985e-06
0.00042506032
-2.4283118e-06
-0.00010741452
0.00018005909
0.00052847703
-0.00017800886
-0.00026776054
0.00067400696
-0.00018538258
-0.00041609832
0.00019119277
-4.9124565e-05
-9.0844668e-05
-0.00052979447
-6.8582898e-06
6.3797394e-05
-3.9791846e-05
-0.00015127518
0.00011431031
8.1468888e-05
-0.00021613739
0.00034301639
-0.00024300861
8.3566598e-05
0.00035896399
5.8141352e-05
0.00013294983
0.00014251764
6.6028885e-05
0.0001053961
-0.00011272389
2.1719766e-05
4.365713e-05
0.00029921521
-3.5400385e-05
0.00016347972
0.00049647231
-0.00012116538
0.000284569
-1.4270648e-05
-4.1393215e-05
7.5718955e-05
-0.00013198865
-3.5628477e-05
6.560107e-05
-0.00031198374
6.356623e-05
1.5359589e-05
-0.00028017389
0.00010045519
-0.00020735636
-0.00014491823
1.3237975e-06
-4.211223e-05
-7.1095295e-05
2.0365781e-06
6.1477045e-05
0.00041482069
1.1261914e-06
0.0001403936
0.00055135329
-8.6814961e-05
0.00023136793
-4.7337375e-05
-0.00012164067
-0.000225619
-0.00015078417
-8.1960019e-05
-5.1889305e-05
0.00041163106
-5.7819397e-05
0.00058572182
-3.1704246e-05
-2.110997e-05
0.00049711695
6.2442283e-05
0.00011730313
0.00029173858
7.3894017e-05
0.00016494064
-0.00012167228
0.00017362629
-0.00014203054
-0.00026564135
0.00011388449
-8.5471143e-05
-7.6894583e-05
0.00013059773
7.774754e-06
0.00041651393
4.8570531e-05
3.4570253e-05
0.00066162138
-6.2502067e-05
1.5985451e-05
0.00012681062
4.2506618e-05
-0.0003772104
-0.00013872079
6.2576194e-05
-0.00041688681
-0.00010565342
3.8919818e-05
-0.00026175058
-0.00012251319
-2.0363053e-05
0.00012654013
-0.00015364181
0.00023814216
0.00013413282
4.1108298e-05
0.00029923279
7.2239926e-05
6.2410403e-05
-3.2239133e-05
0.00031895652
-8.0834063e-05
-3.2412066e-05
0.00014536019
-1.3633832e-05
0.00030523689
0.00012833785
-0.00011972988
0.00017922816
0.00015675703
-1.2394733e-05
7.9728717e-05
3.1960155e-05
-3.7485346e-05
0.00011344173
-0.0003025451
7.2763264e-05
5.4476625e-05
-0.00020519517
9.1740416e-05
-0.00010774886
4.0243707e-05
5.8593519e-05
-0.00027178789
0.00012523676
4.0395931e-05
-8.3115695e-05
0.00014530348
8.4311287e-05
0.0001335257
0.00029268698
-1.7193572e-05
0.00018246194
-0.00015005705
-2.7415268e-05
-8.6830198e-05
-0.0003045624
0.00019507849
-0.0001864042
0.00018848122
-7.8891689e-06
0.00037834531
-3.4932498e-06
0.00014574067
0.00029505441
0.00012673569
0.00026116038
0.00012900644
0.00013385542
0.00016724641
4.6707928e-05
6.2954933e-05
-3.9454521e-06
-0.00017778563
0.00014471998
-0.00020376613
8.9105556e-05
0.00011218476
-5.4785347e-05
0.00017840677
0.00015866711
0.0001861742
0.00034905145
4.7289404e-05
0.00018177332
0.0001192043
1.6756969e-06
-6.2130586e-05
5.3085118e-05
2.9323193e-05
-0.00023181877
1.5525613e-05
-1.8165467e-05
-0.00023352163
-0.00019045547
1.364076e-05
-7.87365e-05
-0.00011988127
1.7209955e-05
6.0620746e-06
1.3784701e-05
1.1000784e-05
0.00017132488
9.6814941e-05
0.00016800785
8.7812965e-05
0.00018914117
8.2447469e-05
0.00029207638
0.00013532073
0.00027979435
0.00019926371
-5.2697123e-06
0.00021665587
-0.00021728813
0.0002649306
-0.00024396654
0.00021965408
-0.00018628701
0.00018005741
-0.00010694392
0.00010141746
8.2644775e-05
6.9486782e-05
-0.00013416451
-0.00035897543
-0.00028636315
-0.00019498651
3.726089e-05
9.1010366e-05
0.00020796644
0.00019820632
0.00023258809
0.00019158063
0.00014031199
0.00023971001
-0.00016429323
0.00026052159
-0.00022240769
0.00025760752
-0.00011373851
0.0001739761
0.00013877919
0.00013834541
0.00020357746
0.00010172285
0.00020969434
0.00014208621
0.00020225005
0.00017764471
2.4306139e-05
0.00015912373
5.7047966e-05
-0.00013747902
0.00016139809
-2.1926693e-05
-0.00023465812
0.00011641712
-7.4759006e-06
-2.1695291e-05
-0.00026732477
1.9830223e-05
-9.5023851e-05
-6.2062429e-06
-4.5726035e-05
-0.00025654203
0.00013420581
-9.5704804e-05
-0.00030105908
1.6993656e-05
-8.6403914e-05
-0.00017357195
-0.00023808905
-6.7641683e-06
9.3761724e-06
-0.00029261487
3.1947472e-05
0.00014331085
-0.00026860211
8.2409291e-05
0.00018817261
-0.00016184824
5.991086e-05
0.00027265931
-0.00015230891
-3.055718e-05
0.00018084471
3.4312512e-05
-4.9647473e-05
0.00014612301
-2.4706813e-05
-0.00016887061
0.00017242955
-8.0655982e-05
-0.00029755232
0.00016317822
-0.00010714132
-0.00027807804
-5.9685978e-06
-0.00012241596
-9.1436375e-05
-0.0002327758
-6.6446032e-05
8.5290289e-05
-0.0002012369
-1.9023704e-05
0.00018647004
-0.00016902069
-4.5976048e-05
0.00010778486
4.3742121e-05
-8.3636448e-05
-6.522592e-05
0.00013144431
-9.5147841e-05
-0.00018723363
7.1776558e-05
-7.9109284e-05
-0.00012390384
-0.00014087599
-1.4901908e-05
-4.3155862e-05
-0.00021709281
-3.5529614e-05
0.00010119772
-0.00022882488
-0.0001016786
0.00010567118
-0.00012556017
-0.00027419337
0.00044869068
-3.1872724e-06
-0.00013975447
-2.3231395e-05
6.1475822e-06
0.00027501741
-0.00065082855
-1.3056316e-05
7.1963468e-05
9.9426419e-05
-5.7255567e-05
-0.00039553355
0.00057784962
-0.00015855737
-0.00039056251
-3.6675761e-05
-0.00012417509
-0.00016102892
-0.00053879734
-3.3494902e-05
3.6869594e-05
-0.00057098187
4.4255389e-05
0.00019578267
-0.00054219874
0.000126869
0.00025859462
-0.00037138999
0.0001249192
0.00040094666
-0.00040252605
-2.4791512e-05
0.00039648007
-7.3228576e-05
-4.8557677e-05
0.00048472447
-5.2412627e-05
-0.00032453739
0.00050508015
-8.938898e-05
-0.00042876042
0.00026148891
-0.00012568092
-0.00034315711
-0.00012287248
-0.00012047048
-8.2364649e-05
-0.00056802778
-2.6685037e-05
0.00013841305
-0.00046379278
3.3224168e-05
0.00032274002
-0.00047522921
1.4467024e-05
0.00031604932
-5.6912297e-05
-7.0663741e-05
-0.00011054817
0.00045302679
-8.0367575e-05
-0.00039038832
0.00023411996
6.8372185e-05
-0.00020942841
-0.00040315302
7.4458848e-05
-0.00010974443
-0.0005124919
4.4439933e-05
7.2246023e-05
-0.000580053
-4.6899709e-05
0.00012342303
-0.00018851443
0.00017204343
0.00034325745
-8.4688439e-06
0.00031128033
-6.706613e-05
-2.9373274e-05
-7.8175788e-05
-0.0001741064
-6.5546267e-05
-0.00012245338
5.5075049e-06
0.00010279612
5.4006712e-05
0.00037658662
-9.6362474e-05
0.00014262973
-0.00021363777
4.6945782e-05
3.1588468e-05
-0.00038025202
-8.3132527e-05
2.9432569e-05
-0.00046659904
-3.8660689e-05
3.5649295e-05
-0.00044358953
-4.3707361e-06
4.3084522e-05
-0.00035451879
-2.2982632e-05
-5.8224385e-05
-0.00030245274
3.2721657e-06
-4.8142872e-05
-0.00015684994
7.466604e-05
0.0003832228
-3.3456168e-05
6.5114537e-05
0.00044112279
-3.2861421e-05
0.00023959258
0.00013988232
9.5708325e-06
0.00023317249
-9.4787525e-05
5.222915e-05
-4.4174966e-05
-0.00014823522
3.1181175e-05
-7.8938426e-05
-0.00041865807
0.00010351323
-0.00012980797
-0.00037497639
8.1214443e-05
-0.00010903318
-9.3023638e-05
6.3907086e-05
-1.1959964e-05
0.00030947211
-1.6020615e-05
6.94356e-05
0.0001393015
5.5929523e-05
-8.1124445e-06
-0.0002343009
-2.8727875e-05
-0.00018621418
-0.00037181191
7.6341579e-05
-0.00031246231
-0.00048978186
1.5613962e-05
-0.00028787205
-5.4809031e-05
0.00024877813
0.00012606691
9.5207037e-06
0.00017713632
0.00013053281
-6.3546727e-05
-2.8786072e-05
4.0108871e-05
-8.9126938e-05
-0.00010577384
6.7724886e-06
6.2088952e-05
0.00021679658
-0.00010942277
4.3709099e-05
0.00012168773
-0.00019089522
5.9971574e-05
4.614888e-05
-0.00032814276
-1.4055754e-05
7.5163934e-05
-0.00042357975
7.2892065e-07
5.0135572e-05
-0.00039650481
6.9684068e-05
5.6344022e-05
-0.0003282861
2.615239e-05
-1.8266784e-05
-0.00023769311
5.0247118e-05
-0.00013477337
-2.0423158e-05
6.4391091e-05
0.00016092395
7.0331908e-05
0.00021203764
0.00020046582
2.5126088e-05
0.00026527542
0.00012362791
8.9752317e-05
7.0895182e-05
0.00013918923
9.4258898e-05
-5.445641e-05
-4.7390309e-06
4.4810329e-05
3.3074139e-06
-0.00044277458
0.00011107265
-3.6442985e-05
-0.00033642397
0.00011338273
-0.00014466995
7.626067e-05
9.7609756e-05
-5.2264997e-05
0.00015405051
0.00011030605
0.00011436213
3.4931766e-06
-2.9143094e-05
0.0001274544
-0.00020706219
-1.1007769e-05
1.4131767e-05
-0.00039681251
0.00012015779
-3.4449588e-05
-0.00046272703
3.5167298e-05
-0.00034730076
-9.4902134e-05
0.00010311734
2.901164e-05
0.00022780385
1.6847086e-05
0.00029653811
6.8189546e-05
0.00037484484
1.6278724e-05
0.00038395649
-3.608694e-05
0.00035649742
-2.8115407e-05
0.00022930754
-1.6891557e-06
9.7475073e-06
1.2636158e-05
-0.00017045826
4.8631556e-05
-0.00027034815
-8.7421288e-06
-0.00030243946
-2.5544397e-05
-0.00020537396
-1.6071193e-05
2.5036773e-05
0.00012366377
0.00016781242
0.00020599302
0.00023950498
0.0002761967
0.00026056618
0.00023153472
0.00027963294
-0.00012039844
0.00016968016
-0.00033062518
0.00013141028
-0.00015335144
7.2963034e-05
9.7086623e-05
4.195786e-05
0.00029425521
-9.1952552e-05
0.00035840649
-0.00012912724
0.00028335375
-0.00014411504
0.00011232805
-0.00013257758
-0.00017792474
-0.00013737105
0.00015070489
-3.0850677e-05
-0.00026361814
0.00013801738
-1.2800008e-05
-0.00012410452
-0.00018974872
7.3405102e-05
-8.1088797e-05
-0.00018093799
9.2414675e-05
-0.00023282781
7.5456281e-05
-1.7892479e-05
-0.00022426277
-8.0511439e-05
-1.331514e-05
-8.0655483e-05
-0.00020740054
5.7611569e-05
0.00010705644
-0.00024843317
9.2758784e-05
0.00017858239
-0.00012167037
0.00013308198
6.5379086e-05