/*--------------------------------*- C++ -*----------------------------------*\
| =========                 |                                                 |
| \\      /  F ield         | OpenFOAM: The Open Source CFD Toolbox           |
|  \\    /   O peration     | Version:  v2012                                 |
|   \\  /    A nd           | Website:  www.openfoam.com                      |
|    \\/     M anipulation  |                                                 |
\*---------------------------------------------------------------------------*/
FoamFile
{
    version     2.0;
    format      ascii;
    class       volScalarField;
    location    "770/bottomWater";
    object      p_rgh;
}
// * * * * * * * * * * * * * * * * * * * * * * * * * * * * * * * * * * * * * //

dimensions      [1 -1 -2 0 0 0 0];


internalField   nonuniform List<scalar> 
1460
(
0.26682218
0.26346873
0.2724626
0.27562509
0.28323906
0.28114579
0.27965054
0.28180577
0.28739629
0.28101955
0.28611842
0.27676925
0.28492357
0.28449781
0.28420533
0.28491483
0.28005443
0.30157558
0.30661668
0.31151505
0.31716053
0.30785655
0.31114257
0.31238105
0.3118438
0.31004862
0.31652379
0.31230968
0.32094281
0.31000372
-0.22394161
-0.22472789
-0.20046518
-0.18464501
-0.19715888
-0.22926548
-0.24340024
-0.20076964
-0.18753004
-0.18957117
-0.21399326
-0.2515159
-0.26080247
-0.24856894
-0.24737335
-0.24986387
-0.25013728
-0.20442
-0.18257238
-0.19252557
-0.19715177
-0.25221221
-0.21255555
-0.22531364
-0.28372894
-0.25774595
-0.22355479
-0.20551338
-0.22347779
-0.25042836
0.10263129
0.085959467
0.056988448
0.061430491
0.04703366
0.07424247
0.069730947
0.066394425
0.0558921
0.041098226
0.035978858
0.058444042
0.089695616
0.10426655
0.092265885
0.08121054
0.067112391
0.039532024
0.047792014
0.060775463
0.066283496
0.084902477
0.077303014
0.057553175
0.069236707
0.072306084
0.032807692
0.077370938
0.059363085
0.10345503
-0.018342029
-0.0321738
-0.039172309
-0.04406395
-0.045499476
-0.069309431
-0.040034882
-0.042831846
-0.040576429
-0.066495066
-0.063785676
-0.066590158
-0.027645182
-0.033340225
-0.040561258
-0.038491724
-0.059800586
-0.053076148
-0.065761898
-0.017490728
-0.03538817
-0.067208599
-0.070575727
-0.079471766
-0.054626681
-0.08569961
-0.085916133
-0.064869767
-0.031657855
-0.040240754
-0.0007959697
-0.0075559404
-0.011964474
-0.013421234
-0.0053138472
0.012184942
0.0036140825
-0.0064295608
-0.012358602
0.0059946979
0.018466923
0.021148034
0.016369688
0.0093383189
0.0022517934
-0.0039327737
-0.0084818621
0.00308983
-0.010990502
-0.0042826651
-0.025336989
-0.016241926
0.018708597
0.01902338
0.01874285
0.024875238
0.010477199
-0.020007199
-0.012543259
-0.0027927272
0.26747117
0.26554062
0.26053523
0.28287407
0.28671013
0.2831338
0.28355665
0.27838512
0.27537446
0.27777484
0.28531341
0.28388462
0.28041786
0.29489684
0.30117075
0.29488805
0.29699551
0.29525617
0.29327665
0.29440455
0.29576078
0.31119137
0.32425356
0.31598222
0.31771002
0.31876712
0.30842913
0.32281096
0.30031413
0.3103843
-0.23437084
-0.2307708
-0.23073913
-0.19856146
-0.20281068
-0.25054623
-0.25702344
-0.25221731
-0.24543136
-0.24996019
-0.26279549
-0.26289746
-0.2557995
-0.219041
-0.20510059
-0.24421417
-0.27526731
-0.25473853
-0.2500847
-0.24854589
-0.25828608
-0.21836633
-0.20498619
-0.27836325
-0.28867626
-0.28533865
-0.26439648
-0.23577981
-0.28045922
-0.27793949
0.11260126
0.079262465
0.063264358
0.024988925
0.029249357
0.068803945
0.081490775
0.075692366
0.066058949
0.072386927
0.088199359
0.078410413
0.063804227
0.027174365
0.074234083
0.068795941
0.088692378
0.10114054
0.075271706
0.094883805
0.096452951
0.036707501
0.035409774
0.045466066
0.085281178
0.082714725
0.058397291
0.04537929
0.07957761
0.091881934
-0.032948174
-0.060493786
-0.072836752
-0.06593331
-0.064648008
-0.073256429
-0.038946262
-0.033978098
-0.056312481
-0.052001719
-0.038686825
-0.026719322
-0.063438575
-0.056898465
-0.051429061
-0.066031389
-0.049281243
-0.077653243
-0.10571337
-0.059007661
-0.06801809
-0.088548715
-0.073514541
-0.10921939
-0.039799818
-0.046684987
-0.11164592
-0.076677669
-0.076170391
-0.050626809
-0.0059864875
-0.014388072
0.0075395713
0.015629908
0.011130613
0.0093566383
0.011254236
-0.0014695635
0.01241353
0.015478377
0.013488147
0.020474755
0.028976411
0.018240093
0.00058536836
0.0049297276
0.010335665
0.012863432
0.014137203
0.0020155314
-0.026368225
-0.0044247693
0.017000628
0.02051675
0.035051592
0.022907121
0.021475599
-0.0015021112
-0.012269037
0.0049085111
0.26838569
0.28261082
0.2955451
0.28848642
0.2844444
0.28608104
0.28376917
0.27168227
0.29412082
0.2790383
0.2840445
0.28599375
0.29678256
0.2878661
0.3019444
0.29304892
0.28287788
0.29635393
0.28356829
0.2923554
0.2829266
0.28296627
0.29066092
0.29372288
0.3018027
0.30439714
0.30175368
0.31022628
0.30381042
0.30884559
-0.23043445
-0.21505174
-0.19812734
-0.24789447
-0.26470816
-0.2631296
-0.25866421
-0.25096777
-0.20643745
-0.22791059
-0.26358879
-0.26157525
-0.26191434
-0.25211589
-0.20145031
-0.21478186
-0.2616043
-0.26863957
-0.26647965
-0.26086902
-0.26642885
-0.26527901
-0.26268591
-0.28764969
-0.28556918
-0.2866283
-0.26421693
-0.25207306
-0.28022893
-0.28026592
0.069649011
0.030293159
0.038201138
0.067055364
0.08246253
0.10794975
0.074006518
0.062445791
0.028776282
0.059231187
0.051779795
0.092375043
0.087764593
0.056087206
0.037158546
0.051208877
0.081233686
0.10651765
0.099056277
0.10963555
0.11902015
0.10522415
0.096068574
0.095718684
0.14230072
0.097082555
0.077840238
0.048171899
0.078005388
0.11418606
-0.045826519
-0.057323805
-0.050572724
-0.06441856
-0.039746616
-0.031594588
-0.035918107
-0.06354349
-0.048294759
-0.068606939
-0.034448169
-0.035672967
-0.026925102
-0.067377339
-0.07394493
-0.063101482
-0.048853786
-0.039430077
-0.074983496
-0.059000268
-0.058699978
-0.072992552
-0.098477906
-0.061495487
-0.037249467
-0.034631091
-0.072538668
-0.063699646
-0.05848703
-0.036747073
0.00013717477
0.012190127
0.020153603
0.01861917
0.021314531
0.03040069
0.018837712
0.016891111
0.023596286
0.015478201
-0.00035506897
0.01188937
0.0082309257
-0.0032623861
0.021661514
0.03346769
0.0019015479
0.017414093
0.026522816
0.032458024
-0.011980516
0.0083773543
0.022259426
0.021146521
0.041441995
0.028127798
0.036741551
0.019500885
0.0096180117
0.025308231
0.2765671
0.2801407
0.26856965
0.27369614
0.27681581
0.27661897
0.28375311
0.29719063
0.30084435
0.28890029
0.27900852
0.27368424
0.28598467
0.2844832
0.28487179
0.2826956
0.28103776
0.28030205
0.31047885
0.32038889
0.29257518
0.31383602
0.31298926
0.31574441
0.31858039
0.31673389
0.30764019
0.32823662
0.30575264
0.31472355
-0.24885226
-0.23876857
-0.23705918
-0.24709153
-0.24122786
-0.2427958
-0.23607404
-0.17707815
-0.15211071
-0.19470613
-0.21852325
-0.25107992
-0.25240354
-0.25843776
-0.24895467
-0.23807872
-0.2450743
-0.25605371
-0.20586465
-0.1877396
-0.25860004
-0.20915729
-0.24309854
-0.29042903
-0.29202144
-0.28932454
-0.26525899
-0.23758119
-0.2697769
-0.28048457
0.10841348
0.09878829
0.091089104
0.081838939
0.074034415
0.048818704
0.0120925
0.030689281
0.025203057
0.05287407
0.071177085
0.079237294
0.10854266
0.11410272
0.096094749
0.091104561
0.096610733
0.076848464
0.036313515
0.040956678
0.10206262
0.08067815
0.058364207
0.082531172
0.1051253
0.065106599
0.0668676
0.040408992
0.055694323
0.08571042
-0.06292994
-0.090039665
-0.061589098
-0.050281844
-0.035600733
-0.061411194
-0.053671402
-0.052437763
-0.057741996
-0.048879803
-0.034618463
-0.04867935
-0.030862946
-0.020133698
-0.058251454
-0.06503343
-0.041540626
-0.074859636
-0.095497908
-0.076999396
-0.072654129
-0.042043187
-0.069140542
-0.047048328
-0.041865997
-0.059007899
-0.096267768
-0.049228219
-0.079314951
-0.037826924
0.0039876005
0.02871782
0.01194767
0.00035462824
0.0025482306
0.0088933393
0.0065307006
0.005344667
0.0077442712
-0.01710554
-0.0073337411
-0.006276944
-0.004822347
-0.012032132
-0.0093383032
0.0084732574
-0.0057064024
-0.0080158989
0.018854314
0.023694607
-0.0035844834
-0.0060740665
-0.0003987188
0.0094972321
0.028554907
0.013684942
0.017093061
0.0070939442
0.014012919
0.017136536
0.28044138
0.27690668
0.26460641
0.29261965
0.28108111
0.28750207
0.29054264
0.29080686
0.3026379
0.3007028
0.30238073
0.30090699
0.29615449
0.29229908
0.29083276
0.29336266
0.28314804
0.2955857
0.29264019
0.29799817
0.29525427
0.30410162
0.30340253
0.31266065
0.31264955
0.31202167
-0.24856151
-0.25290767
-0.2378765
-0.22378133
-0.24015991
-0.25875194
-0.25447041
-0.24009478
-0.20253818
-0.18305286
-0.18302152
-0.21887609
-0.240338
-0.26619637
-0.24725287
-0.24923175
-0.25851273
-0.21872585
-0.21133423
-0.26960188
-0.25587064
-0.22936446
-0.20893675
-0.20579472
-0.24338716
-0.26602464
0.10505307
0.058263576
0.054028935
0.024644853
0.0632034
0.07222653
0.084624479
0.049686869
0.059489666
0.064858264
0.06781091
0.047093112
0.074194373
0.10003324
0.090488285
0.090820719
0.10042717
0.047809532
0.064546726
0.072337435
0.062372647
0.025897961
0.044975785
0.055635437
0.051529985
0.074979183
-0.016175878
-0.032855843
-0.063885361
-0.052573426
-0.058912271
-0.031991992
-0.02782129
-0.06294205
-0.035840932
-0.030900653
-0.037695684
-0.048479614
-0.04003025
-0.036056843
-0.091093862
-0.063729255
-0.064457179
-0.052824857
-0.07246159
-0.024768603
-0.057563812
-0.055299964
-0.055508219
-0.037414088
-0.06016585
-0.064716694
-0.0024145482
-0.010472981
-2.639602e-05
0.015347542
0.018750276
0.005769344
0.0055282841
-0.010967879
-0.017296283
-0.016754602
-0.013145801
-0.013744892
-0.014248415
0.0052847318
0.011844389
0.0069304186
-0.0073088215
0.0087214105
0.0050398345
-0.011106513
0.0023990412
-0.0059975925
-0.01536675
-0.011858634
-0.010432337
0.0027523151
0.2813501
0.27418374
0.27880697
0.29094383
0.30221051
0.29803563
0.30733495
0.29785273
0.29633044
0.29693512
0.30695576
0.29062628
0.29333339
0.28203539
0.29094688
0.29647157
0.29848055
0.30099908
0.30421758
0.30543266
0.31486731
0.31917821
0.32126992
0.33047147
0.32868867
0.32815907
-0.2522782
-0.2419229
-0.2189482
-0.18805595
-0.20512721
-0.24780328
-0.27448588
-0.25862796
-0.25739703
-0.21346293
-0.2027639
-0.25202994
-0.25470394
-0.25431989
-0.25930876
-0.27883076
-0.2856267
-0.28812994
-0.2867759
-0.26534288
-0.24018202
-0.2126989
-0.19682409
-0.20620564
-0.24801169
-0.27752425
0.077656831
0.049565037
0.050056935
0.052057132
0.052907005
0.044967974
0.074978185
0.074913488
0.047014309
0.041002781
0.037091231
0.062127375
0.083478504
0.10196582
0.083210001
0.10153744
0.10527499
0.10165373
0.052933335
0.053764368
0.02029577
0.06056999
0.051122577
0.060844913
0.048333426
0.08483015
-0.034990335
-0.064146539
-0.045128536
-0.038106177
-0.030614306
-0.061948319
-0.0070404764
-0.01140822
-0.054484711
-0.062074747
-0.056598017
-0.066359338
-0.045262426
-0.05267662
-0.063754721
-0.040129929
-0.037051939
-0.0418657
-0.041390667
-0.077962121
-0.060286303
-0.051366094
-0.029029635
-0.034850962
-0.0696588
-0.05047855
0.0020017766
0.0048109679
-0.017057091
-0.020560529
-0.0097758525
-0.012116845
0.0069729438
0.0088811603
0.0010336371
-0.00010970166
0.008759817
0.015668404
0.0017645036
0.0052326501
0.010372578
0.020722745
0.022883881
0.015105927
0.0030711826
0.0089702332
0.0029128067
-0.021372185
-0.013284854
-0.013161852
-0.0093845462
0.0023212875
0.28722632
0.27744443
0.29400309
0.29309632
0.29450866
0.29805832
0.30035438
0.29521453
0.29916591
0.28775447
0.29636882
0.29173619
0.29382225
0.29463934
0.30557276
0.2970222
0.30025142
0.29984562
0.3066909
0.30299992
0.3005463
0.29585171
0.29139418
0.29510269
0.28971588
0.28952444
0.30374019
0.3223833
0.32110624
0.32167596
-0.25226956
-0.25323237
-0.19715345
-0.17553125
-0.19122121
-0.19986487
-0.22272059
-0.23909659
-0.27177818
-0.26912335
-0.25121256
-0.27110026
-0.264406
-0.22784824
-0.17604172
-0.20321027
-0.22011131
-0.21282713
-0.22638776
-0.26810531
-0.27094779
-0.26663006
-0.2586442
-0.25100927
-0.25123057
-0.25633407
-0.22691776
-0.22665557
-0.27817643
-0.28996008
0.073409476
0.041414353
0.02761446
0.051543743
0.059338672
0.073961595
0.057689485
0.091214139
0.086836901
0.11207763
0.085400188
0.11019343
0.079217276
0.050054192
0.031404279
0.081888075
0.094406804
0.083234295
0.042910876
0.098475556
0.099262735
0.091835164
0.088182493
0.093601899
0.078978839
0.08170816
0.056979959
0.047791068
0.054166146
0.086078099
-0.035749152
-0.073058959
-0.063206547
-0.051097207
-0.033834812
-0.055407191
-0.090872232
-0.1023344
-0.050219721
-0.043833559
-0.083021545
-0.039920801
-0.058108707
-0.079093649
-0.07665514
-0.049660128
-0.035585409
-0.059022841
-0.079340936
-0.069024715
-0.055387841
-0.055563413
-0.078699899
-0.097501895
-0.099523336
-0.072150532
-0.075404169
-0.086588652
-0.10975438
-0.051655807
0.013539227
0.014144553
0.0067912112
-0.012370009
-0.0074543467
-0.015029292
-0.010457325
0.019140867
0.0099008678
0.015628287
0.033546577
0.023564404
0.0076161168
0.015389193
0.0042183653
-0.020546204
-0.0077530113
-0.010604259
0.01023545
0.0093228831
0.012698305
0.016004142
-0.007146511
0.041346941
0.016387962
-0.0087442644
-0.018025097
-0.011651163
0.0058191016
0.013635942
0.29136386
0.28651439
0.28698345
0.29856885
0.29587252
0.29758121
0.29657154
0.289252
0.30902197
0.29361687
0.29487573
0.29504896
0.29461342
0.29077974
0.29667156
0.30285935
0.30470476
0.30971854
0.30782503
0.30659061
0.30051254
0.30226753
0.32740967
0.30899642
0.32003904
0.31057151
0.30048944
0.33688576
0.32795124
0.33095419
-0.25748706
-0.264546
-0.24322992
-0.19109677
-0.1887356
-0.20919279
-0.23297677
-0.26319791
-0.19552836
-0.23282788
-0.27283643
-0.27274379
-0.27507829
-0.24560305
-0.2301064
-0.21350826
-0.20003889
-0.21696977
-0.25536123
-0.27172122
-0.25522644
-0.24339986
-0.22004784
-0.26257623
-0.29248566
-0.27532946
-0.26637557
-0.22909314
-0.2948689
-0.29355486
0.093040475
0.061670989
0.035461407
0.027898338
0.073978812
0.064755604
0.083823377
0.091833409
0.040490429
0.060645896
0.066661577
0.11593455
0.065228904
0.066208923
0.046433152
0.069898184
0.07454209
0.047386189
0.077265721
0.06760637
0.06775846
0.047466864
0.031941475
0.071993834
0.0716596
0.073774944
0.052175743
0.03971466
0.066019815
0.1230915
-0.029467808
-0.043743846
-0.072256035
-0.05448008
-0.050725845
-0.057041104
-0.10302486
-0.025323327
-0.048173043
-0.052718128
-0.032894662
-0.036685067
-0.045577261
-0.090745597
-0.077054599
-0.056268569
-0.046210719
-0.052546502
-0.065905111
-0.020313266
-0.054163368
-0.067346895
-0.050677925
-0.094992138
-0.035168889
-0.033377793
-0.084818366
-0.048274676
-0.08127911
-0.020194961
0.022355443
0.013277305
0.006461369
0.00023576262
-0.0091620422
-0.0016041562
0.02040236
0.027888682
0.014326518
0.02550753
0.021774638
0.035892326
0.015817164
0.02435101
0.0011022431
-0.012422809
-0.0072594802
-0.0037169953
-0.0033525821
0.0019320262
0.00049829605
-0.0018858682
0.018456367
0.033838368
0.037336187
0.0028546908
0.0099788117
0.028860326
0.038252272
0.051546863
0.29067803
0.29435176
0.28749196
0.28819466
0.29844816
0.29478987
0.29584201
0.2840256
0.27451748
0.27538441
0.28640038
0.28509028
0.28842345
0.28932724
0.28911277
0.28790588
0.30435712
0.30573999
0.30592998
0.30154001
0.31238892
0.31142941
0.31307693
0.3034177
0.30737447
0.31394804
0.29085544
0.33551566
0.32631673
0.32917003
-0.24112536
-0.26096666
-0.26074359
-0.24687447
-0.20929358
-0.19939911
-0.2169883
-0.2428517
-0.25119728
-0.26380092
-0.27428807
-0.2775245
-0.25053445
-0.26620033
-0.25867241
-0.2585802
-0.23874768
-0.25773495
-0.27835003
-0.24788906
-0.22653776
-0.2002272
-0.2192221
-0.27962678
-0.28517696
-0.26759498
-0.26196597
-0.23502056
-0.28097911
-0.29682887
0.099846417
0.091441849
0.064980588
0.060764535
0.032148108
0.058347382
0.053547503
0.067164809
0.078579783
0.091639827
0.10699768
0.11428352
0.10066268
0.096518312
0.089457196
0.099459382
0.038796831
0.10349225
0.060386159
0.069986484
0.051885491
0.07548122
0.036606748
0.065027391
0.089226306
0.094354658
0.05352843
0.029760005
0.056526829
0.088325843
-0.085856243
-0.045879826
-0.045323783
-0.055489992
-0.060400961
-0.049420886
-0.058497092
-0.097215433
-0.074120352
-0.079715512
-0.040018545
-0.045403588
-0.095385503
-0.06179486
-0.072357576
-0.069592713
-0.083255501
-0.10293965
-0.033948926
-0.11097613
-0.044326274
-0.047244054
-0.066234068
-0.083535737
-0.030422425
-0.015902678
-0.11051709
-0.075520919
-0.09752077
-0.035851535
0.038744607
0.0082890818
-0.0033243781
-0.0054226714
0.0035071958
-0.01628965
-0.018533993
0.0088081085
0.019911914
0.024228739
0.021346615
0.025533037
0.037561796
0.009179184
-0.0046555062
-0.0014705822
0.011395264
0.030265558
0.025281001
0.021163227
-0.0019533563
-0.007374823
0.0061609718
0.016782212
0.017960044
0.00069688496
-0.0072309314
0.021139382
0.033627808
0.039563771
0.29664571
0.29548772
0.28429857
0.28436615
0.28473328
0.27911137
0.2780283
0.28080418
0.28323005
0.28337473
0.28854252
0.27680525
0.31125914
0.30067485
0.29263237
0.29703007
0.29863334
0.30393383
0.29873922
0.29912388
0.31012098
0.3046047
0.30845895
0.303133
0.3099539
0.30822744
0.29807838
0.31945488
0.32757726
0.32422226
-0.19578471
-0.20894644
-0.23728824
-0.25460761
-0.24041735
-0.24006873
-0.24779673
-0.25827944
-0.25958721
-0.25934304
-0.2514574
-0.26174109
-0.19128372
-0.19302842
-0.24879224
-0.25174042
-0.27175533
-0.27143029
-0.27619194
-0.25482448
-0.20627532
-0.20590743
-0.24286915
-0.26870393
-0.28187885
-0.26363227
-0.26453198
-0.22717861
-0.22936329
-0.27631738
0.072494049
0.038874559
0.067082821
0.072974135
0.10567381
0.095774849
0.10931124
0.11313267
0.11491718
0.11367594
0.095788577
0.071675442
0.041283193
0.058455755
0.10510784
0.096421103
0.1016336
0.11992581
0.085842262
0.06121212
0.047065218
0.069328881
0.063346971
0.078319235
0.1031592
0.10887217
0.083176099
0.060989511
0.029545213
0.071063377
-0.050066024
-0.062774749
-0.075313819
-0.046923098
-0.057720269
-0.077499159
-0.049739684
-0.0351075
-0.022190618
-0.021242437
-0.040158741
-0.068909669
-0.075000893
-0.065544019
-0.05469836
-0.062282451
-0.063307493
-0.040842095
-0.040257659
-0.080033417
-0.065593488
-0.051320949
-0.032067089
-0.05026495
-0.01861289
-0.015801621
-0.041718448
-0.060437622
-0.083967613
-0.073870322
0.0013658478
0.0092207494
0.025131196
0.0061106576
0.015772164
0.010272349
-0.01019149
-0.0041254252
-0.0039529978
0.00087161747
0.0071611108
0.017204013
0.024737446
0.0079457976
-0.0066301179
0.015657977
0.0076036028
0.028620349
0.019239314
0.027486576
0.003710064
-0.0053276867
-0.00051904084
0.00071905171
0.005270535
0.005653723
-0.011759993
-0.016560818
0.016916749
0.025094786
)
;

boundaryField
{
    minX
    {
        type            fixedFluxPressure;
        gradient        uniform 0;
        value           nonuniform List<scalar> 
50
(
0.26682218
-0.22394161
0.10263129
-0.018342029
-0.0007959697
0.26747117
-0.23437084
0.11260126
-0.032948174
-0.0059864875
0.26838569
-0.23043445
0.069649011
-0.045826519
0.00013717477
0.2765671
-0.24885226
0.10841348
-0.06292994
0.0039876005
0.28044138
-0.24856151
0.10505307
-0.016175878
-0.0024145482
0.2813501
-0.2522782
0.077656831
-0.034990335
0.0020017766
0.28722632
-0.25226956
0.073409476
-0.035749152
0.013539227
0.29136386
-0.25748706
0.093040475
-0.029467808
0.022355443
0.29067803
-0.24112536
0.099846417
-0.085856243
0.038744607
0.29664571
-0.19578471
0.072494049
-0.050066024
0.0013658478
)
;
    }
    maxX
    {
        type            fixedFluxPressure;
        gradient        uniform 0;
        value           nonuniform List<scalar> 
50
(
0.31000372
-0.25042836
0.10345503
-0.040240754
-0.0027927272
0.3103843
-0.27793949
0.091881934
-0.050626809
0.0049085111
0.30884559
-0.28026592
0.11418606
-0.036747073
0.025308231
0.31472355
-0.28048457
0.08571042
-0.037826924
0.017136536
0.31202167
-0.26602464
0.074979183
-0.064716694
0.0027523151
0.32815907
-0.27752425
0.08483015
-0.05047855
0.0023212875
0.32167596
-0.28996008
0.086078099
-0.051655807
0.013635942
0.33095419
-0.29355486
0.1230915
-0.020194961
0.051546863
0.32917003
-0.29682887
0.088325843
-0.035851535
0.039563771
0.32422226
-0.27631738
0.071063377
-0.073870322
0.025094786
)
;
    }
    minY
    {
        type            fixedValue;
        value           uniform 0;
    }
    minZ
    {
        type            fixedFluxPressure;
        gradient        uniform 0;
        value           nonuniform List<scalar> 
150
(
0.26682218
-0.22394161
0.10263129
-0.018342029
-0.0007959697
0.26346873
-0.22472789
0.085959467
-0.0321738
-0.0075559404
0.2724626
-0.20046518
0.056988448
-0.039172309
-0.011964474
0.27562509
-0.18464501
0.061430491
-0.04406395
-0.013421234
0.28323906
-0.19715888
0.04703366
-0.045499476
-0.0053138472
0.28114579
-0.22926548
0.07424247
-0.069309431
0.012184942
0.27965054
-0.24340024
0.069730947
-0.040034882
0.0036140825
0.28180577
-0.20076964
0.066394425
-0.042831846
-0.0064295608
0.28739629
-0.18753004
0.0558921
-0.040576429
-0.012358602
0.28101955
-0.18957117
0.041098226
-0.066495066
0.0059946979
0.28611842
-0.21399326
0.035978858
-0.063785676
0.018466923
0.27676925
-0.2515159
0.058444042
-0.066590158
0.021148034
0.28492357
-0.26080247
0.089695616
-0.027645182
0.016369688
0.28449781
-0.24856894
0.10426655
-0.033340225
0.0093383189
0.28420533
-0.24737335
0.092265885
-0.040561258
0.0022517934
0.28491483
-0.24986387
0.08121054
-0.038491724
-0.0039327737
0.28005443
-0.25013728
0.067112391
-0.059800586
-0.0084818621
0.30157558
-0.20442
0.039532024
-0.053076148
0.00308983
0.30661668
-0.18257238
0.047792014
-0.065761898
-0.010990502
0.31151505
-0.19252557
0.060775463
-0.017490728
-0.0042826651
0.31716053
-0.19715177
0.066283496
-0.03538817
-0.025336989
0.30785655
-0.25221221
0.084902477
-0.067208599
-0.016241926
0.31114257
-0.21255555
0.077303014
-0.070575727
0.018708597
0.31238105
-0.22531364
0.057553175
-0.079471766
0.01902338
0.3118438
-0.28372894
0.069236707
-0.054626681
0.01874285
0.31004862
-0.25774595
0.072306084
-0.08569961
0.024875238
0.31652379
-0.22355479
0.032807692
-0.085916133
0.010477199
0.31230968
-0.20551338
0.077370938
-0.064869767
-0.020007199
0.32094281
-0.22347779
0.059363085
-0.031657855
-0.012543259
0.31000372
-0.25042836
0.10345503
-0.040240754
-0.0027927272
)
;
    }
    maxZ
    {
        type            fixedFluxPressure;
        gradient        uniform 0;
        value           nonuniform List<scalar> 
150
(
0.29664571
-0.19578471
0.072494049
-0.050066024
0.0013658478
0.29548772
-0.20894644
0.038874559
-0.062774749
0.0092207494
0.28429857
-0.23728824
0.067082821
-0.075313819
0.025131196
0.28436615
-0.25460761
0.072974135
-0.046923098
0.0061106576
0.28473328
-0.24041735
0.10567381
-0.057720269
0.015772164
0.27911137
-0.24006873
0.095774849
-0.077499159
0.010272349
0.2780283
-0.24779673
0.10931124
-0.049739684
-0.01019149
0.28080418
-0.25827944
0.11313267
-0.0351075
-0.0041254252
0.28323005
-0.25958721
0.11491718
-0.022190618
-0.0039529978
0.28337473
-0.25934304
0.11367594
-0.021242437
0.00087161747
0.28854252
-0.2514574
0.095788577
-0.040158741
0.0071611108
0.27680525
-0.26174109
0.071675442
-0.068909669
0.017204013
0.31125914
-0.19128372
0.041283193
-0.075000893
0.024737446
0.30067485
-0.19302842
0.058455755
-0.065544019
0.0079457976
0.29263237
-0.24879224
0.10510784
-0.05469836
-0.0066301179
0.29703007
-0.25174042
0.096421103
-0.062282451
0.015657977
0.29863334
-0.27175533
0.1016336
-0.063307493
0.0076036028
0.30393383
-0.27143029
0.11992581
-0.040842095
0.028620349
0.29873922
-0.27619194
0.085842262
-0.040257659
0.019239314
0.29912388
-0.25482448
0.06121212
-0.080033417
0.027486576
0.31012098
-0.20627532
0.047065218
-0.065593488
0.003710064
0.3046047
-0.20590743
0.069328881
-0.051320949
-0.0053276867
0.30845895
-0.24286915
0.063346971
-0.032067089
-0.00051904084
0.303133
-0.26870393
0.078319235
-0.05026495
0.00071905171
0.3099539
-0.28187885
0.1031592
-0.01861289
0.005270535
0.30822744
-0.26363227
0.10887217
-0.015801621
0.005653723
0.29807838
-0.26453198
0.083176099
-0.041718448
-0.011759993
0.31945488
-0.22717861
0.060989511
-0.060437622
-0.016560818
0.32757726
-0.22936329
0.029545213
-0.083967613
0.016916749
0.32422226
-0.27631738
0.071063377
-0.073870322
0.025094786
)
;
    }
    bottomWater_to_rightSolid
    {
        type            fixedFluxPressure;
        gradient        uniform 0;
        value           nonuniform List<scalar> 
130
(
0.00308983
-0.010990502
-0.0042826651
-0.025336989
-0.016241926
0.018708597
0.01902338
0.01874285
0.024875238
0.010477199
-0.020007199
-0.012543259
-0.0027927272
0.012863432
0.014137203
0.0020155314
-0.026368225
-0.0044247693
0.017000628
0.02051675
0.035051592
0.022907121
0.021475599
-0.0015021112
-0.012269037
0.0049085111
0.017414093
0.026522816
0.032458024
-0.011980516
0.0083773543
0.022259426
0.021146521
0.041441995
0.028127798
0.036741551
0.019500885
0.0096180117
0.025308231
-0.0080158989
0.018854314
0.023694607
-0.0035844834
-0.0060740665
-0.0003987188
0.0094972321
0.028554907
0.013684942
0.017093061
0.0070939442
0.014012919
0.017136536
0.0052847318
0.011844389
0.0069304186
-0.0073088215
0.0087214105
0.0050398345
-0.011106513
0.0023990412
-0.0059975925
-0.01536675
-0.011858634
-0.010432337
0.0027523151
0.0052326501
0.010372578
0.020722745
0.022883881
0.015105927
0.0030711826
0.0089702332
0.0029128067
-0.021372185
-0.013284854
-0.013161852
-0.0093845462
0.0023212875
-0.010604259
0.01023545
0.0093228831
0.012698305
0.016004142
-0.007146511
0.041346941
0.016387962
-0.0087442644
-0.018025097
-0.011651163
0.0058191016
0.013635942
-0.0037169953
-0.0033525821
0.0019320262
0.00049829605
-0.0018858682
0.018456367
0.033838368
0.037336187
0.0028546908
0.0099788117
0.028860326
0.038252272
0.051546863
0.030265558
0.025281001
0.021163227
-0.0019533563
-0.007374823
0.0061609718
0.016782212
0.017960044
0.00069688496
-0.0072309314
0.021139382
0.033627808
0.039563771
0.028620349
0.019239314
0.027486576
0.003710064
-0.0053276867
-0.00051904084
0.00071905171
0.005270535
0.005653723
-0.011759993
-0.016560818
0.016916749
0.025094786
)
;
    }
    bottomWater_to_leftSolid
    {
        type            fixedFluxPressure;
        gradient        uniform 0;
        value           nonuniform List<scalar> 
130
(
-0.0007959697
-0.0075559404
-0.011964474
-0.013421234
-0.0053138472
0.012184942
0.0036140825
-0.0064295608
-0.012358602
0.0059946979
0.018466923
0.021148034
0.016369688
-0.0059864875
-0.014388072
0.0075395713
0.015629908
0.011130613
0.0093566383
0.011254236
-0.0014695635
0.01241353
0.015478377
0.013488147
0.020474755
0.028976411
0.00013717477
0.012190127
0.020153603
0.01861917
0.021314531
0.03040069
0.018837712
0.016891111
0.023596286
0.015478201
-0.00035506897
0.01188937
0.0082309257
0.0039876005
0.02871782
0.01194767
0.00035462824
0.0025482306
0.0088933393
0.0065307006
0.005344667
0.0077442712
-0.01710554
-0.0073337411
-0.006276944
-0.004822347
-0.0024145482
-0.010472981
-2.639602e-05
0.015347542
0.018750276
0.005769344
0.0055282841
-0.010967879
-0.017296283
-0.016754602
-0.013145801
-0.013744892
-0.014248415
0.0020017766
0.0048109679
-0.017057091
-0.020560529
-0.0097758525
-0.012116845
0.0069729438
0.0088811603
0.0010336371
-0.00010970166
0.008759817
0.015668404
0.0017645036
0.013539227
0.014144553
0.0067912112
-0.012370009
-0.0074543467
-0.015029292
-0.010457325
0.019140867
0.0099008678
0.015628287
0.033546577
0.023564404
0.0076161168
0.022355443
0.013277305
0.006461369
0.00023576262
-0.0091620422
-0.0016041562
0.02040236
0.027888682
0.014326518
0.02550753
0.021774638
0.035892326
0.015817164
0.038744607
0.0082890818
-0.0033243781
-0.0054226714
0.0035071958
-0.01628965
-0.018533993
0.0088081085
0.019911914
0.024228739
0.021346615
0.025533037
0.037561796
0.0013658478
0.0092207494
0.025131196
0.0061106576
0.015772164
0.010272349
-0.01019149
-0.0041254252
-0.0039529978
0.00087161747
0.0071611108
0.017204013
0.024737446
)
;
    }
    bottomWater_to_heater
    {
        type            fixedFluxPressure;
        gradient        uniform 0;
        value           nonuniform List<scalar> 
92
(
0.0093383189
0.0022517934
-0.0039327737
-0.0084818621
0.018240093
0.00058536836
0.0049297276
0.010335665
-0.0032623861
0.021661514
0.03346769
0.0019015479
0.2844832
0.28487179
0.2826956
0.28103776
-0.25843776
-0.24895467
-0.23807872
-0.2450743
0.11410272
0.096094749
0.091104561
0.096610733
-0.020133698
-0.058251454
-0.06503343
-0.041540626
-0.012032132
-0.012032132
-0.0093383032
-0.0093383032
0.0084732574
0.0084732574
-0.0057064024
-0.0057064024
0.29615449
0.29229908
-0.240338
-0.26619637
0.074194373
0.10003324
-0.04003025
-0.036056843
-0.014248415
0.0052847318
0.29333339
0.29463934
0.30557276
0.2970222
0.28203539
0.30025142
-0.25470394
-0.22784824
-0.17604172
-0.20321027
-0.25431989
-0.22011131
0.083478504
0.050054192
0.031404279
0.081888075
0.10196582
0.094406804
-0.045262426
-0.079093649
-0.07665514
-0.049660128
-0.05267662
-0.035585409
0.0017645036
0.015389193
0.0042183653
-0.020546204
0.0052326501
-0.0077530113
0.015389193
0.0042183653
-0.020546204
-0.0077530113
0.02435101
0.0011022431
-0.012422809
-0.0072594802
0.009179184
-0.0046555062
-0.0014705822
0.011395264
0.0079457976
-0.0066301179
0.015657977
0.0076036028
)
;
    }
}


// ************************************************************************* //
