/*--------------------------------*- C++ -*----------------------------------*\
| =========                 |                                                 |
| \\      /  F ield         | OpenFOAM: The Open Source CFD Toolbox           |
|  \\    /   O peration     | Version:  v2012                                 |
|   \\  /    A nd           | Website:  www.openfoam.com                      |
|    \\/     M anipulation  |                                                 |
\*---------------------------------------------------------------------------*/
FoamFile
{
    version     2.0;
    format      ascii;
    class       surfaceScalarField;
    location    "770/bottomWater";
    object      phi;
}
// * * * * * * * * * * * * * * * * * * * * * * * * * * * * * * * * * * * * * //

dimensions      [1 0 -1 0 0 0 0];
oriented        oriented;


internalField   nonuniform List<scalar> 
3858
(
-0.00011968403
0.00012514388
1.0522679e-06
-0.0001955804
0.00012447238
-4.1147905e-05
-7.8266734e-05
-0.00013664356
2.4698855e-05
4.7149905e-05
-0.0001762051
5.5383813e-05
0.00015145479
-0.00015554015
5.4156084e-05
5.1458883e-05
4.2625405e-05
6.0680831e-05
-0.00012058466
0.00010874454
6.6979456e-05
-8.2187966e-05
-0.0001363831
0.0001012556
9.519317e-05
-0.0002415664
6.6232552e-05
0.00016224129
-0.00012792183
6.43276e-05
0.00022066287
-0.00010400528
4.7959251e-05
8.2909846e-05
0.0001414615
6.9908864e-07
-7.4879214e-05
0.00015817995
2.0767539e-06
-0.00014764491
0.00012122881
-4.584135e-05
-0.00021553314
0.00014908372
-7.8345094e-05
-0.00030880515
0.00015758122
-6.1494943e-05
-0.00038141316
8.4862407e-05
-8.3184711e-06
-0.00025654946
-0.00024478759
0.00011922092
-0.00016391155
-0.00026583801
0.00017124534
8.1945489e-06
-0.00033294607
0.00015761642
0.00014188353
-0.00030662277
0.00016840822
8.6240755e-05
1.6205645e-05
3.6699996e-05
0.00013719875
-7.0090068e-05
1.5679854e-05
0.00013368511
-9.6859666e-05
9.6779771e-05
-9.0988817e-05
0.00012536014
9.5824484e-05
-0.00023373461
5.9562029e-05
8.0114912e-05
-0.00016321341
-0.00018456359
0.00010971972
-3.1385457e-05
-0.00018829882
5.2867648e-05
0.00015698449
-0.0003518114
0.00015813325
3.5828809e-05
0.00011798137
-0.00021965153
0.00029800138
4.6794031e-05
-0.00015974596
6.6269692e-05
-1.7028848e-06
7.4611799e-05
-0.00040298793
3.1986614e-05
0.00020187463
-0.00042846205
0.00012499413
0.00039835064
-0.00042173545
6.9719285e-05
0.00021441529
9.4775728e-05
0.00013178503
-0.00017977805
0.00036682473
0.00013611313
-0.00011353232
-0.00036077791
0.00015814907
7.5478439e-05
-0.00054033021
0.00010975302
0.00019199976
-0.00037363063
0.00012918746
0.00033361337
-0.0003684158
0.0001227969
0.00035386644
8.4718617e-05
3.6489808e-05
2.4303407e-05
0.00046737971
2.036328e-05
-0.00020977247
0.00043339671
-7.8092014e-05
-0.00028210513
0.00027493625
-5.3519862e-05
-0.00039047849
0.0002878125
-2.1857909e-05
-0.00031753974
-1.2308798e-05
2.4232468e-05
-0.0001507453
-0.00057420388
0.00016262186
-7.4407314e-05
-0.00056144427
0.00021926829
6.3357073e-05
-0.00066340785
0.0001926974
0.0001914881
-0.00062061332
0.00018585952
0.00012051427
0.00025636388
-0.00016918441
0.0002834615
-0.00018174527
-5.1292037e-05
0.00037532308
-0.00032327067
0.00013454941
-0.00019611503
0.00057148072
0.00012531752
-0.00039697587
9.1382718e-05
0.00016904014
-0.00017042606
-0.0005177423
0.0001066289
-1.7861969e-05
-0.00042841428
8.755137e-05
0.00022731752
-0.00075454049
0.0001575496
3.618347e-05
0.00022696286
0.00018353963
5.3221018e-05
6.1240733e-05
0.0003580752
-0.00019940077
9.1134898e-05
0.0002309618
-0.00033185181
5.5977277e-05
5.4746228e-05
-0.00031279981
6.0553339e-05
-5.6664526e-05
-0.00025088894
-5.9435762e-05
-9.3811886e-07
4.5823296e-06
3.4466978e-05
8.3827563e-05
0.00020948344
7.2575584e-05
0.00010622024
-0.00040835416
2.5183552e-05
3.7787066e-05
-0.00051153704
3.9639962e-05
-0.000151643
-0.00013206801
-5.2132582e-05
-0.00038932652
-0.00010527198
-2.5460326e-05
-0.00023328386
-8.1172241e-06
-6.3206831e-05
-0.00012862188
0.00035312435
9.5933767e-06
-7.2562809e-05
0.00034444086
3.2896799e-05
-2.7425892e-05
0.00016264225
6.7157109e-05
0.00015878179
-1.3514728e-05
0.00011511957
0.00038795006
-0.00016980349
-7.167356e-05
8.1292102e-05
-0.00011797938
-0.00014956653
-9.6164583e-05
-0.00019103668
-0.0001929509
-9.001288e-05
-0.00055184749
-0.00011771207
1.4243955e-05
-0.00057771904
-0.00014715113
0.00028873713
5.6754918e-05
-7.488423e-05
0.00020056984
-5.5269946e-05
-3.8308056e-05
5.5996259e-05
-0.00011462663
-6.4070479e-05
0.00016065744
0.00045125431
1.5565215e-05
0.00020633929
-9.5678806e-06
5.5268731e-05
-3.0838866e-05
-0.00013739768
-0.00014316647
-0.00010750125
-0.00033759607
-1.4155829e-05
-0.00021624229
-0.00057232084
-7.3478602e-05
-0.00027213894
9.2080127e-05
0.00017309989
-0.0001627777
4.2898833e-05
0.00011863511
-0.00022268478
7.7748788e-05
5.6367841e-06
-0.00025904274
4.0189262e-05
-4.1413327e-05
-0.00026649965
7.499431e-07
-2.4689175e-05
-0.00018905099
-7.856211e-05
-0.00011096646
0.0001082107
-1.7351104e-05
-3.4443147e-07
7.9371802e-05
1.9489576e-05
-3.686788e-06
-0.00040991017
4.8983189e-06
-2.6213818e-05
-0.00050571686
1.6706809e-05
-0.00010436359
1.0008193e-05
-6.3926467e-05
-0.00030334121
0.00016415133
-7.0445718e-05
-0.00035696267
0.00016075799
-0.00011525377
-0.00014207835
0.00013322282
5.0172197e-06
2.7142089e-05
8.6904146e-05
8.8316287e-05
0.00016559796
-1.2168565e-05
3.6354968e-05
0.0002991123
-0.00025109032
0.00010406128
0.00029855475
-0.00013095397
-3.8291942e-05
0.00016861898
2.9701872e-05
-1.7745463e-05
2.6740279e-05
-0.00012538222
7.6224248e-05
-4.6170574e-06
-0.00050891237
-1.1577792e-05
6.2450991e-05
-0.00059695856
-4.7828531e-05
0.00024816443
-7.2418311e-05
-5.6540229e-05
5.4186087e-06
0.00016489264
2.2583213e-05
-9.5474328e-05
2.9553373e-05
-4.328709e-05
0.0002766566
0.00011289101
-3.376764e-05
0.00013761962
0.00021390319
-8.4434112e-05
-2.6451437e-05
3.8757236e-05
-1.2083862e-05
6.7801623e-05
-0.00033914864
-9.2700488e-05
9.6362761e-05
-0.00054429857
-5.6583408e-05
-0.00019768886
2.1912679e-05
-3.662344e-05
-0.00012615425
-8.0758791e-05
-0.00017854942
-0.00014896147
-0.00019084006
-0.00021474913
-0.00020071199
-0.00019356992
-0.00021023021
2.8543812e-05
-0.00011390305
0.0001805374
-7.2621815e-05
-8.7548056e-05
-0.00014182474
-0.00042714161
-0.00016612334
-0.00038087528
-3.6258163e-05
-0.00023631894
1.959498e-05
-5.1507672e-05
-2.4053282e-05
0.00011245756
-3.0742406e-05
0.00019746334
1.8983903e-06
0.00020175012
-1.6455333e-05
9.6583683e-05
-0.00014592386
9.9362188e-05
-0.00013373246
0.0002546695
-0.00012560542
0.00029509287
-0.00016580559
-1.9430083e-05
-0.00019438941
-0.00049474695
-0.00012164171
-0.00045586359
-0.00011130169
-0.00023373837
-5.7232595e-05
-0.0001073267
-9.6858317e-05
0.00012407021
-0.00011850592
0.00041189135
-7.3917963e-05
0.00057655567
-0.00012590709
0.00042546607
-0.00018805904
6.9362564e-05
-0.00018819506
-0.00012832629
-5.138272e-05
0.00013903333
-8.0220849e-05
-0.00012097528
0.00016123049
-0.00012581699
-0.00014091616
0.00016631576
-0.00011353218
6.8743192e-05
-0.00020848038
5.7297906e-05
0.0001839886
-0.00014824772
8.9399484e-05
0.0001415834
5.4476591e-05
5.1613101e-05
9.7960043e-05
0.00013696968
-2.3478696e-05
6.5248379e-05
0.00014351166
-5.534422e-06
4.3233095e-05
0.00011013919
-1.7290883e-05
1.7001527e-06
0.00015352167
-4.3598298e-05
-5.6946505e-05
0.00015362038
-4.4653677e-05
-0.00017447123
0.00017331518
-5.228478e-05
-0.00024358577
0.00010861211
-3.3751154e-05
-8.2105538e-05
-0.00025182609
4.5008621e-05
0.00011437257
-0.00022580563
-5.0022891e-05
0.00011723934
-1.6798356e-05
-4.7318262e-05
-4.2968535e-05
0.00012471513
2.6912735e-05
-0.00017004389
9.2002344e-05
0.00015464239
-0.00018564541
7.7831925e-05
0.00010992136
-0.00018288647
7.5536197e-05
7.9947337e-05
-0.00021445378
8.5276766e-05
0.00011509071
-1.6554013e-05
-0.00016126191
-3.3017614e-06
0.00022661749
-0.00030439841
7.0786635e-05
0.00016502087
2.0127608e-05
0.00013399512
7.0319288e-06
0.00013036717
0.00011869064
-0.0001237058
0.00013065975
7.5108424e-05
-0.00013966598
3.6325746e-05
8.6668789e-05
8.0174251e-05
-0.0002300529
5.7216726e-05
7.987508e-05
5.2732215e-05
0.00010482346
0.00014037551
5.4284168e-05
-0.00014776729
0.00034705937
-1.346472e-05
-0.00021953234
0.00027492377
-4.3631111e-05
4.8060058e-06
5.4619396e-05
-8.0655362e-05
0.0003391645
-0.00056205391
0.00014420917
0.00051563061
-0.00041111622
0.00015612168
0.00043259688
0.00019589185
7.3403487e-05
0.00011736473
0.00060067024
-1.2355294e-05
-1.5505841e-05
0.00040542125
2.9110032e-05
0.00012416043
-2.8654185e-05
0.00010888011
0.00016819708
0.00019816394
4.0508525e-05
-6.9406168e-05
0.00049648918
1.7531335e-05
-0.00032360858
0.00054339665
-7.9389265e-05
-0.00025353235
4.2226108e-05
1.6673047e-05
-5.1462745e-06
-0.00064385148
6.5547317e-05
0.00026893794
-0.00051623117
-3.7178524e-05
0.0004114803
-0.00011957947
-6.1619142e-05
7.4829635e-07
0.00061478309
-5.5103472e-05
-0.00025220032
0.00028098578
0.00022658704
-0.00012467925
-1.7056923e-05
0.00018663607
-0.00010985249
0.00010824604
0.00014516081
-6.6500823e-05
3.4503383e-05
0.00019328122
0.00015931488
-0.00046049063
-9.5771402e-05
0.00050504415
-0.00069358868
-7.8310494e-06
0.00054705206
1.4601749e-05
9.8067347e-05
2.3470832e-05
0.00071570868
6.3557232e-05
-0.00042207324
0.00067990222
6.5341746e-05
-0.00028773651
-5.3414553e-05
6.2032457e-05
0.00010325958
-0.00060522456
7.1726941e-05
0.0002391569
-6.8769583e-05
0.00014315408
0.00044794698
0.00015854829
0.00024521765
8.2940723e-05
8.0141736e-05
0.00039995334
0.00012319212
8.8130856e-05
0.00056420494
-3.1923456e-05
-2.1731468e-05
0.00023578717
-9.8452356e-05
-7.4630439e-05
-4.0999745e-05
-0.00011968258
-7.4082497e-05
9.4510114e-05
9.7698448e-05
-2.8494909e-06
0.00017301842
0.00049986965
9.4867841e-05
0.00013746809
0.00023747705
0.00022867805
9.4921606e-06
-0.00013065678
0.00026961846
-3.7478026e-05
5.8565222e-05
0.0001344363
-7.9111686e-06
0.00041271047
2.8751503e-05
0.0001556061
0.0004467003
-0.00013002775
0.00032383976
-2.5198599e-05
-9.1215577e-05
2.8024682e-05
-0.00013170096
-0.00018343864
-8.2374725e-05
-0.00032789121
-1.0783422e-05
1.145603e-05
-0.00018685955
8.8568921e-05
-1.5647298e-05
0.00056529785
4.9150287e-06
-0.00010896116
0.00016899539
5.5737741e-05
-0.00019887649
-0.00010580941
-1.4283072e-05
-1.8003086e-05
-0.00022294264
3.2603199e-05
0.0003827682
-0.00045152983
-6.1889205e-05
0.00020780585
-0.00011457227
-0.00024584025
-0.00017984803
-0.00012303667
-0.0002212062
-6.8115096e-05
-5.1834965e-05
-0.00010936672
1.3798067e-05
0.00068198132
-3.2620611e-05
0.00010757663
0.00059214938
4.9242993e-05
0.00010244734
-6.9230052e-05
-0.00012222168
-0.00031264167
-0.00021226021
7.9688381e-06
-0.00012285075
-0.00036636305
3.4323945e-05
0.00029658921
0.00012058714
0.00030659652
-0.00022395844
4.320149e-05
0.00038368698
-1.2969755e-05
0.00013682021
0.00022017302
0.00020220439
-3.0424622e-05
-1.8023379e-05
0.00017521154
-3.4717561e-05
-0.00017482339
7.0549375e-05
-0.00011199407
-0.00013509556
9.8347325e-05
-5.7727834e-05
0.00011340113
0.00016961824
0.00010124426
0.00024025171
-7.4359143e-05
0.0001898839
-4.6044494e-05
4.2321458e-05
0.00013002473
-0.00021327961
0.00014394461
1.7929231e-05
-1.0205291e-05
0.00017903634
-3.9845931e-05
0.00023818183
0.00021507003
-0.00013201064
0.00012918594
0.00029067463
-0.00020186012
8.7032859e-05
7.090874e-05
-7.2140312e-05
0.00017569059
-0.00033948718
-4.0706774e-05
0.00012050009
-6.0077487e-05
3.2469747e-05
0.00029643313
0.00034238383
8.6890654e-06
0.00025094273
0.00017425753
2.2482819e-05
-4.8320561e-05
0.00023048863
3.9189505e-05
-0.00010485056
-0.00019922109
2.1230667e-05
3.2584367e-05
-0.00055350984
-8.3283472e-05
4.7193734e-05
8.1916648e-06
-0.00019391355
-0.00017285547
0.00016086095
-4.126523e-05
-0.00024882279
0.00014857578
-0.00016773054
5.8113723e-05
0.00037500858
-3.3731428e-05
0.00030637903
0.00026051401
-1.0640625e-06
6.6185543e-05
0.00023640309
-7.752352e-05
-0.00012221515
-5.0879545e-05
-6.5680461e-05
-0.00012280722
-0.00041083897
-1.1515408e-05
0.00011790184
7.7792836e-05
-0.00019057739
-0.00015953531
-0.00019706796
-0.0001850286
-7.2952004e-05
-0.00011275162
-2.6037429e-05
-7.2415024e-05
-4.0191063e-05
-0.00012552721
4.2868882e-05
-9.8615686e-05
0.00013015561
9.70967e-06
-4.3581222e-05
-4.2447083e-05
-0.00015115229
-1.6230841e-05
-0.00013119398
8.7728111e-05
-8.753328e-05
0.0001549706
7.4407507e-05
2.9075952e-05
0.00028763881
4.6700927e-05
0.00029629991
6.4146043e-05
2.0936799e-05
-8.0579375e-05
-3.4722005e-05
-0.00015034252
0.00014694027
2.6989127e-05
0.00019028552
5.3068692e-06
0.00031449976
-5.9531196e-05
7.8414623e-05
-0.00015752537
-0.00047279765
-0.00012393929
-0.00049526672
-8.0640971e-05
-0.00033605433
-5.5584046e-05
-0.00021310022
-7.1236667e-05
9.0847943e-05
-4.7445515e-05
0.00029233537
-1.4891395e-05
0.00047722523
-7.4393865e-05
0.00036538747
-0.00012710081
-5.1617921e-05
-0.00018202864
-6.2042375e-05
-0.00016767984
0.00017207794
-7.8274423e-05
-5.4860984e-05
-0.00022085822
-1.4582626e-05
6.4702108e-05
-0.00018540329
-4.7503823e-05
0.00011795988
2.8955571e-05
-2.3281095e-05
8.1317464e-05
0.00012033294
8.3565712e-06
-1.8095627e-05
0.00014046706
1.274615e-05
-0.00014368331
0.0001572969
-5.2405474e-05
-0.00015577846
8.7926912e-05
-7.5803699e-05
0.00011001485
-0.00024821548
-3.4275931e-05
0.00019095329
9.2788569e-06
-0.00012989654
0.00012632196
0.00015849253
-0.00013558338
1.3907423e-05
0.00016253407
-0.00010007423
-8.2562092e-05
0.00012677107
-6.4265244e-05
-0.00012955235
6.325367e-05
3.0569541e-05
7.4093737e-05
-0.0003001514
4.5345077e-05
0.00017420633
-0.00017773753
3.1089504e-05
1.8946841e-05
0.00013639282
4.8770734e-05
-5.9920673e-05
0.00012960742
0.0001039098
-6.8130506e-05
0.00014046543
-1.950475e-05
-2.9171318e-05
0.00010202663
-6.0237287e-05
-5.957307e-05
0.00014878698
-3.5647281e-07
-9.0621134e-05
0.00012361726
-9.2928092e-05
-4.1464686e-05
5.1174752e-05
-2.8408668e-05
-8.2697518e-05
0.00017768433
-1.8811649e-06
-0.00012495041
0.00013867929
2.106144e-05
-0.00014904385
0.00016636921
-6.8869024e-05
-0.00014063194
0.00013050667
-5.3377766e-05
4.3728668e-05
-0.00011035201
-1.9991684e-05
2.8540309e-05
0.00014787409
-2.9631023e-05
0.00015159382
-7.1695673e-05
-3.7966148e-05
0.00013588409
6.0695277e-05
0.00014787511
-0.00057707079
0.0001267402
0.00033417213
-0.00045165999
-6.9567864e-07
0.00043131498
0.0001483189
-7.2297008e-05
0.00018750384
0.00053168929
-1.142353e-05
-0.00020139544
0.00062816065
-2.5390831e-05
-0.00039441931
0.00041935974
-8.1394284e-05
-0.00023562349
3.3237501e-05
-7.4996391e-05
0.00023873828
-0.00065352733
3.9830172e-05
0.00045772462
-8.9475107e-05
-7.972386e-05
0.0003557746
0.00044800928
-0.0001700354
5.5473119e-05
0.00058222569
-0.00019877942
-0.00031012708
0.0006243188
-0.00011527448
-0.00028698883
4.2084411e-05
6.3578335e-05
-1.8708104e-05
-0.00066347252
5.7861876e-05
0.00020870186
-0.0004962127
2.9446084e-05
0.00011821514
0.00021835551
-4.6579425e-05
-0.00015228544
0.00054457297
8.2122084e-05
-9.7838663e-05
0.00027218905
4.6567344e-07
-1.3674054e-05
0.0002459465
-8.2923676e-05
6.8338887e-06
0.00028748718
3.4073077e-05
0.00013274257
-2.2344591e-05
-7.5718249e-05
0.00032699544
-0.00012795789
-2.2951284e-05
0.00017139318
0.0004364335
-5.0795715e-06
-0.00016403959
0.00063090321
-9.3233935e-05
-0.0003832687
0.00061663788
-0.00016569782
-0.00020549687
0.00013519288
-0.00012042559
0.00016928869
-0.00042380477
1.0394147e-05
0.00023063511
0.00027301587
-4.3334115e-05
0.00057074206
-2.9964841e-05
0.00035682712
-0.000105745
-3.505629e-05
8.6832296e-05
-0.00013451184
-8.4433263e-05
-0.00015085199
-0.00010806043
-0.00012764674
3.3092599e-05
2.1526783e-05
-0.00013178291
6.5786154e-05
0.00044140619
-1.649296e-05
3.5723185e-05
0.00059711921
5.8254908e-05
0.00018010416
0.0002976696
7.2176981e-05
0.00028894942
-4.3988077e-05
0.00019705834
-9.9262034e-05
-0.00015121426
0.00015551682
-5.2301492e-05
-0.00011464804
0.00011264867
0.00011520463
0.00029058294
1.8671704e-05
2.9913298e-05
0.00053319275
4.2965007e-06
0.00014286488
0.00053383894
-0.00011368729
0.00024760022
-1.8403539e-05
-0.00022768602
-0.00013266125
-8.8503003e-05
-0.00020549144
-0.00036279819
-7.0479759e-05
-0.00010702705
-0.00027234309
0.00012596744
6.8480159e-06
-0.00019829672
0.00039194197
0.00013432239
-0.00022138374
0.00013475103
0.00014624197
-0.00010307726
7.7015401e-05
8.3227822e-05
0.00016061156
-7.1047827e-05
3.295697e-05
0.000133039
-0.00017464899
-6.5963311e-05
1.6650856e-05
-0.00014541687
-8.7359093e-05
1.5882935e-05
0.00034887798
-2.1043293e-05
-1.2806503e-06
0.0006432428
-2.7796632e-05
0.00013924824
0.00054526296
-1.9910983e-05
0.00010419059
2.2014861e-05
2.6013978e-05
-0.0002338373
-0.00014350727
6.5699233e-05
-0.00015599985
8.6301605e-05
0.00014320077
0.00049541629
3.9913064e-05
0.00014966194
-0.00015626077
-5.5944677e-05
3.2498697e-05
0.00011207389
7.3977294e-06
-0.00014346648
0.00011661994
-7.9139814e-05
-0.00012530131
9.4138015e-05
-0.00012549397
-2.1391177e-05
0.00024317496
-1.7672978e-05
0.00011039438
0.00037497378
3.2632023e-05
0.00029435223
0.00016421804
5.0737934e-05
0.00020766654
0.00013817094
9.4410538e-05
-6.5901937e-05
0.00018573712
6.664179e-05
-0.00027283942
9.2542756e-05
1.7675881e-05
-6.7959965e-05
-1.3442338e-05
5.9299865e-05
5.9109598e-05
0.00021277503
6.1337511e-05
0.00029473153
9.1363331e-05
4.9935627e-06
0.00036816424
-2.9570219e-05
-0.00013440633
8.2817221e-05
0.00025955883
-0.00010342156
-0.00022657807
0.00033193363
-6.054832e-05
-9.7015643e-05
-3.6742075e-05
4.1836184e-05
0.00010735857
0.00010302397
0.00010702662
-0.0001255752
0.00036344984
4.3424486e-05
-0.00014693627
0.00015305891
-3.3451771e-05
8.7651757e-05
-0.00034621041
-4.2708926e-05
-6.0799115e-05
-5.323035e-05
-0.00016688134
-0.00033423622
0.00021844673
-0.00013169176
-0.00020369115
0.00018146338
-0.00013086103
2.9873505e-05
0.0003862
-1.025331e-05
0.00025866324
0.00028492631
3.048284e-05
-7.009002e-05
0.00029374392
-2.0499327e-05
-0.00034886427
6.5269549e-05
4.3169752e-06
-0.0002491798
-0.00010401055
7.9112295e-05
0.00027085611
5.3173214e-05
-0.00022577628
-9.0019795e-05
-0.00017006666
-0.00012866432
-0.00015393697
-1.226137e-05
-0.00013200415
-2.0982433e-07
-4.3735159e-05
2.937875e-05
0.00015663602
7.5986897e-05
0.00021576565
0.00011479805
0.00016802102
0.00014346845
0.00014981511
0.00018771217
9.3005395e-05
0.00023708055
1.5606907e-06
0.00023297295
5.6801249e-05
0.00018661042
-7.1180101e-06
0.00020198352
-0.00013668194
0.00016413977
-5.2495444e-05
9.4792981e-05
4.8894252e-05
8.0201444e-05
-0.00010959735
0.00014873867
-0.00014087058
0.00013960409
0.00010996702
5.3081051e-05
0.00010552971
-2.9149331e-08
-0.00033996834
-2.4651656e-05
-0.00045534576
-1.8493921e-05
-0.00031411932
2.1636226e-05
-0.00023358598
2.9693355e-05
3.8706231e-05
6.646226e-05
0.00020884768
9.9893452e-05
0.00032992969
9.8268039e-05
0.00016890189
9.9196549e-05
-0.00014371887
2.6581574e-05
6.5094868e-05
-0.00013556666
0.00013486876
-7.3132459e-05
-0.00019946306
8.8285627e-05
-3.5309768e-05
-0.0003129419
0.00016254674
-9.0046832e-05
-0.00031312307
0.00013674276
-0.00015436781
-0.00031923631
0.00016586826
-0.00014661162
-0.00037332145
0.00016279826
-9.113149e-05
-0.00031639075
-9.206587e-05
-1.4119314e-05
-0.00012400852
-0.00031716064
4.9143545e-05
0.00011084655
-0.00030119176
3.1171927e-05
0.000244273
-0.00018137733
-8.0032665e-05
0.0002977454
-6.2989044e-05
-0.00012183981
0.00016752774
0.00013593289
-0.00010041804
5.6680624e-05
0.00013675935
-8.7798071e-05
-5.3053673e-05
0.00014284278
-0.000127155
0.00012194995
-0.00022892651
0.00013599654
-0.00032735978
0.00015089803
-0.00034087931
9.5603232e-05
2.5785859e-05
-0.00010321839
-0.0003595413
9.9604285e-05
6.5121054e-05
-0.00031490665
8.1068867e-05
1.839297e-05
4.7061315e-05
-1.1412615e-07
0.00010638319
-0.00018120403
-3.699068e-06
0.00016531394
-9.2857098e-05
1.7143634e-06
7.6836285e-05
0.00010384658
-2.1695343e-05
-7.257673e-06
0.00013185244
-3.1873665e-05
-0.00010083484
0.00013318616
-0.00011309842
-8.190991e-05
4.5415472e-05
-0.0001203088
0.00017711003
-0.00026527523
-2.0815565e-05
0.00013199843
0.00010785896
-9.4422461e-05
0.00016373336
-0.00010753101
-8.4381932e-05
0.00025606921
2.3876759e-05
-4.3300424e-05
0.00010551397
6.8430359e-05
-9.4246487e-05
0.00024420462
-3.1407495e-05
-0.00017772002
0.00030343803
-0.00015551874
-0.0002424414
0.00038218333
-0.00016301722
-0.00025283021
0.00017652463
-2.8728407e-05
-0.0002424754
-0.00032674215
0.00014292717
-0.00016235897
-0.00063757024
0.00016529677
5.6231458e-05
-0.00057481748
9.4865451e-05
0.00024992415
-0.00043697515
-1.7818752e-05
0.00034360085
-0.00025952229
-6.7178862e-05
0.00029614063
3.5940337e-05
-5.1326644e-05
6.2835199e-05
0.00031865642
-6.386613e-05
-0.00021335055
0.00048260687
-0.00023811793
0.00020457921
-0.00021491521
0.00014223992
-0.00029618295
0.00018558636
-0.00019859102
-1.1298083e-05
9.1431486e-05
-2.0234144e-06
-0.00075362946
0.00019798623
6.5923473e-05
-0.00065100022
0.00018522301
0.00011731808
-4.8254257e-05
7.7994043e-05
0.00031827623
-0.00044157633
-1.6304109e-05
0.00051974268
-0.00030359456
-1.3680284e-05
0.00025914027
0.00046382131
-0.0001044519
-0.00013015665
0.00067564325
-0.00024772785
-0.00031853576
0.00040540978
-0.00024954234
-0.00016735432
-2.6551357e-05
-0.00019964019
0.00025784983
-0.00066667846
-1.3406767e-05
0.00037359086
1.1411081e-05
-6.2627266e-05
0.00059094632
-8.3586933e-05
0.00011436761
0.00013955469
-3.290938e-05
0.00016524747
1.4548548e-05
-4.4347694e-05
0.00012043949
0.00012493912
3.642675e-05
7.2149856e-05
0.00020311842
1.6826336e-05
0.00022514233
0.00023644325
-2.3745368e-05
0.00038479871
6.0477053e-05
1.4646097e-05
0.00024926487
-0.00012761106
8.5797097e-06
-1.0839411e-05
-0.00011835278
-6.2054864e-05
-0.00029765588
-0.0001035646
-2.8919622e-05
-0.00028871413
-0.00036991828
3.6650031e-05
-0.00027267167
-0.00038870647
0.00013181341
-0.00021921797
-0.00020889371
0.00019567684
-5.8698665e-05
8.1919961e-06
3.6257833e-05
3.884462e-05
0.00015737758
1.8735258e-05
1.9197153e-05
2.3654415e-06
5.1582705e-05
0.00024823765
-5.3437809e-05
0.00042983607
-9.7982284e-05
3.9408188e-05
3.2244831e-05
-8.5353777e-05
-0.00012444246
-0.00027641017
-8.5840815e-05
-0.00017327659
5.36482e-05
-0.00025086603
-9.4489626e-05
3.6562432e-05
-0.00043041454
-6.0039347e-05
8.0120666e-06
-0.00028747599
-7.4927321e-05
0.0001354357
0.00035127087
-3.5916515e-05
0.00010259816
0.00063058043
5.010371e-05
0.00018627403
0.00028073106
2.1091852e-05
0.00019408009
-9.7463756e-05
8.9120317e-05
-0.00021860629
-0.00026971308
8.1420238e-05
-0.00014170192
-6.6454064e-05
0.00014416155
0.00049971252
-1.0555048e-05
0.00023756329
-2.047747e-05
-0.0001334758
-6.571571e-05
0.00045398543
-0.00012876014
-0.00013982517
0.0001632971
-4.3388337e-05
4.160088e-05
-1.8067083e-05
-8.5734512e-05
0.00024830633
3.6044201e-05
-2.3979392e-05
0.00017590223
0.00017810765
-1.2594485e-05
0.00016545789
3.022955e-05
-9.6658364e-05
0.00016526379
3.6531992e-05
-6.0280158e-05
5.0672248e-05
7.7716035e-05
-4.7346804e-08
-7.3257061e-07
-0.00031551121
1.4673605e-05
-7.2122503e-05
-0.00034059538
8.257868e-05
-0.00020390649
-0.00017807132
0.0001622991
-0.00010138614
-0.00021512039
0.00012578561
0.00022198082
-0.00030039569
0.00020805168
-7.0295244e-05
0.00011031755
8.8768543e-05
0.00033209692
-0.00023338096
0.00044952515
-9.578981e-05
-1.2594064e-05
0.00021924199
0.00025578216
-6.7428267e-05
2.3798844e-05
0.00023848015
-0.00016232958
1.2006727e-05
-0.00016683151
-0.00011495133
-4.2271147e-05
-0.00045345587
-8.9562162e-05
-0.00010969146
-0.00023541483
-0.00011633262
6.1648891e-05
0.00011647856
-6.7409099e-05
0.00028440132
0.0003457695
5.1805177e-05
0.00038966534
0.00016443885
4.1511011e-05
0.00010811872
0.00018294624
-1.9362708e-05
-0.00011673188
-0.00013476867
9.4223165e-05
-0.00021928051
5.6295356e-06
0.00010957733
0.00025544077
7.8164458e-05
-0.00015449417
4.3996908e-05
0.0001011562
6.9670751e-05
0.00011899383
0.0001331981
5.1154092e-05
4.9562832e-05
6.7639823e-05
4.893721e-05
0.00018551314
0.00013622121
0.00020907355
0.00012146717
0.00023891968
0.00015015428
0.00032287508
0.00018147278
0.00015969334
8.4751057e-05
2.3491936e-05
2.8578956e-05
-6.9042789e-06
3.8935302e-05
-7.9471447e-05
5.9430297e-05
-0.00021572736
-0.00019122961
-2.2259598e-05
-0.00010690187
-9.1486904e-05
2.8399344e-05
0.00018837734
2.8998973e-05
0.00038384639
4.2981952e-05
0.00023391796
-4.1554753e-05
-0.00011511651
-0.00012291533
-0.00026988697
-5.9008162e-05
-9.5687915e-05
-2.802716e-05
0.00021030253
0.0001062413
0.00028403703
0.0001905978
0.000319833
0.00024541831
1.9478776e-05
0.0002647821
-0.00017573101
0.00022742091
0.00014480463
-0.00013707441
0.00015885279
-9.1308369e-05
-0.00025924996
0.00019783941
-0.00010637725
-0.000326834
0.0001485205
-0.00016343904
-0.00015282677
-0.00020069224
-0.00012642496
-0.00016087566
2.6721054e-05
-0.00016169341
-0.00024088944
0.00013908553
-0.00014794813
-0.00028027294
7.7558028e-05
-5.0816215e-05
-0.00027391437
-5.031751e-05
9.459091e-05
-0.00011739962
-0.00024224705
0.00011576588
4.64973e-05
-0.00030442872
5.9648066e-05
0.0001760527
-0.00026683468
1.4225672e-05
0.00021031187
-0.00019250322
5.7038408e-05
0.00010221879
2.032788e-05
-7.442976e-05
0.00015623584
-5.5210318e-05
-3.5501875e-05
4.9037776e-05
1.2726627e-05
-3.0337493e-05
6.7351189e-05
9.0301249e-06
-0.00010367214
0.00015191531
-7.5799299e-05
5.3999317e-05
-0.00019481786
3.3561465e-05
4.9300262e-05
-6.162634e-05
6.8692019e-05
-0.00014479086
0.00014158646
3.0380564e-05
-0.00023376048
0.00010005075
-4.26275e-05
-0.00014689019
-0.0001389199
-6.2588293e-05
-1.919687e-05
-0.00019429218
-5.5229848e-05
0.0001588761
-0.00023956736
3.7022766e-05
0.0001697343
-0.00011033633
1.4548812e-06
0.00010258398
-4.3918549e-05
-0.00022277867
0.00046631093
-6.0802716e-05
-0.0003481157
0.000486302
-9.4695189e-05
-0.00015592693
4.2999602e-05
-0.00011807536
0.00014640501
-0.00056735334
-9.1189571e-05
0.00017121813
-1.4279433e-05
-0.00014682985
-0.00015403023
0.00057286423
-0.00013725876
-0.00036649394
0.00043676184
-3.8129472e-06
-0.00030586882
-0.00015537757
0.0002097317
-0.00014934185
-0.00053089705
0.00022698847
4.8808587e-05
-0.00059793449
7.7536568e-05
0.00018721373
-0.00053805527
6.5636584e-05
0.00023689814
-0.00050431542
0.00021080115
0.00011625227
0.00015899852
-0.00019265242
0.00051167325
-7.1353492e-05
-8.0367905e-05
1.992989e-05
0.00011480961
-0.00012227296
5.9357256e-05
0.00023512201
-6.1515085e-05
6.6499302e-05
0.00010265217
0.00025941344
-0.00053375662
1.7061178e-06
0.00031484456
-0.00016781728
3.7079532e-05
-0.00012701104
0.00056404642
-8.5056275e-05
-0.00023230862
0.00013126906
-0.00017364858
-5.1601768e-05
-0.00043092525
-0.00013824385
8.1716742e-05
-0.0004830922
-4.4158683e-05
0.00028867497
-0.00054297668
8.3044335e-05
0.00035037356
-0.00035172176
0.00011705958
0.00027552967
9.3840939e-05
0.00011730403
0.00028525444
3.0843083e-05
0.00017259596
0.00031477259
7.1889788e-05
0.00021566096
-5.5575419e-05
9.1936774e-05
-0.00022755776
-0.00015260607
4.5297786e-05
-0.00022938626
-6.5307518e-05
2.911121e-05
-9.1381033e-05
0.0004470712
2.4338874e-06
8.5430723e-05
0.00034175023
-7.3220446e-05
0.00014567144
-0.00020960763
-6.8065546e-05
3.9711649e-05
-0.00041710964
-3.6747257e-05
9.5045072e-06
-0.00047985341
-5.1223923e-05
-8.128902e-05
-0.00036163889
4.6190539e-05
-0.00020194004
-0.00024867923
6.0691652e-05
-0.00019852779
0.00014909784
4.9383979e-05
0.00042837817
7.3319319e-05
8.2832442e-05
-6.2962285e-05
-7.4998729e-05
0.00012595773
-6.6553911e-05
-9.0490697e-05
0.00037241411
-0.00018064098
-9.3805733e-05
4.0353548e-05
-8.1676502e-05
-0.00018005891
-4.4247224e-05
-6.9309809e-05
-8.8834044e-05
0.00025105407
0.00027619363
-4.3365034e-05
0.000365928
3.1547682e-05
3.4951141e-05
0.00018993305
-0.00014634259
-8.7495861e-05
7.6567789e-05
-0.00029961944
1.9012823e-05
-5.5314197e-05
-0.00045115897
0.00012148452
-6.5968601e-05
-0.00035323445
0.00015632866
0.00013990883
5.9097201e-05
0.00023997871
-0.00012267428
3.4474217e-05
0.0004006435
-6.413409e-05
8.9481754e-05
0.00030126906
1.2911561e-05
-1.250087e-05
-6.274592e-05
0.00013373802
-8.0636196e-06
-0.00031057624
0.00016499342
-6.4500132e-06
-5.3924519e-05
0.00014816404
2.9660927e-05
0.00021465883
5.581789e-05
-7.93094e-05
0.00016384817
-0.00022102596
1.9488007e-06
9.3143547e-05
-0.00040194469
5.5492296e-05
5.5669474e-05
-0.00045797568
3.0269928e-05
-2.0399532e-05
-0.00028921899
8.6227777e-05
-9.526718e-05
-0.00011974312
0.00010823062
-0.00025253591
8.4526538e-05
0.00036014449
3.913772e-05
1.6501923e-05
0.00015896506
0.00014839012
-7.7601216e-05
4.4464177e-05
-4.3504852e-05
-7.0877749e-05
0.00013037735
-0.00025902919
-0.00012247632
4.5593327e-05
2.0387065e-05
-0.00010684172
-6.0203327e-05
3.8051811e-05
-0.00011789761
0.00025381546
-0.00019452486
8.9290579e-05
0.00029566125
-2.1772619e-05
6.3279663e-05
0.00023934199
-2.8046532e-05
-2.0465798e-05
0.00015053384
-0.00022678752
-3.3864799e-06
7.5169129e-05
-0.00042456502
0.00014299393
-1.6270969e-05
-0.0003222244
0.00017000739
0.00014029183
6.1510492e-05
-0.00010076676
2.2089395e-05
-0.00017195551
7.6725413e-05
-0.00013181278
0.00010596693
-6.9348227e-05
0.0001208363
9.8129975e-06
0.00013476939
0.00015373135
0.00014046688
0.00029321602
3.7800372e-05
0.00028901266
-6.6668333e-05
0.00015518846
-8.6647731e-05
-3.4299619e-05
-0.00018373656
-8.1682799e-05
-0.00021325687
1.7831124e-05
-0.00018032175
-0.00017527449
8.4009318e-05
-1.6472232e-05
0.0002803394
-1.8940981e-05
0.00027928661
5.2989855e-07
9.9419362e-05
-0.0001207167
0.0001471569
-0.00015026582
0.00023466137
-0.00010846084
0.00015672506
-0.00014461573
0.0002665028
-2.5309084e-05
0.00036836723
6.0686832e-05
0.00026934114
0.00011765689
-3.5040215e-05
0.00014459844
-0.00022555725
9.571355e-05
5.9539214e-05
-0.00016032428
0.00017280547
-0.00010034022
-0.00031943517
0.00013425801
-7.6269919e-05
-0.00029421897
-0.00012018827
-6.4119789e-05
-0.00011215132
-0.00027007793
-3.6880998e-05
2.9713986e-05
-0.00023814341
-6.6605148e-05
2.747784e-05
-2.5008494e-05
-0.00012117366
-1.8640233e-05
3.9813519e-05
-4.72255e-05
-0.00013102909
0.00011299583
9.3640673e-05
-0.00015195066
5.9549095e-05
7.7208942e-05
-6.7494588e-05
-0.00015795744
0.00013311322