/*--------------------------------*- C++ -*----------------------------------*\
| =========                 |                                                 |
| \\      /  F ield         | OpenFOAM: The Open Source CFD Toolbox           |
|  \\    /   O peration     | Version:  v2012                                 |
|   \\  /    A nd           | Website:  www.openfoam.com                      |
|    \\/     M anipulation  |                                                 |
\*---------------------------------------------------------------------------*/
FoamFile
{
    version     2.0;
    format      ascii;
    class       volScalarField;
    location    "770/bottomWater";
    object      T;
}
// * * * * * * * * * * * * * * * * * * * * * * * * * * * * * * * * * * * * * //

dimensions      [0 0 0 1 0 0 0];


internalField   nonuniform List<scalar> 
1460
(
981.97275
977.11068
973.22844
971.98897
971.6237
973.88324
972.71705
968.31578
963.09625
964.50975
964.32204
968.44782
954.82848
934.09354
928.50884
925.42125
922.60392
919.96296
917.7253
915.64471
909.41681
911.21237
910.56238
910.54115
910.5785
910.54564
910.36876
910.01587
909.16042
908.77545
975.93133
972.84142
969.68981
968.83729
969.08331
969.48596
968.77775
966.43986
960.40436
959.27542
957.23937
961.07216
959.14527
932.437
924.88346
922.46265
921.21575
921.00565
918.19841
915.62251
910.21987
910.47988
910.80784
911.31219
911.41674
911.74726
911.81174
910.89539
910.3826
910.40352
975.69072
971.76261
969.71687
968.67078
969.17194
969.3744
968.57609
967.75136
959.73568
958.26486
955.35036
955.03676
953.64249
931.78545
924.7824
922.49492
923.46728
922.00919
918.54774
915.39691
909.58731
910.42525
910.69203
911.55642
911.55465
911.97543
912.04755
910.8026
910.31643
910.19233
969.35608
968.04837
967.61905
967.89192
968.69607
969.34516
968.9328
967.23064
957.35273
956.9247
952.56178
950.04839
948.91321
933.53202
927.02382
927.08319
925.19924
924.79429
922.35237
916.582
909.36205
910.01095
910.71789
911.99142
911.69077
911.92675
911.78652
910.79218
910.23456
909.761
966.06168
966.74479
967.42591
967.73132
968.02293
967.94606
968.52779
966.40939
956.20827
952.86419
951.56662
950.20902
949.28013
941.40839
936.83212
927.56563
921.86097
920.26483
918.67392
916.08123
909.21277
909.58843
910.00525
910.20273
910.67371
910.96261
910.74442
910.53916
910.10126
909.0502
982.26363
977.5902
975.98864
973.41152
973.26146
975.14373
974.97364
973.81873
972.04201
970.84106
961.90389
949.30848
941.83962
938.64372
927.77791
927.16423
926.37068
921.0182
918.54181
915.35274
911.30872
910.01302
909.39363
909.45707
909.37799
909.77079
910.42379
909.4925
910.46819
909.27097
977.64517
974.61595
973.36892
971.44758
970.83386
970.87786
971.00966
970.11728
966.09804
966.03739
959.96859
947.21657
942.03855
940.63527
927.88096
924.92893
923.91997
918.71458
916.95673
914.30745
910.75386
910.25657
910.78864
910.93695
910.88496
911.46895
911.63903
911.3166
910.88699
910.47141
977.0838
975.0527
973.60627
972.05109
970.72953
970.44981
970.58829
970.15874
967.20954
965.14291
959.41691
949.12024
946.5831
940.52159
928.80894
924.8157
923.08774
917.27994
915.04891
912.88034
909.95655
909.72647
910.82513
911.77089
911.10073
911.66059
912.3557
911.26571
910.64359
910.59703
968.81401
969.71534
969.01984
968.57071
969.45542
969.65801
970.39473
969.66885
967.0039
960.744
958.58592
950.69428
946.19059
939.61522
931.37035
927.3207
923.22197
920.33334
919.40804
912.41317
909.51681
909.2532
911.67878
911.79432
911.32453
911.80934
912.15412
911.31538
910.47967
910.82349
966.44858
967.09944
967.81053
967.81848
968.3273
967.19187
968.90245
966.98037
962.12271
958.77699
955.42677
950.4578
946.65265
943.53834
933.31915
917.22737
921.05389
918.76785
917.18097
913.44879
909.68612
909.98951
910.61727
910.8487
911.01467
911.13025
911.30993
910.96614
910.26605
909.97187
976.77896
972.66383
970.97772
973.85433
974.08914
971.5293
966.64392
965.87974
964.34271
961.7791
960.20864
959.78304
944.76176
932.80875
924.86423
921.44078
925.12111
923.39778
921.98392
917.32001
916.09242
914.15047
913.80036
913.38294
912.57853
912.22735
912.03223
910.6418
911.17459
909.04955
975.57763
971.39107
969.6105
969.68862
970.28715
967.71609
964.79307
964.80529
965.40149
961.83643
958.88603
956.67344
938.68775
929.00556
923.57414
916.95206
918.89594
919.37183
918.02564
913.91812
913.17456
911.93682
912.03108
912.47653
912.03531
911.9203
911.93608
911.93755
911.49116
910.64175
972.7572
971.66735
969.07812
968.3912
969.78971
967.24196
965.81741
967.90644
965.73877
960.5503
958.44466
956.72844
940.194
930.59858
923.21553
917.16777
917.89785
917.69342
914.74797
912.97814
911.84987
909.24116
910.31825
912.50914
912.1767
912.07146
912.39747
911.81549
911.38332
910.76378
967.13429
967.91636
967.95402
967.93125
969.36321
966.57248
966.70256
967.70527
964.29144
956.9505
957.26831
956.23405
941.30992
932.40644
927.47036
918.13204
917.01337
917.19143
913.35396
907.09342
907.67514
907.9
911.21759
911.91855
912.36738
912.31999
912.33842
911.34529
911.05161
910.92224
966.49161
967.1957
967.32185
967.6472
968.55072
965.54055
965.47097
965.8106
963.59112
959.28451
956.15724
953.61681
939.68933
924.81782
922.19597
916.09587
912.94954
912.60725
912.28426
908.08644
908.3712
909.90794
910.86055
911.42166
911.94245
911.76809
911.76843
911.21281
910.16847
910.37933
976.4639
972.55918
969.76107
967.43622
965.75129
964.6252
963.48508
962.11886
958.32046
955.71041
953.46493
953.54373
951.1588
932.04989
918.16728
915.74971
914.57738
912.75409
907.046
902.2882
905.93018
904.6771
905.306
905.83259
907.96363
910.31689
911.03355
908.91906
909.64761
908.15334
975.31837
971.51158
968.42928
965.74178
963.97195
963.65473
963.61877
963.07459
958.648
955.24764
951.18528
950.76941
949.13144
924.66944
913.81094
911.2946
910.901
911.68496
909.07544
903.35362
903.61735
905.14567
907.29611
907.64938
909.74402
910.96197
911.07942
911.29435
910.93618
910.22541
974.27948
971.60589
969.54139
966.60284
964.31358
964.32044
964.26866
964.52511
958.96166
955.72302
949.8
943.50129
945.77018
923.94024
914.77689
909.49336
908.63514
911.06638
909.41608
903.68473
902.77938
905.10263
909.24733
908.09612
909.68229
910.92032
911.35674
911.22389
911.14206
910.39675
969.67357
968.59161
968.11004
966.43544
964.64922
964.67953
963.57753
964.1768
962.29839
959.77697
954.14252
938.91142
922.79413
914.27228
910.2261
907.62833
907.2125
908.12121
906.06279
901.55676
901.25564
904.60063
908.52724
908.53058
909.81222
910.66573
910.93451
910.81319
910.9706
910.59195
966.45896
967.84498
967.27593
965.37289
965.16728
964.55846
964.32229
964.42233
963.15477
960.92556
957.53711
949.89104
927.66866
911.87611
908.03831
906.82378
907.46486
906.99977
904.61363
901.83317
900.72029
903.51969
907.31384
908.20173
909.86578
910.23119
910.45213
910.19557
909.56498
910.0439
974.52786
971.0398
968.74321
966.21929
963.78484
961.41963
958.677
957.51667
955.31797
950.7524
945.06716
942.94378
937.36849
897.85253
910.54994
909.70769
912.8746
907.91796
910.21169
913.97162
913.18655
911.1751
910.95807
909.59372
909.41895
907.75043
971.28037
968.73855
967.20803
966.53239
963.2845
961.54505
960.04801
959.21795
957.67214
951.92527
943.47834
937.87801
934.01945
900.6429
907.521
904.99448
906.80753
906.61548
907.75361
910.25381
911.62829
910.7564
910.5079
910.32989
910.52993
910.065
971.25853
969.13776
968.26638
966.33379
961.93823
961.41832
960.09361
959.40098
959.62621
952.91749
942.95792
934.85774
925.60514
898.73633
900.93755
901.61109
904.0981
906.80555
910.81482
910.40652
910.84231
910.74209
910.48149
910.19941
910.49166
910.31218
969.20003
968.69849
968.35504
967.0221
961.54526
961.31643
960.08934
960.71743
960.30595
953.12373
942.60516
932.86996
918.49076
895.89385
896.95288
897.61757
902.21887
906.43876
910.38637
909.38903
909.95602
910.19016
909.86631
909.79177
909.97161
910.66371
965.19652
965.82256
965.98014
965.38541
962.57045
962.65472
962.46369
961.57223
960.19371
952.28307
939.82438
935.31433
922.20147
888.03365
893.60916
894.09196
898.85947
905.35432
906.87405
907.49861
908.17737
908.76674
909.22502
909.38616
909.31023
909.72943
974.43401
970.99186
968.29676
966.0933
963.46881
963.36329
959.05092
956.72026
953.19363
949.95383
941.65775
944.97759
936.97935
902.20163
912.56164
914.3393
915.38422
914.45647
912.71765
911.14805
909.90044
909.05425
908.37784
907.50993
906.58885
903.6576
970.60105
968.18138
966.62735
965.33195
961.81619
961.47826
960.80712
955.93476
954.08273
952.21032
941.34971
939.19665
934.81162
897.11168
904.2888
907.16507
911.64985
913.44316
912.37201
911.76695
911.42696
910.31447
909.40833
909.66617
910.11448
909.3518
970.95923
969.84969
967.58948
965.28816
960.65381
959.75367
960.65035
956.05455
955.12685
954.78929
941.38562
933.30809
930.95936
891.24827
900.30621
906.02309
911.37147
913.40919
912.55406
912.32441
911.9112
910.39046
909.32208
909.49989
910.18195
909.69817
970.61827
969.32361
966.8012
964.95955
960.55562
959.35118
960.45558
956.23408
955.09612
954.39917
947.77464
929.87271
925.77898
894.259
902.06261
906.31137
911.18313
912.85343
912.46162
911.69752
911.39501
909.79879
909.06215
909.09062
909.77135
910.14786
967.32318
966.80842
966.31343
965.44179
960.69557
957.53847
954.07116
952.04816
950.16158
946.13007
941.39653
933.75153
927.93972
896.74137
902.28636
904.7751
909.4371
909.73311
908.76652
909.87107
909.86516
909.46547
908.86932
908.70396
908.83257
909.16256
972.60312
970.45492
968.51364
967.47604
966.03274
962.67595
961.25285
960.60564
958.74348
956.00963
947.23722
931.79175
923.67214
919.34972
919.51196
915.91998
909.00157
911.12739
910.09283
912.07456
914.30911
916.12616
916.24402
915.3606
913.3382
911.48168
909.71961
907.84661
905.69319
903.1024
969.58363
968.34783
967.80839
966.63061
964.66043
961.389
959.585
958.89854
957.49611
955.21581
943.59376
933.36943
925.14393
922.28561
922.1757
918.16241
912.17955
908.09581
906.48424
907.48739
911.10006
914.13129
914.23144
914.40271
911.9573
910.81165
910.11801
909.91888
910.00312
908.7916
969.40891
969.10101
968.23659
966.60274
964.66501
960.21905
958.43089
957.46228
957.18149
955.62245
947.73668
934.69621
927.21715
925.56048
923.34245
919.72145
912.62037
905.24557
905.15174
907.29757
910.72972
913.30378
912.42786
913.38656
912.65374
911.31844
910.0477
909.82059
909.93466
909.08467
969.4393
968.72396
968.10127
966.62928
964.93333
959.39277
959.34842
956.96032
957.02668
955.53202
946.30277
935.5258
927.86398
926.56523
924.27912
922.6293
913.56716
906.95733
908.43842
907.64907
910.79698
912.27684
911.49488
912.11701
912.62505
910.65876
909.30878
909.51489
909.74308
909.34802
968.21052
967.7415
967.315
966.64561
964.95883
956.50708
955.47027
955.87544
954.43597
950.61613
944.13322
936.84593
932.93413
928.07267
925.38871
923.69329
913.26167
906.00824
906.03849
906.58527
909.79936
909.39634
908.88924
911.62185
911.6289
910.16022
908.92091
908.93002
908.93174
908.87403
970.94118
968.61237
966.98124
965.10775
963.46161
959.69789
960.52787
961.81156
955.02393
955.68708
953.78491
937.89716
926.1804
923.20051
922.00081
920.38437
917.9215
917.31746
916.50255
915.1279
914.49399
913.34125
911.81836
913.56875
910.37931
910.68978
909.80041
907.946
902.75252
898.7227
967.42413
966.49244
965.40191
964.48855
962.00949
957.61845
957.33999
958.29298
955.44627
952.9999
950.11614
934.88734
927.12891
924.02174
924.5078
922.63708
918.52959
918.15644
915.40949
914.87781
913.88688
913.01123
913.26359
913.76737
912.65383
911.07676
911.00225
911.10221
910.68184
908.70242
967.37422
966.26925
965.30718
964.62303
961.87311
956.76433
956.62632
957.70595
955.50254
951.13993
947.49068
934.62544
927.56511
927.5551
926.78219
924.54952
918.96768
918.40319
913.75907
914.11993
913.84115
912.95389
913.11479
913.58011
912.83727
911.46445
911.96329
911.18458
910.32892
908.89917
967.35208
966.48566
966.04498
965.50856
962.8504
956.95121
956.6274
955.4166
950.88461
948.45539
945.12588
935.73604
928.26666
928.8871
927.17342
924.57892
918.48392
914.76276
912.94085
912.93866
911.63468
911.50181
912.4978
913.512
913.12326
911.53093
911.84014
911.33184
909.70785
909.09125
967.03687
966.54018
966.08818
965.54358
961.99459
954.76051
954.89652
953.3084
947.16004
944.72981
942.17025
937.05665
930.8032
928.78519
927.52054
925.73841
919.04144
915.31705
909.18609
907.72324
909.62781
910.84359
912.05442
912.71842
912.56393
909.58365
909.68844
909.69121
908.9933
908.84131
969.87349
967.37922
965.44112
963.22535
960.70571
958.53928
957.0137
960.15941
960.53888
960.51333
958.1286
946.29918
940.30737
931.67773
927.70641
927.4204
925.09628
920.36619
915.75244
915.37013
914.01256
912.98627
913.28772
914.24954
913.66313
911.07655
911.2028
908.808
903.62895
898.57993
966.00328
964.50078
962.68825
961.00668
959.80443
956.7762
954.49094
955.53799
957.06291
957.18577
956.04083
948.70907
938.94113
928.82792
925.73807
925.18182
927.64215
925.35366
917.45731
914.64035
914.22935
912.544
913.70454
913.99862
914.00201
911.64264
911.57691
911.58905
911.64103
909.32388
965.31102
964.33501
962.93873
964.45768
960.9214
956.78194
954.42538
956.20718
956.41192
955.38679
955.33428
949.50994
941.43222
928.99584
927.83219
927.76644
929.58833
926.79748
917.71465
914.94869
914.55256
912.20462
913.66698
914.08541
914.0961
911.90633
911.76526
911.52516
910.41564
909.49086
964.97067
964.3918
963.7241
964.45074
962.78082
957.54643
952.37308
952.43014
952.5351
953.07076
954.69506
948.57636
940.10071
929.96955
929.95213
926.62419
928.28972
923.35529
918.0978
914.47973
914.68063
911.56339
913.12887
913.60087
914.04965
912.13584
911.97959
912.21836
910.10087
909.6115
965.03937
964.74875
964.61984
964.5297
961.82326
956.34657
951.96328
951.06666
949.73717
949.04932
948.4173
945.36809
940.07286
934.91263
931.47678
925.21304
924.96884
923.0062
917.93702
916.19799
915.20376
911.4954
911.73237
912.33278
912.14573
909.53514
910.0783
910.30689
909.36705
909.19796
966.2285
966.85307
968.89116
970.61221
968.02058
964.85231
963.34131
964.72579
961.97068
958.26001
953.64841
949.62119
947.24094
941.51333
942.90134
944.09122
932.55743
920.24415
918.71678
917.84439
916.37018
915.28174
914.30353
915.70505
914.05949
912.09053
911.13761
909.12447
908.25414
903.03821
964.98262
965.05955
965.82211
966.68256
963.28748
960.19562
959.58367
960.69957
959.49687
955.67754
952.41503
950.57625
948.54437
938.61049
937.35631
937.24033
935.32556
926.55332
917.64888
917.22407
916.67784
914.52541
913.4347
914.21365
913.82872
911.91739
911.3081
910.65949
911.03324
910.14776
964.92925
965.01781
965.22815
964.99841
960.20911
956.69046
956.64816
957.49314
958.83623
955.994
954.07851
953.04988
949.15621
937.44315
935.56448
935.91934
935.46285
928.43802
919.54548
918.52888
916.85195
914.45838
912.83247
913.77585
913.73198
912.38158
910.60138
910.43997
910.89327
910.72993
964.72161
964.80468
964.78277
964.6784
958.27016
953.71954
952.86762
951.28878
952.41722
951.93266
951.57924
950.87388
948.90997
944.69718
936.90728
934.6974
934.8102
928.43309
921.51557
919.61545
916.38036
915.28268
911.98045
912.2087
912.94392
910.29202
909.88931
910.00272
911.06927
910.41242
964.62098
964.57006
964.68909
964.70003
959.65574
954.78008
954.03789
950.10814
948.8298
948.34302
947.83452
947.19302
944.57294
940.4475
935.75514
929.02037
930.58514
927.09125
921.17205
919.45844
918.36516
916.94182
911.70103
909.88663
909.65275
909.06563
909.42913
909.43307
909.28972
909.40509
)
;

boundaryField
{
    minX
    {
        type            zeroGradient;
    }
    maxX
    {
        type            zeroGradient;
    }
    minY
    {
        type            fixedValue;
        value           uniform 1073;
    }
    minZ
    {
        type            zeroGradient;
    }
    maxZ
    {
        type            zeroGradient;
    }
    bottomWater_to_rightSolid
    {
        type            compressible::turbulentTemperatureCoupledBaffleMixed;
        refValue        nonuniform List<scalar> 
130
(
748.43943
756.28046
764.45709
772.5617
780.32793
787.51295
793.95441
799.55327
804.25035
808.01569
810.83913
812.71823
813.65497
742.56952
751.74587
761.09743
770.16379
778.65446
786.3647
793.17519
799.02687
803.89449
807.77391
810.6693
812.59137
813.5517
730.80803
743.04378
754.90781
765.88978
775.75771
784.42601
791.8896
798.18012
803.33676
807.40408
810.4179
812.40977
813.40485
713.32758
731.30832
747.20998
760.88273
772.51845
782.33905
790.54604
797.31985
802.78807
807.05479
810.19483
812.26228
813.2926
692.7606
720.23504
740.93716
757.20427
770.3064
780.97656
789.69815
796.78836
802.45728
806.85142
810.07192
812.18711
813.23847
692.88886
720.36399
741.06769
757.32343
770.3916
781.03765
789.74848
796.826
802.482
806.86603
810.08218
812.19665
813.24736
713.55224
731.50863
747.41168
761.08616
772.68948
782.47156
790.65947
797.40568
802.84593
807.09375
810.22803
812.29514
813.32323
731.06801
743.24719
755.10134
766.08177
775.93302
784.58038
792.02249
798.28541
803.41036
807.46335
810.47451
812.46669
813.46017
742.83524
751.97609
761.32357
770.39427
778.85837
786.54025
793.32475
799.14892
803.98806
807.85764
810.75311
812.67631
813.638
748.71152
756.52568
764.7054
772.83168
780.57615
787.70883
794.10585
799.67255
804.34828
808.10861
810.93466
812.82002
813.76439
)
;
        refGradient     uniform 0;
        valueFraction   uniform 0.99248593;
        value           nonuniform List<scalar> 
130
(
749.73059
757.50074
765.59646
773.58852
781.29921
788.43338
794.82793
800.38826
805.05221
808.7876
811.58829
813.44998
814.37179
743.89345
752.98894
762.24222
771.21218
779.64133
787.29835
794.05941
799.86837
804.70029
808.5519
811.42294
813.32531
814.27622
732.17407
744.31547
756.05881
766.9604
776.76573
785.37606
792.78779
799.03496
804.15154
808.1883
811.17529
813.14434
814.13354
714.78283
732.61048
748.37181
761.93348
773.50286
783.27812
791.43011
798.16556
803.59542
807.83175
810.94625
812.99344
814.01961
694.22798
721.53776
742.088
758.26875
771.32121
781.9226
790.58333
797.62537
803.25612
807.62069
810.81819
812.91691
813.96352
694.42062
721.73095
742.29776
758.46639
771.43856
781.9974
790.6511
797.67538
803.28588
807.6325
810.82325
812.92279
813.96808
714.99839
732.82008
748.60773
762.20361
773.71673
783.42145
791.56841
798.26396
803.6523
807.8589
810.9697
813.02129
814.04122
732.45246
744.49408
756.24818
767.1604
776.94676
785.53823
792.92942
799.14413
804.20817
808.2315
811.22005
813.19202
814.1769
744.18905
753.22316
762.48731
771.48239
779.85501
787.48096
794.21899
799.99799
804.78118
808.62576
811.50118
813.40288
814.35607
750.05188
757.76284
765.86821
773.92522
781.6008
788.64052
794.97585
800.49896
805.13516
808.86996
811.67481
813.54492
814.48307
)
;
        Tnbr            T;
        thicknessLayers List<scalar> 0();
        kappaLayers     List<scalar> 0();
        kappaMethod     fluidThermo;
        kappa           none;
        alphaAni        none;
        alpha           none;
        field           T;
    }
    bottomWater_to_leftSolid
    {
        type            compressible::turbulentTemperatureCoupledBaffleMixed;
        refValue        nonuniform List<scalar> 
130
(
929.73798
929.73519
929.7149
929.66397
929.57336
929.43385
929.24121
928.97818
928.64526
928.3236
928.04137
927.82109
927.69477
929.68397
929.67865
929.653
929.59381
929.49393
929.34148
929.14473
928.88383
928.56744
928.23854
927.92719
927.66482
927.50152
929.58025
929.57009
929.53284
929.45919
929.34159
929.16401
928.94733
928.68292
928.36521
928.01837
927.67944
927.37762
927.14798
929.44257
929.42689
929.37295
929.27223
929.12895
928.93674
928.69936
928.4153
928.08122
927.71146
927.33305
926.97637
926.69476
929.28995
929.26503
929.19912
929.0802
928.90189
928.67943
928.41003
928.09336
927.72794
927.31045
926.88711
926.53974
926.2958
929.16972
929.13251
929.04887
928.90598
928.68986
928.41754
928.10215
927.75841
927.38949
926.99971
926.62235
926.30451
926.10579
929.06262
929.0206
928.9279
928.77273
928.54316
928.23745
927.91567
927.58061
927.22472
926.857
926.50314
926.21325
926.04119
928.95431
928.91071
928.81454
928.65353
928.41255
928.10134
927.78002
927.44227
927.08688
926.74843
926.43913
926.1797
926.01417
928.86349
928.82191
928.72889
928.57165
928.33531
928.03189
927.70266
927.3737
927.04978
926.74779
926.47794
926.25195
926.10393
928.81836
928.77926
928.68947
928.5338
928.29429
927.99982
927.68854
927.3582
927.04137
926.75329
926.50322
926.30479
926.17966
)
;
        refGradient     uniform 0;
        valueFraction   uniform 0.99248593;
        value           nonuniform List<scalar> 
130
(
930.01092
930.01328
929.99826
929.95001
929.86228
929.72324
929.53642
929.25954
928.85247
928.50806
928.21818
927.98934
927.857
929.96021
929.95981
929.9397
929.88103
929.78573
929.62589
929.44346
929.17011
928.81964
928.46806
928.13382
927.83609
927.64541
929.8576
929.85279
929.81679
929.74613
929.63622
929.43729
929.22174
928.96188
928.62982
928.25325
927.8934
927.57471
927.242
929.72069
929.71552
929.65774
929.54346
929.39974
929.2044
928.96702
928.68584
928.34472
927.96098
927.55998
927.14843
926.70186
929.55975
929.53971
929.47548
929.35301
929.1549
928.93473
928.6659
928.34493
927.97189
927.49803
926.98423
926.60562
926.26495
929.4564
929.41559
929.32886
929.1805
928.93042
928.6364
928.29725
927.94084
927.56055
927.14343
926.7333
926.36056
926.11957
929.35678
929.31154
929.21633
929.05729
928.81679
928.44992
928.1227
927.79321
927.4292
927.03552
926.63551
926.2932
926.09302
929.24046
929.19345
929.09461
928.93072
928.66495
928.30165
927.98376
927.63664
927.23779
926.88359
926.55739
926.26153
926.05018
929.13533
929.09188
928.99859
928.84186
928.58698
928.24471
927.88496
927.55173
927.22025
926.91539
926.64281
926.39564
926.20886
929.08739
929.04821
928.95998
928.80558
928.53001
928.20108
927.88664
927.52919
927.2051
926.91553
926.66352
926.46176
926.31782
)
;
        Tnbr            T;
        thicknessLayers List<scalar> 0();
        kappaLayers     List<scalar> 0();
        kappaMethod     fluidThermo;
        kappa           none;
        alphaAni        none;
        alpha           none;
        field           T;
    }
    bottomWater_to_heater
    {
        type            compressible::turbulentTemperatureCoupledBaffleMixed;
        refValue        nonuniform List<scalar> 
92
(
729.79887
731.80824
735.75366
741.42815
720.39755
722.75068
727.42555
734.2234
700.61347
703.72357
709.98951
719.2607
345.27747
342.48862
342.45112
345.04615
421.37145
417.94876
418.03914
421.43552
486.3696
483.5166
484.08795
487.63775
541.59639
539.90052
541.69271
545.99016
668.69284
587.36188
672.61653
587.57754
681.06884
592.07513
694.71913
599.41624
345.27747
345.04615
421.37145
421.43552
486.3696
487.63775
541.59639
545.99016
587.36188
599.41624
345.25817
345.25817
342.49253
342.45765
345.05403
345.05403
421.39078
421.39078
417.98365
418.06706
421.43272
421.43272
486.44895
486.44895
483.58381
484.14041
487.64153
487.64153
541.7467
541.7467
540.01445
541.78688
546.05286
546.05286
587.53058
587.53058
587.71582
592.1992
599.54147
599.54147
669.15842
673.06475
681.46645
695.01899
701.02349
704.13547
710.38568
719.59146
720.63035
723.02648
727.73822
734.51823
729.98231
732.01515
735.99951
741.71061
)
;
        refGradient     uniform 0;
        valueFraction   nonuniform List<scalar> 
92
(
0.99248593
0.99248593
0.99248593
0.99248593
0.99248593
0.99248593
0.99248593
0.99248593
0.99248593
0.99248593
0.99248593
0.99248593
0.99248593
0.99248593
0.99248593
0.99248593
0.99248593
0.99248593
0.99248593
0.99248593
0.99248593
0.99248593
0.99248593
0.99248593
0.99248593
0.99248593
0.99248593
0.99248593
0.99248593
0.99248593
0.99248593
0.99248593
0.99248593
0.99248593
0.99248593
0.99248593
0.99248593
0.99248593
0.99248593
0.99248593
0.99248593
0.99248593
0.99248593
0.99248593
0.99248593
0.99248593
0.99248593
0.99248593
0.99248593
0.99248593
0.99248593
0.99248593
0.99248593
0.99248593
0.99248593
0.99248593
0.99248593
0.99248593
0.99248593
0.99248593
0.99248593
0.99248593
0.99248593
0.99248593
0.99248593
0.99248593
0.99248593
0.99248593
0.99248593
0.99248593
0.99248593
0.99248593
0.99248593
0.99248593
0.99248593
0.99248593
0.99248593
0.99248593
0.99248593
0.99248593
0.99248593
0.99248593
0.99248593
0.99248593
0.99248593
0.99248593
0.99248593
0.99248593
0.99248593
0.99248593
0.99248593
0.99248593
)
;
        value           nonuniform List<scalar> 
92
(
731.38898
733.34874
737.19496
742.78394
722.07423
724.3326
728.85176
735.62721
702.2981
705.36509
711.53817
720.71611
349.68648
346.81433
346.75894
349.32565
425.15331
421.67475
421.7455
425.11339
489.65759
486.75722
487.28453
490.8012
544.39665
542.68312
544.44236
548.70441
670.52009
589.80026
674.38549
589.98549
682.76522
594.44021
696.31775
601.73098
349.72657
349.19993
425.22362
425.03632
489.67027
490.72677
544.42835
548.61935
589.87781
601.58501
349.70445
349.57195
346.82831
346.76673
349.2404
349.29158
425.24875
425.15453
421.77222
421.82485
425.00697
425.12025
489.78917
489.74845
486.88824
487.41343
490.67427
490.83488
544.63248
544.63829
542.90189
544.64857
548.66931
548.81443
590.08844
590.08947
590.25315
594.69009
601.77465
601.89882
671.10395
674.96076
683.28658
696.65892
702.73492
705.81401
712.00384
721.09016
722.24042
724.59269
729.22202
735.94927
731.56368
733.54592
737.44989
743.12982
)
;
        Tnbr            T;
        thicknessLayers List<scalar> 0();
        kappaLayers     List<scalar> 0();
        kappaMethod     fluidThermo;
        kappa           none;
        alphaAni        none;
        alpha           none;
        field           T;
    }
}


// ************************************************************************* //
