/*--------------------------------*- C++ -*----------------------------------*\
| =========                 |                                                 |
| \\      /  F ield         | OpenFOAM: The Open Source CFD Toolbox           |
|  \\    /   O peration     | Version:  v2012                                 |
|   \\  /    A nd           | Website:  www.openfoam.com                      |
|    \\/     M anipulation  |                                                 |
\*---------------------------------------------------------------------------*/
FoamFile
{
    version     2.0;
    format      ascii;
    class       volVectorField;
    location    "770/bottomWater";
    object      U;
}
// * * * * * * * * * * * * * * * * * * * * * * * * * * * * * * * * * * * * * //

dimensions      [0 1 -1 0 0 0 0];


internalField   nonuniform List<vector> 
1460
(
(-0.00056095913 -0.015644105 0.0014513108)
(-0.0026416897 -0.013577192 0.0013951109)
(-0.0019622804 -0.010577917 0.0023799193)
(-0.00013167395 -0.011316374 0.00083261733)
(0.00143782 -0.01156048 0.00062654993)
(0.0021587084 -0.016253226 0.0012854078)
(-0.0009286111 -0.016702481 0.0016433271)
(-0.0021076142 -0.011284493 0.0014711893)
(0.00022506917 -0.011363808 0.0016258906)
(0.0019202633 -0.012222804 0.0014500692)
(0.0024523665 -0.011836872 0.0012324438)
(0.0026580822 -0.01324367 0.00091860316)
(-0.00035452598 -0.015441518 0.0005276606)
(-0.0016431197 -0.016040113 -0.0018906404)
(-0.0020821396 -0.01528031 -0.0016621067)
(-0.0031452187 -0.014772838 -0.00039430824)
(-0.0050327232 -0.013095929 0.00033718246)
(-0.0039159519 -0.011722439 0.0011092741)
(-0.00278745 -0.012586303 0.0019244094)
(-0.0013271746 -0.012337136 0.0015522523)
(0.0015870132 -0.012657627 0.0023180693)
(0.0016576821 -0.020523955 0.00082597007)
(0.00067285844 -0.017305484 4.7948565e-05)
(0.002695833 -0.015668918 0.0012790145)
(0.00063124347 -0.017002666 0.00094636457)
(-0.0030443611 -0.016843391 0.00078265928)
(-0.0024926562 -0.012002469 0.0012224916)
(-0.0018817639 -0.012519193 0.00049144489)
(0.0012549808 -0.011677208 0.0020370035)
(0.0023357025 -0.017647324 0.0021041675)
(-0.0021125609 0.016988556 0.0020030369)
(-0.0037342796 0.014927329 0.0015617749)
(8.9840132e-05 0.0040285361 0.0014459038)
(0.0019595838 0.0032776395 0.0013071863)
(0.0029232208 0.0042706456 0.00036639816)
(0.0064664743 0.015942494 0.0014080481)
(-0.0015134171 0.017676242 0.0017905791)
(-0.0023830432 0.0047132681 0.0005953747)
(-0.00063138329 0.00085679748 0.00022381117)
(0.0025961232 0.0060279098 0.00038337084)
(0.0020778701 0.0065359197 0.00019840374)
(0.0057189971 0.014878165 0.00095073802)
(0.0033478924 0.017361849 0.0002214904)
(-0.002603897 0.017214642 -0.0032615733)
(-0.0028130093 0.017040561 -0.0027567486)
(-0.0044022973 0.016717955 -0.00018536526)
(-0.0059550624 0.013609692 0.00072068623)
(-0.0012880075 0.0010341659 -0.0008519394)
(-0.0023555687 0.0011575587 0.00051870583)
(0.00024560815 -0.0015822779 -3.9994408e-05)
(0.001623802 -0.00035847711 0.00046201701)
(0.0023561504 0.019262019 -0.0028654582)
(0.0013145496 0.013336268 0.00017052274)
(0.0055339984 0.010567304 0.0026685778)
(0.0028119804 0.01815427 0.0023591499)
(-0.0071326212 0.016859319 0.0022045441)
(-0.0023942703 0.0034612355 0.00056130298)
(-0.0015979225 0.0038427722 0.0013005834)
(0.0010441435 -0.0030479385 0.00052961881)
(0.0042201687 0.016954435 0.0032387697)
(4.6858342e-05 -0.004992458 0.0009108699)
(0.0044395051 -0.011509699 0.0011111637)
(0.0039290761 -0.012867622 -0.00013915516)
(0.0023557636 -0.012823922 0.00052948572)
(-0.0012697848 -0.013637704 -0.00026103122)
(0.00017368947 -0.01135684 0.0010458325)
(-0.00023054888 -0.0033133011 0.00049522224)
(0.0024077655 -0.012387081 -0.0026603249)
(0.00022860551 -0.013375509 -0.0027362697)
(0.00061163667 -0.014159083 -0.0041741635)
(-0.004653623 -0.014454621 -0.0033799183)
(-0.0046879126 -0.010693309 -0.00060553401)
(-0.0008008598 0.00058449172 0.0012750348)
(-0.0022530196 -0.00039919781 0.00080360399)
(0.00022447846 -0.0057701012 -0.0011571349)
(-0.00086235068 -0.0050272981 0.00034181805)
(0.0050168711 -0.012894259 -0.0018680467)
(0.0040553638 -0.014432876 -0.0036798813)
(-0.0017876093 -0.014239719 -0.0027680077)
(-0.00046407635 -0.014217322 -0.0023666784)
(-0.0019805924 -0.014184801 -0.002090567)
(0.0024557746 -0.0086027754 0.00076690953)
(0.0044304815 -0.01639779 0.0019831062)
(0.00016271337 -0.01713854 0.00066785055)
(0.0014602895 0.003395918 0.0010744754)
(0.0029129692 -0.012337337 -0.00019699016)
(0.0014585417 -0.015191549 -0.0018634917)
(-0.0018953898 -0.01311732 -0.00031684328)
(-0.0013517628 -0.015022229 -0.0015625804)
(-0.0033341219 -0.014679638 -2.4782616e-05)
(0.0016679799 0.0057040273 0.00093453868)
(0.0023791014 0.0038575849 0.00046499902)
(0.00066836117 0.00097650566 -0.00082824208)
(-0.00052407117 0.0015263963 -0.0017250192)
(-0.00035543306 0.0044198277 -0.00096831987)
(-0.00047700666 0.010925554 0.00067285007)
(-0.0018251362 0.007875384 -0.0012523073)
(0.0017789489 -0.0021156785 -0.0028451314)
(-0.0018173289 -0.0043135284 -0.0023094677)
(0.00097177762 0.0088896528 -0.0034462506)
(-0.0032907716 0.010121922 -0.0026311372)
(-0.0048523688 0.0099058845 -0.00066557804)
(-0.0032512135 0.0077053178 0.0033056378)
(-0.00066674826 0.0083685 0.001943063)
(0.001261627 0.0090271212 0.00039609029)
(0.0032280544 0.0041127243 0.0010020648)
(0.0036706072 0.0061911211 -0.00077702681)
(0.0043505511 0.009711497 0.00066758975)
(-0.00070341374 0.0069650933 0.0017083307)
(0.0016614929 -0.0046317518 -0.0010500273)
(-0.0018551881 -0.005637242 -0.00054523034)
(0.0031655311 0.0093140972 0.00029546506)
(0.0034910319 0.013771633 0.00041989966)
(-0.0034268172 0.012330244 0.00092269187)
(0.0014986607 0.0074587139 4.2691748e-05)
(0.0046711975 0.011413054 -0.002565992)
(-0.0010500887 0.0096517264 0.00081256055)
(0.00046473585 0.00075642836 -0.0020772558)
(0.0015230908 -0.0046300862 -0.0013276038)
(0.00054970001 0.0043846297 -0.0013315229)
(-0.00041856513 -0.0097987208 -0.0018916793)
(-0.00058594971 -0.0095948141 -0.0033845987)
(-0.0014761722 -0.0077896799 -0.0046145814)
(-0.002380568 -0.008500907 -0.0046322437)
(-0.0029135275 -0.0092075706 -0.003665974)
(-0.0015396561 -0.0067741649 -0.0015542206)
(0.0021247218 -0.0048671049 -0.0019526257)
(0.0022218974 -0.0088755878 -0.0026707465)
(-0.0046017498 -0.0095641466 -0.003040027)
(-0.0055890076 -0.0083393731 -0.0015758408)
(-0.0037468828 -0.0041715585 -0.00094740751)
(-0.0022698183 -0.0039953768 -0.00015531702)
(0.00089741925 -0.0028909106 0.00061401219)
(0.001914534 -0.0050701458 0.00015496408)
(0.0030436777 -0.0091358313 0.00065719763)
(0.0019460387 -0.010589069 -0.0016279369)
(0.00028854328 -0.0092659267 -0.0031026297)
(0.0025118653 -0.0084269531 -0.0023070191)
(0.0033358148 -0.0099014985 -0.0033641456)
(0.0045973197 -0.0095767041 -0.0035207413)
(-0.0052484955 -0.011061053 -0.0018814526)
(-0.0069121123 -0.010814669 -0.001655708)
(-0.003734604 -0.0076819662 -0.00083054337)
(-0.0025269153 -0.010943003 -0.0015229468)
(-0.00027984826 -0.003205394 -0.0020754933)
(0.0036584647 -0.0035926033 -0.0018238807)
(0.0064555268 -0.0079430306 -0.0023095552)
(0.0071973649 -0.0095936753 -0.0032266437)
(0.0039650982 -0.01049642 -0.0033873373)
(-0.0020976363 -0.0092921257 -0.0029116062)
(-0.00046740892 -0.015133071 -0.0014102164)
(-0.00077907622 -0.014348141 -0.0030490725)
(-0.0025391953 -0.013310573 -0.0016430658)
(-0.00059261408 -0.01082621 0.0013448667)
(0.0021790531 -0.011968789 0.0015052141)
(0.002212455 -0.015182793 0.0010054772)
(0.0014980666 -0.017073064 0.00097346859)
(0.00081726833 -0.01531309 0.0022685981)
(0.00076739608 -0.015657241 0.00059649162)
(0.00028848754 -0.014960653 0.00085969284)
(-0.00022061621 -0.015233377 0.00054102188)
(-0.001302422 -0.015188591 -0.00087754291)
(-0.0033228238 -0.013729824 -0.00048575984)
(-0.0024087423 -0.01040511 0.00034975598)
(0.0004476145 -0.011532124 -0.0010296935)
(0.0021745334 -0.01557019 -0.0017375955)
(0.00094053226 -0.01705597 -0.00055017036)
(-0.0020726022 -0.017259264 0.0031788395)
(-0.0022756615 -0.017062189 0.0042590344)
(-0.0022921455 -0.016514472 0.0040268033)
(-0.0025070943 -0.014933112 0.0036687554)
(-0.0025783301 -0.013073222 0.00072545684)
(0.0022508235 -0.012898043 0.00069458722)
(0.003017318 -0.015864278 0.0026056623)
(0.0013001174 -0.017949042 0.0028938891)
(-0.0010819427 -0.01831582 0.0024659023)
(-0.0023384476 -0.015368689 0.0027466285)
(-0.00069792865 -0.011310072 0.0016961974)
(0.0023338565 -0.013188882 0.0034943925)
(-4.9600242e-05 -0.016880264 0.002389015)
(-0.0015937147 0.016734763 -0.00041158028)
(-0.00195489 0.016463561 -0.0016601165)
(-0.0039503415 0.015560088 -0.00051699623)
(0.0041622549 0.0015617559 0.0036020819)
(0.0044904422 0.0049585733 0.0025203857)
(0.0074648221 0.01517839 0.0032544769)
(0.0038408334 0.018574827 0.0030524792)
(-0.00076788356 0.016969828 0.004724829)
(0.00045078 0.016661652 0.0032550875)
(0.0025588069 0.016833466 0.003804284)
(0.0013715352 0.017052565 0.0038933528)
(-0.0030580553 0.017444461 0.00029005784)
(-0.0052485639 0.014681947 0.00066235989)
(-0.00062913922 -0.00055884711 0.00075622801)
(0.00056308189 0.0014955741 0.0010702468)
(0.0055695885 0.013397739 -0.00072875652)
(0.0041045394 0.018231466 -4.5777837e-06)
(-0.0040181498 0.017842887 0.0064018607)
(-0.0025316388 0.017417526 0.0069510436)
(-0.00044752193 0.016820295 0.0066175269)
(-0.002697969 0.015391187 0.0058197038)
(0.0013838204 0.0054383323 -0.0028166329)
(0.0030569599 -4.7658846e-05 -0.0018066176)
(0.0083010789 0.014669611 0.0018403267)
(0.0060876895 0.019169893 0.0021877816)
(-0.0055421712 0.01954477 0.0037005411)
(-0.0047735219 0.01470447 0.0029975789)
(-0.0017067935 0.00099133822 0.0016934595)
(0.0037428364 0.012983698 0.0047458761)
(0.0027472225 0.018330515 0.0047686702)
(0.001689105 -0.0029356437 0.0016865345)
(0.0039197103 -0.0053082251 0.0025696255)
(0.0066399057 -0.012628081 0.0024527558)
(0.0066209965 -0.014766512 0.0013413229)
(-0.00058283642 -0.014091322 -0.002324154)
(-0.00019494599 -0.0067724625 3.958854e-05)
(0.0024265585 0.0037957107 0.0024483802)
(0.0016725892 -0.0012359106 0.0037406081)
(0.0015233091 -0.016454024 0.0044546821)
(-0.001248772 -0.0083531392 0.002525529)
(0.00049070538 0.0019122521 0.0027217925)
(-0.0007526575 0.0030147407 -0.001577831)
(0.0048845048 -0.012319685 -0.001049376)
(0.0023347535 -0.014695353 4.473544e-05)
(-0.0013282247 -0.013136532 0.0037223404)
(-0.001124239 -0.015015464 0.0038395533)
(0.0015057528 0.0048044505 -0.00053427607)
(-0.0017871592 -0.0062541744 -0.0012996494)
(-0.0014059514 -0.016773859 -0.0041254051)
(-0.0030222042 -0.011636372 -0.0016810453)
(0.0027098083 -0.013156812 -0.0030984858)
(0.0058575222 -0.015672279 -0.0041145575)
(-0.00021253452 -0.01653715 -0.0037863762)
(-0.0045452392 -0.013061604 -0.0034091138)
(0.0031838454 0.0072748303 -0.00058079888)
(-0.0029197065 0.0056954246 0.0023437382)
(0.0053272964 -0.014940646 -0.0031969173)
(-0.0030535847 -0.014930119 -0.00036568565)
(-0.0040804315 -0.013461707 -0.000937035)
(0.00085871404 -0.00090000191 0.0031725566)
(0.0019244715 0.0042539178 0.00054505013)
(0.005206038 0.0076218248 0.0021228027)
(0.0042899028 0.010952899 0.002042009)
(0.0015587651 0.010729596 0.001722647)
(-0.0019990235 0.009290726 -0.0023212762)
(-0.0028286959 0.008399909 -0.0014666196)
(-7.6912272e-05 0.0084969597 0.0019952094)
(0.0029580634 0.0065410247 0.0031047193)
(0.0025021855 0.011108681 0.0028107597)
(-0.0035080368 0.0091353275 0.0013164095)
(-0.0016564666 0.0079214587 0.0002622105)
(0.0015096826 0.0078826514 -0.0031861614)
(0.0036920355 0.010826384 -0.0032362223)
(-4.6736418e-05 0.0094868012 0.0010814375)
(0.0023885051 0.001158978 0.00096996217)
(0.0015466758 0.0076742053 0.0025258707)
(0.0019287885 0.0091291159 -0.00052596189)
(0.0049491436 0.0094935689 -0.0015287048)
(0.00067327015 0.012139151 0.0007005428)
(-0.0014858199 0.0029661286 0.00046248445)
(-0.0014618481 -0.0031691697 -0.0015335274)
(0.0020834105 0.01094707 -0.0026975739)
(-0.00058697519 0.011560736 0.00052874373)
(-0.0045413948 0.01051268 -0.0028857024)
(-0.00065413371 0.0098963421 -0.0011683092)
(0.0019557179 0.0089949116 -0.00024424261)
(0.0046461528 0.011688223 -0.0014309165)
(-0.0025228511 0.0068013536 -0.0016740029)
(-0.00094513067 -7.1345037e-05 -0.0011695226)
(-0.0017452265 0.007534265 0.00201873)
(-0.0022994712 -0.009938497 -0.0030522748)
(-0.0028743197 -0.007736922 -0.003708525)
(-0.0016064978 -0.003685466 -0.0022139613)
(-0.00025226996 -0.0044287296 -0.0023983573)
(-0.00049730673 -0.0065174531 -0.0039083373)
(-0.00054089036 -0.0045828034 -0.002978703)
(0.0017517846 -0.0024584607 -0.00066558047)
(0.0011418548 -0.008208722 -0.0028048427)
(-0.0020329619 -0.0093134273 -0.0028237092)
(-0.0018954713 -0.0038620111 0.00033958598)
(-0.0015763802 -0.0015512545 0.0017098977)
(-0.00050280371 -0.00041536849 -0.00069960199)
(0.0025440079 -0.00060494123 -0.001590342)
(0.0044301063 -0.0067210729 -3.8789421e-05)
(0.0025411487 -0.0099940078 -0.0013719463)
(-0.0019196587 -0.0088393391 -0.003982267)
(0.0010638306 0.0025668473 -0.0015367989)
(0.0025780972 -0.0030323808 -0.0022052543)
(0.0023968669 -0.0036953453 -0.002498887)
(0.0054839345 -0.0077903374 -0.0040289851)
(-0.0038734935 -0.011713558 -0.0028682849)
(-0.0072601542 -0.010454308 -0.0023842963)
(-0.0047714871 -0.0056753493 -0.0014191379)
(-0.0040646786 -0.0048303143 -0.0020873013)
(-0.00084113606 0.0028883164 -0.0021102631)
(0.0028287035 9.8145888e-05 -0.0010702611)
(0.0049263249 -0.0030235262 -0.0022934832)
(0.0064520904 -0.0077400293 -0.0036144066)
(0.0023771523 -0.010627057 -0.0039377168)
(-0.0034298797 -0.0031369378 -0.0020132204)
(-0.002671789 -0.013793382 -0.0017084007)
(-0.0012761097 -0.010123955 -0.0013541285)
(5.8328833e-05 -0.012712792 -0.0020700763)
(0.0013699112 -0.016643123 0.00096401376)
(0.0015085588 -0.016207827 0.0018985322)
(0.00065663647 -0.016649451 0.0010561355)
(-0.0010576343 -0.014620651 -0.00189603)
(-0.002925041 -0.013391783 -0.0025459761)
(-0.00044987044 -0.011160307 -0.0011099857)
(0.0028072834 -0.015367438 -0.002561239)
(0.0022909566 -0.014893964 -0.0022428814)
(0.00067799939 -0.015720071 -0.00098745345)
(-0.00022938455 -0.017772035 -0.0005884333)
(-0.0021356971 -0.013630239 0.0011740842)
(-0.00071675996 -0.011509381 -0.00081240724)
(0.0023710462 -0.010981153 -8.5648119e-05)
(0.0016676242 -0.013796396 0.0013906464)
(-0.0010397369 -0.018648134 0.0029077796)
(-0.00072207649 -0.018425591 -0.00042216172)
(-0.00072510666 -0.018490708 -0.0011930369)
(-0.00014536256 -0.015444917 0.00045790152)
(-0.0013072938 -0.015060049 -0.00093703679)
(-0.00079689232 -0.016444051 0.001539161)
(-0.00033750209 -0.015015862 0.0019481398)
(-0.0015879687 -0.017149742 0.0011675617)
(-0.0015205333 -0.016614365 5.3322609e-05)
(-0.0024405184 -0.01580761 0.00035933456)
(-0.0007815808 -0.011214403 0.00017726509)
(0.0017073267 -0.014941933 0.00068477292)
(-0.00088657685 -0.016761173 -0.00046089425)
(-0.0034980389 0.016138227 1.7485389e-05)
(0.0026594014 0.00034713271 0.00027401018)
(0.0015177686 0.0042554295 -0.0020027473)
(0.0059766724 0.015858632 0.0012898603)
(0.0051536394 0.017354915 0.0026443535)
(-0.00024661251 0.018182067 -0.00068743768)
(-0.0048337289 0.016544866 -0.0035751393)
(-0.0055327593 0.013978153 -0.0037478026)
(0.0003822967 0.00036728353 0.0012789945)
(0.0050729623 0.014081543 -0.0020225675)
(0.0056736456 0.016854905 -0.0031769496)
(0.0037564519 0.017732787 -0.0032349888)
(-0.002463562 0.019014405 -0.00016777013)
(-0.0058449024 0.013755142 0.0012929357)
(-0.0004520695 -0.0011978898 -0.0023828754)
(-0.00013510041 0.0027694614 -0.0012512479)
(0.0047572038 0.015270755 -0.0018509343)
(-0.0015202644 0.019926386 0.002290519)
(-0.0021549219 0.01996122 -0.0002569103)
(-0.00011549805 0.019246901 -0.001536697)
(-0.00030119715 0.017137511 0.0018104746)
(0.0005039503 0.016249482 -0.0014243318)
(0.0031166346 0.016252447 0.0013478854)
(0.0044324485 0.017267772 0.0021169445)
(0.00018164513 0.01854229 0.00034240525)
(-0.0045769871 0.018604368 -0.0010593758)
(-0.0045147065 0.017114734 -0.00043020554)
(-0.00025999207 0.0055216455 0.00084052968)
(0.0039752903 0.0165637 0.0010038813)
(0.002157529 0.018423258 0.0014389318)
(0.0032540371 -0.010028431 0.00081126641)
(0.004838711 -0.013820421 0.0001644373)
(-0.0024435717 -0.014423693 -0.0035086318)
(-0.00098718787 -0.0092152981 -0.0037134983)
(0.001677942 0.0027609824 2.9754699e-05)
(0.00029285706 0.0052833917 -4.6110227e-05)
(0.00033493714 -0.00031359373 0.001366746)
(0.0045932768 -0.011910769 0.0047153785)
(0.0018944724 -0.015995059 0.0049814406)
(-0.0038858204 -0.015121876 0.0021174173)
(0.0022455702 0.00027128022 -0.0019597064)
(0.0011354374 0.0041031093 -0.0030711289)
(-0.00050442489 0.0042223078 -0.0020394084)
(0.003788714 -0.011211436 -0.0063245879)
(0.0019909873 -0.014577419 -0.004300624)
(-0.0050784481 -0.01394778 -0.00086913221)
(-0.0036073564 -0.00600636 0.00063927777)
(-0.002817511 0.00075934084 0.0032434689)
(-0.0026071098 -0.0086768752 0.003757976)
(-0.0026274125 -0.0088806458 0.0031289622)
(0.0002797888 -0.0052422448 0.00099449921)
(0.0034177828 -0.015683632 -0.0040250559)
(-0.00019064434 -0.017925985 -0.0035040994)
(0.00048244987 -0.0001789867 -0.00012219109)
(0.00014889579 0.0053273589 -0.00031929811)
(-0.00029882153 0.0045526411 -0.00026301516)
(0.0041169732 -0.010885187 -0.0011289723)
(-0.0019298273 -0.014612005 0.00075778475)
(-0.0033916326 -0.0052643947 0.0022270387)
(-0.00012772032 0.0032689869 0.0018220824)
(0.00047880702 0.0056233262 0.0011561814)
(0.0029435267 0.0085162845 0.0034671132)
(-0.0019579833 0.010044 -0.0029245809)
(-0.0020765212 0.009254169 -0.0029194564)
(-0.00065953102 0.0078639328 -0.0014672908)
(9.1341301e-05 0.0094929274 -0.00029966675)
(0.0028152412 0.0071640799 0.0020163737)
(0.0038915809 0.0097470916 0.0034424852)
(0.0019098746 0.010163131 0.0024103325)
(-0.0039405698 0.01034439 -0.00081952197)
(-0.0021210915 0.0065306551 -0.0018744125)
(0.00014989286 0.0090352885 -0.002094924)
(0.0016103997 0.0090427765 -0.0035664756)
(0.0050543547 0.010139609 -0.0040205836)
(0.0043957737 0.010822776 -0.0027060957)
(-0.0021579657 0.010819272 -0.0011426075)
(-0.0033040769 0.0083560148 0.00079367763)
(0.0011762141 0.008410319 0.0026460115)
(0.0010028486 0.01107852 0.0011099859)
(-0.0036920793 0.0099526995 0.00050794654)
(-2.4031966e-05 0.0019274498 -0.0012428645)
(0.0021483003 0.0085761257 -0.004290994)
(-0.0039985876 0.011794864 -0.0023484574)
(-0.0036166351 0.0080900025 -0.0027631139)
(-0.0013137186 0.010374339 -0.00013998355)
(0.002175198 0.0088042207 0.00022115753)
(0.0035759073 0.010898135 -0.00098896074)
(-0.0050369077 0.0088423463 -0.00060638888)
(-0.0040536062 0.0066275049 0.00090580975)
(-0.0017277148 0.0086269564 0.0011587159)
(-0.0035668758 -0.0094227123 -0.0027242429)
(-0.0017973103 -0.0043646806 -0.0028150325)
(-0.0023271563 -0.0057315197 -0.0018383768)
(-0.0017422043 -0.005598174 -0.00041983326)
(-0.0015277613 0.00062412706 -0.00054603384)
(0.00060112063 0.0032664755 -0.00032712201)
(0.0029865452 -0.0013104964 0.0010984935)
(0.0024859522 -0.0046221657 0.0014229096)
(0.0020091981 -0.0035984543 0.0022869963)
(0.0015828154 -0.006743831 0.0031659068)
(0.00046185375 -0.0067078041 0.0038876226)
(-0.00037833428 -0.0015913474 0.00184638)
(0.0016906241 -0.0056659547 0.0031374811)
(-0.0019612095 -0.010599451 0.0021997279)
(-0.001056995 -0.0016685083 -0.0012694264)
(-5.923642e-05 0.00069913635 -0.0011487398)
(0.00095094227 -0.0089958743 0.0024147841)
(-0.0033145521 -0.0045112059 0.0024610569)
(-0.00014147338 0.0016422523 0.00037936001)
(0.0032419716 -0.0042050617 -0.0013975594)
(-0.0011495417 -0.010827386 -0.0015520031)
(-0.0066165399 -0.0095013498 -0.00041685864)
(-0.0045367309 -0.0037277936 -0.00045482249)
(-0.0038056599 -0.0014667592 -0.00045277748)
(-0.001495493 0.0029482473 0.00042830146)
(0.0022327447 0.0010548886 0.00061155081)
(0.003462563 -0.00047702987 -0.00024405939)
(0.0043073899 -0.0062153929 -0.00084057855)
(-0.00034133158 -0.0089149105 -0.0025050848)
(-0.002878049 0.00082705345 -6.6443444e-05)
(-0.0011878737 -0.016855703 -0.0010844311)
(-0.0019595331 -0.017775732 0.00072648637)
(-0.0034052771 -0.015207505 -2.311047e-05)
(-0.0040809312 -0.014461261 -0.0020109053)
(-0.0036639321 -0.014983313 -0.0016432783)
(-0.0045731867 -0.013801181 -0.00067821046)
(-0.0046376346 -0.011504162 -0.00015676986)
(-0.0029611295 -0.012687147 3.998155e-05)
(-3.5672182e-05 -0.013734682 -0.0002526309)
(0.0025684932 -0.012142639 -0.0021675565)
(0.0038050787 -0.012882036 -0.0030358563)
(0.0032055553 -0.013298404 -0.0031109872)
(0.0013534899 -0.016383768 -0.0020897307)
(-8.146343e-05 -0.016563107 2.3888302e-05)
(-0.0011666092 -0.017455935 0.0023208737)
(-0.0021040103 -0.017109451 0.0011349883)
(-0.0036581353 -0.015588523 0.00054276756)
(-0.0049773254 -0.01449563 0.00066449373)
(-0.0029286737 -0.012255752 -0.00010945858)
(0.0005428939 -0.013359603 -0.00071390625)
(0.00071596969 -0.014846819 -0.00044314938)
(-7.3615212e-05 -0.012799334 -0.0020522861)
(0.0024687427 -0.01385982 -0.0023480888)
(0.0017949986 -0.016415709 -0.0019563039)
(0.00021212977 -0.018071444 -0.00018216336)
(-0.00037280971 -0.015881975 -0.0023430752)
(-0.0024478505 -0.015962827 -0.0021919715)
(0.00078174429 -0.011331738 -0.00074854515)
(0.0030846131 -0.014436974 -0.0018622063)
(0.0005706559 -0.016374124 -0.0020658792)
(-0.0018813504 0.018320997 0.0020170276)
(-4.1427761e-05 0.018347091 0.0041087758)
(-0.00098937857 0.017320454 0.0019031271)
(-0.0016113598 0.016004472 -0.0037917737)
(-0.002534373 0.01715786 -0.0028967649)
(-0.0038048739 0.015921296 -5.7213565e-05)
(-0.0029999801 0.0066734978 0.00087072473)
(-0.002385575 -0.00051206742 0.0015450482)
(-0.0013331381 0.0011600337 0.00054860605)
(0.0024061125 0.0038647023 -0.00075130674)
(0.0037963886 0.0091260913 -0.0029359396)
(0.0045281577 0.014814614 -0.0044620571)
(0.0033062088 0.017860542 -0.003946685)
(-0.0019142283 0.018150143 0.0013257046)
(-0.0031596474 0.018647731 0.0041929823)
(-0.0024960963 0.01861769 0.0021234851)
(-0.0031219562 0.017398634 0.00024286215)
(-0.0049419028 0.015191708 0.0010887345)
(0.00062887268 -0.0026094907 0.00039404513)
(-0.00062234722 8.6778499e-05 -0.00091396488)
(0.0016898988 0.014526055 -0.00038972831)
(0.0020053715 0.0043778293 -0.0008597905)
(0.0052738586 0.008926813 -0.002007979)
(0.0069276392 0.01712638 -0.0023504022)
(1.8898802e-05 0.019296689 -0.0041593969)
(-0.0034779585 0.017169258 -0.0056172466)
(-0.0041686368 0.015562622 -0.0044809343)
(0.00047118504 -0.00031167712 -0.00039410082)
(0.0052913138 0.01529302 -0.0026968649)
(0.0043112657 0.018295126 -0.0026519626)
(0.00029809814 -0.0076422792 -0.0017985649)
(0.0023903724 -0.013266609 -0.0026498991)
(0.0018587974 -0.0071658888 -0.00056799511)
(0.0010553075 -0.0037694246 -0.00087113932)
(0.00092546654 -0.0022771635 -0.00080056953)
(0.0045730457 -0.0083271415 0.0017291733)
(0.0043024436 -0.013546073 0.00077014658)
(0.0025888493 -0.014821523 0.0021376074)
(-0.0029858116 -0.014932338 0.0007697793)
(-0.0039501865 -0.013610227 0.0019392947)
(-0.0033217052 -0.014161948 0.0028422964)
(-0.0038799614 -0.012636072 0.003200067)
(-0.0011328283 -0.0049885885 -0.0018758854)
(-0.00035401764 0.00041413362 -0.0016207038)
(0.0011350971 -0.009861812 -0.0025621743)
(-0.00062568499 -0.012164973 -0.0026537664)
(0.00073273436 -0.0093314551 -0.00030095502)
(0.0053216517 -0.014393839 0.0012785178)
(0.0046640348 -0.015566672 0.00089773612)
(-0.0039366554 -0.015552099 -0.00064125817)
(-0.0020473914 -0.014626265 2.825493e-05)
(0.0030655412 -0.014007761 0.0011893544)
(-0.0023523048 -0.014950023 -0.00031632935)
(0.0026488996 0.0008596227 -0.00084911863)
(0.0011657645 0.0059321155 -0.00096289801)
(0.00089917684 -0.0012548334 -0.00061821055)
(0.0043076192 -0.015182546 0.0019944023)
(-8.0404668e-06 -0.015342481 0.0014904888)
(-0.0051133347 -0.013807056 0.0027974094)
(0.0019478998 0.0039559124 -0.0005756334)
(0.0035864612 0.01020065 -0.0035574066)
(0.0016787717 0.013001263 -0.0033419428)
(-0.0029791507 0.0094295112 -0.00032294223)
(-0.00077330942 0.0080636769 -0.0015249373)
(0.0020264539 0.0075548661 0.000826408)
(0.0035252024 0.009208366 0.0011993879)
(0.0012755317 0.0085461345 -0.00039232088)
(0.0028187243 0.010154028 0.00046373085)
(0.0010341798 0.010805228 -0.00018892895)
(0.00033103767 0.00046683929 0.0016104096)
(-0.00031540557 0.00029654559 0.0040300707)
(-0.0018085175 0.0045774338 0.0042347501)
(-0.0028694088 0.0046745056 0.0036843577)
(0.00065225799 0.0027264983 -0.00047825455)
(0.0042513747 0.0098454422 -0.00082536566)
(0.001092833 0.012743624 -0.0012127171)
(0.0021470564 0.0067976417 0.00088599651)
(0.005444099 0.010153605 0.00076218183)
(0.0053204061 0.011868371 0.00024554234)
(0.00066906924 0.011882896 -0.0019646913)
(-0.00022855406 0.0049027212 -0.00057031538)
(0.00068883252 -0.0013072704 -0.0015123514)
(-0.0020775762 0.0042386933 -0.0020818861)
(-0.00024813389 0.0072599397 -0.0024735695)
(0.0018438032 0.0096748919 -0.00021624543)
(0.0051524825 0.0075443696 0.00070608917)
(0.0036379541 0.010888852 -3.2717444e-05)
(-0.00028300785 0.005433459 0.00079113612)
(-0.0032862534 0.010743053 0.0016748596)
(-0.0014314538 0.0082405535 0.00093868747)
(-0.0039482904 -0.010417612 -0.00052000871)
(0.0005804689 0.0027540866 -0.0016508684)
(0.0016147248 -0.0034381037 0.0013074955)
(0.001294307 -0.0082865537 0.00037511276)
(7.91326e-05 -0.0060619684 0.0014315197)
(0.0017613062 -0.0028220598 0.002848779)
(0.0026679516 -0.0072659081 0.0029253646)
(0.002571211 -0.0086322964 0.0036811862)
(0.0037967366 -0.0078348251 0.004496142)
(0.0036185842 -0.0088390848 0.0051475924)
(0.00076783459 -0.0093996475 0.004958626)
(-0.00025335498 -0.0089599627 0.0048582497)
(0.0001214656 -0.010130467 0.0045680486)
(-0.0022928927 -0.010723224 0.003910055)
(-0.0031613983 -0.011293031 0.0043894382)
(-0.0011663846 -0.0092675232 0.0037631382)
(0.00045199711 -0.012719227 0.0030292462)
(-0.00334166 -0.012215014 0.0023002179)
(0.0013891579 -0.0027088907 0.0014473869)
(0.0034915111 -0.0033802921 0.0013754031)
(0.0054147675 -0.0087750573 0.0006610243)
(0.00071864654 -0.010898852 -0.0004355969)
(-0.0035553234 -0.010081862 0.0010963678)
(-0.0032501523 -0.0029325724 0.0015209826)
(0.0011681493 0.0022111712 0.0019646159)
(0.0035916982 -0.0015849808 0.0029621898)
(0.0039430961 -0.0040882571 0.0037227623)
(0.0035985547 -0.0086626502 0.0043188306)
(-0.0030139732 -0.010303111 0.0035869212)
(-0.0014807888 0.00060761178 0.0023253517)
(-0.00074966917 -0.015340982 -0.001668376)
(-0.0025576836 -0.014166226 -0.0020430956)
(-0.0044493807 -0.012597985 -0.003255451)
(-0.0029688733 -0.011411405 -0.0033606333)
(-0.0012998952 -0.014799312 -0.0038072037)
(-0.0024690609 -0.016788392 -0.002536782)
(-0.0034858146 -0.016313289 -0.00040156035)
(-0.0038020409 -0.012704054 0.0015757608)
(-0.0026672345 -0.011920397 0.0014714287)
(-0.00048015552 -0.012330388 -0.00066516842)
(0.0017312219 -0.01242617 -0.0012559491)
(0.0026300577 -0.011363176 -0.00023682036)
(0.0024473891 -0.015780195 -0.00093951798)
(-0.00038940909 -0.016110097 0.00047931546)
(-0.0015645912 -0.018823142 0.0034507822)
(0.00079812502 -0.017801169 0.0033448567)
(-0.0017220106 -0.01407639 0.00040921311)
(-0.00057828462 -0.010549652 0.0018299448)
(0.001826101 -0.017598543 0.0023575352)
(-0.00057834416 -0.01730795 0.00095766412)
(-0.0032680349 -0.014450165 -0.0012682053)
(-0.0022383267 -0.011461422 -0.0022707411)
(-0.0016891756 -0.011852292 -0.0026179423)
(0.0013043094 -0.012160255 -0.0002173952)
(0.0024920076 -0.012260545 -0.0017619789)
(0.0017032099 -0.016301141 -0.0022248514)
(-0.0019772385 0.017304698 -0.0010099135)
(-0.0039117258 0.017029514 -0.0016924073)
(-0.0044505583 0.014451206 -0.0029672537)
(0.00087225828 0.0023528337 -0.0018641806)
(0.0024925298 0.01399531 -0.0036617145)
(0.0014777637 0.018329109 -0.001227881)
(-0.0051222908 0.016662256 0.0041420272)
(-0.0043179764 0.009573923 0.0038370735)
(-0.0028311386 0.0013048676 0.0025513234)
(-0.00084046957 -0.00050087255 0.00018631153)
(0.0021849065 0.00094754293 0.00075223629)
(0.0020551275 0.0025724882 0.0028684223)
(0.003706077 0.016586929 0.0017568293)
(-0.0025758777 0.01795028 0.0020358899)
(-0.0018235172 0.018610299 0.0062699939)
(-0.0003481433 0.0179688 0.0070202152)
(-0.0031083202 0.015860997 0.0034329979)
(0.0019257912 0.0016793313 0.00018673149)
(0.0047427848 0.01388361 0.0016767218)
(0.0022165144 0.018841315 -0.0012983391)
(-0.0049925408 0.01520151 -0.0045759173)
(-0.00053488216 0.0047061189 -0.0029991483)
(-0.00064665037 0.0029996722 -0.0023354284)
(0.0028948711 0.0015875868 1.6549893e-05)
(0.0037411332 0.0065804942 0.00060537595)
(0.0048116836 0.017038365 -0.0002110627)
(0.0014958746 0.00060926575 0.00044636395)
(0.00094234118 0.0013572934 0.00059499844)
(0.0038854068 -0.012013247 0.0016042041)
(0.00082658316 -0.01555552 0.0012493625)
(-0.0058106593 -0.013371361 -0.00010660259)
(-0.00030975075 0.0030853058 -0.00096100311)
(-0.0016506559 0.00019849126 -0.00023326004)
(0.0033510229 -0.01206547 -0.0042162766)
(0.00069540394 -0.013478106 -0.0016126097)
(0.00025692907 -0.013532887 -0.00034783872)
(4.8857065e-05 -0.013342463 0.0022228222)
(-0.0024478952 -0.013996655 0.0036219743)
(-0.0020147551 -0.01117012 0.0029390122)
(-0.0011199733 0.0016022739 0.0004625614)
(0.0022040927 -0.01683683 -0.004841892)
(-5.6232506e-05 -0.014750404 -0.0050613576)
(0.0036662814 -0.012323469 -0.0033996803)
(0.0045978667 -0.013858944 -0.0038083101)
(-0.0033175509 -0.016675776 -0.0021745256)
(0.0023163347 0.0023440098 -0.00042193381)
(0.0041702087 -0.009200253 0.0027518844)
(0.0041669199 -0.014223623 0.001206017)
(0.0010999149 -0.013885895 0.0010720499)
(0.00090480055 -0.014054588 0.0017964604)
(-0.0025204441 -0.013861525 0.0028214538)
(0.0011548302 -0.0056813431 0.0001534412)
(0.001945407 0.0058973699 -0.00080719305)
(0.0039512649 0.0061273759 -0.00075474431)
(0.0053803338 0.0094414527 -0.0014086498)
(0.0027806617 0.0096562041 -0.0019407554)
(-0.004625672 0.010399897 -0.001941071)
(-0.0025248067 0.0078709615 -0.0014788598)
(0.0013229642 0.0078387808 -0.0029033299)
(0.0033292534 0.004073385 -0.0030702122)
(0.0013330375 -0.0011750081 0.00023544892)
(0.00085564224 -0.0031042587 -0.00093053659)