/*--------------------------------*- C++ -*----------------------------------*\
| =========                 |                                                 |
| \\      /  F ield         | OpenFOAM: The Open Source CFD Toolbox           |
|  \\    /   O peration     | Version:  v2012                                 |
|   \\  /    A nd           | Website:  www.openfoam.com                      |
|    \\/     M anipulation  |                                                 |
\*---------------------------------------------------------------------------*/
FoamFile
{
    version     2.0;
    format      ascii;
    class       volScalarField;
    location    "600/bottomWater";
    object      p;
}
// * * * * * * * * * * * * * * * * * * * * * * * * * * * * * * * * * * * * * //

dimensions      [1 -1 -2 0 0 0 0];


internalField   nonuniform List<scalar> 
1460
(
353.44191
353.45027
353.44238
353.45205
353.45598
353.45339
353.44649
353.45179
353.46335
353.48531
353.44948
353.47542
353.46224
353.47317
353.46602
353.44032
353.45608
353.4408
353.47256
353.45237
353.45476
353.45048
353.44888
353.44516
353.45086
353.44802
353.44209
353.4663
353.4636
353.4652
274.43478
274.43432
274.43589
274.40745
274.41355
274.41396
274.42267
274.44256
274.48152
274.47393
274.42884
274.41105
274.42542
274.47155
274.46991
274.43045
274.42417
274.45331
274.46312
274.41926
274.4113
274.43137
274.42745
274.41459
274.4171
274.41504
274.43203
274.47315
274.45564
274.43112
196.30175
196.29414
196.28798
196.30462
196.33023
196.30697
196.27868
196.27238
196.26504
196.24693
196.29113
196.31417
196.30548
196.27238
196.26752
196.29276
196.2972
196.28528
196.25411
196.28458
196.29321
196.29311
196.27917
196.29497
196.31743
196.2818
196.26445
196.24922
196.27583
196.29084
117.63882
117.62407
117.62373
117.67037
117.67609
117.66453
117.64234
117.6624
117.66403
117.64768
117.64152
117.69917
117.6878
117.68467
117.68473
117.682
117.68905
117.64779
117.66208
117.65691
117.67919
117.65644
117.64168
117.67541
117.68668
117.67763
117.62861
117.66755
117.64971
117.64302
39.26822
39.285695
39.268433
39.270112
39.268883
39.253163
39.25269
39.236283
39.241019
39.250969
39.250388
39.249771
39.241507
39.230844
39.228453
39.226444
39.226497
39.248932
39.263958
39.253155
39.257547
39.276859
39.272619
39.243025
39.249118
39.236653
39.238353
39.237668
39.222989
39.250563
353.44612
353.43368
353.4687
353.45525
353.46266
353.45994
353.45529
353.45688
353.46292
353.4571
353.46131
353.47623
353.46917
353.47006
353.45991
353.4512
353.45207
353.45967
353.45606
353.45751
353.45735
353.45607
353.46677
353.43695
353.45505
353.45084
353.44365
353.46578
353.46633
353.46711
274.42797
274.43231
274.45334
274.41541
274.40179
274.4124
274.40603
274.41205
274.43829
274.42718
274.43071
274.46186
274.4752
274.50261
274.4566
274.43006
274.41356
274.46409
274.4399
274.40963
274.41101
274.44575
274.45867
274.41637
274.41742
274.41883
274.42952
274.45125
274.44483
274.41016
196.31169
196.2875
196.2417
196.28014
196.28926
196.3074
196.29837
196.28345
196.27145
196.28284
196.28769
196.25039
196.25553
196.25333
196.25283
196.28008
196.31743
196.24762
196.26822
196.28111
196.28033
196.24573
196.23089
196.25337
196.2811
196.27857
196.28176
196.26528
196.25582
196.29406
117.66469
117.6183
117.64356
117.61642
117.66608
117.67272
117.66045
117.65784
117.6366
117.6485
117.66813
117.68973
117.66798
117.65743
117.65234
117.66459
117.66702
117.64998
117.64402
117.67884
117.68075
117.65636
117.65872
117.6446
117.6828
117.67784
117.65669
117.66569
117.62725
117.6599
39.232926
39.244154
39.265906
39.265295
39.248382
39.240712
39.232284
39.237004
39.243851
39.224961
39.220342
39.21994
39.220591
39.232319
39.233664
39.223173
39.221
39.252969
39.262569
39.255857
39.256257
39.266399
39.265154
39.241847
39.23092
39.225797
39.22745
39.219528
39.228308
39.234428
353.45084
353.44007
353.46248
353.46763
353.4597
353.46028
353.4644
353.45977
353.45847
353.46207
353.46051
353.45904
353.45477
353.47234
353.45569
353.45956
353.45984
353.46615
353.46782
353.46709
353.45779
353.47571
353.48025
353.44269
353.44769
353.4493
353.44139
353.46812
353.46934
353.46925
274.43421
274.41934
274.47583
274.48824
274.43194
274.43686
274.4725
274.46139
274.42766
274.39919
274.40109
274.40574
274.42568
274.46143
274.42728
274.41123
274.43588
274.44381
274.41197
274.40757
274.41208
274.49338
274.48329
274.42124
274.43293
274.43123
274.42437
274.46246
274.44773
274.40605
196.3194
196.28849
196.24829
196.25157
196.26549
196.29412
196.23104
196.25623
196.26867
196.28866
196.31334
196.28835
196.27492
196.22706
196.28166
196.25677
196.31375
196.23615
196.31082
196.28198
196.25528
196.23993
196.23055
196.26017
196.2792
196.29985
196.28957
196.24868
196.25874
196.28918
117.69415
117.64565
117.64522
117.63704
117.63694
117.65063
117.64593
117.63751
117.65074
117.68278
117.67656
117.6703
117.64361
117.64858
117.6265
117.67096
117.63795
117.65222
117.66244
117.68035
117.63804
117.6558
117.65469
117.64077
117.65253
117.67895
117.65012
117.63444
117.62249
117.66424
39.238487
39.220746
39.24279
39.252838
39.235474
39.234634
39.250901
39.261864
39.2419
39.23933
39.236099
39.221228
39.245096
39.260581
39.271411
39.239417
39.265703
39.244299
39.259934
39.267216
39.260552
39.259547
39.26253
39.240891
39.22266
39.227838
39.223111
39.230736
39.249338
39.248838
353.45223
353.44298
353.46154
353.44528
353.46579
353.46888
353.46487
353.47077
353.46725
353.46797
353.46773
353.47115
353.45654
353.45271
353.45523
353.4562
353.45531
353.45531
353.45517
353.46
353.4456
353.47116
353.46454
353.46128
353.4656
353.46734
353.45854
353.48437
353.47038
353.47432
274.4243
274.4255
274.44719
274.44566
274.46661
274.48231
274.47697
274.46946
274.4288
274.3947
274.39833
274.44643
274.42906
274.39784
274.408
274.40502
274.42218
274.42505
274.41074
274.41084
274.4201
274.45715
274.43141
274.41381
274.45379
274.45938
274.45943
274.479
274.41381
274.40318
196.31174
196.29125
196.28749
196.31204
196.26517
196.2665
196.25894
196.23725
196.24241
196.27216
196.32366
196.23315
196.30031
196.25964
196.32411
196.31361
196.32969
196.30286
196.32352
196.29193
196.26087
196.21974
196.27946
196.25916
196.26353
196.27086
196.26691
196.25067
196.26037
196.296
117.6818
117.65711
117.66004
117.65772
117.67899
117.69035
117.65066
117.64341
117.6321
117.66747
117.6745
117.64823
117.66674
117.67524
117.68073
117.67571
117.62275
117.62209
117.66006
117.67152
117.64685
117.66007
117.64892
117.66776
117.67247
117.6672
117.61875
117.63955
117.60427
117.67631
39.232535
39.227651
39.221592
39.222999
39.219442
39.220201
39.208696
39.241068
39.254376
39.249234
39.249041
39.250024
39.253361
39.254248
39.269707
39.264476
39.29465
39.29113
39.254968
39.251623
39.254939
39.245778
39.258809
39.228791
39.22915
39.225649
39.218811
39.252916
39.265427
39.268129
353.45798
353.45059
353.45662
353.4644
353.45984
353.46978
353.46606
353.46407
353.46401
353.47085
353.46586
353.47374
353.45318
353.45231
353.45254
353.45757
353.44456
353.469
353.46487
353.46529
353.46647
353.46806
353.46436
353.47684
353.46899
353.47477
274.41322
274.41712
274.44805
274.49179
274.47836
274.46946
274.43886
274.41572
274.39833
274.39558
274.40118
274.44109
274.43961
274.43121
274.41105
274.41324
274.42008
274.43931
274.39925
274.42185
274.44754
274.46871
274.46586
274.44852
274.38722
274.40539
196.3086
196.26721
196.25937
196.24187
196.2775
196.2706
196.28072
196.26832
196.29174
196.30912
196.31849
196.24442
196.3019
196.27992
196.2845
196.28303
196.27978
196.25266
196.29849
196.27549
196.26644
196.26485
196.26252
196.24877
196.2679
196.3309
117.66633
117.6239
117.63748
117.63768
117.65669
117.68031
117.65885
117.6248
117.64399
117.66584
117.66014
117.64935
117.67505
117.64258
117.66262
117.6739
117.65191
117.66622
117.69756
117.65562
117.68058
117.66164
117.63563
117.62435
117.63946
117.67866
39.25547
39.252181
39.2479
39.240622
39.21269
39.226489
39.221815
39.240549
39.248958
39.26415
39.265907
39.266054
39.256832
39.234355
39.228182
39.22839
39.223246
39.207658
39.22635
39.227701
39.227115
39.224563
39.225345
39.251052
39.256774
39.275167
353.4656
353.45741
353.45491
353.47531
353.4675
353.46398
353.45943
353.45713
353.46167
353.4667
353.46604
353.46274
353.46817
353.46693
353.45827
353.45698
353.47837
353.47041
353.47043
353.46886
353.47443
353.47389
353.46866
353.47465
353.46775
353.47198
274.41478
274.41066
274.4603
274.50712
274.46858
274.42527
274.40998
274.40265
274.39803
274.39788
274.40039
274.40155
274.44475
274.46845
274.42931
274.44345
274.44793
274.41168
274.39512
274.40385
274.43121
274.46582
274.46253
274.44427
274.40243
274.39974
196.32975
196.2752
196.26208
196.24839
196.25504
196.29153
196.28481
196.28538
196.30941
196.32707
196.32198
196.27915
196.26974
196.27999
196.29311
196.2972
196.24675
196.28616
196.2938
196.28214
196.24379
196.26627
196.26624
196.24602
196.26437
196.30522
117.68182
117.64153
117.63239
117.64788
117.63629
117.66568
117.65859
117.64908
117.66049
117.67336
117.68504
117.64681
117.67536
117.67833
117.66315
117.65475
117.65031
117.65127
117.6808
117.66058
117.63816
117.67955
117.65612
117.62958
117.62691
117.67529
39.279261
39.264128
39.262038
39.260384
39.238814
39.230311
39.23571
39.244397
39.256785
39.266683
39.272988
39.27187
39.261076
39.227739
39.220003
39.228533
39.252816
39.258101
39.264897
39.250536
39.242444
39.236984
39.230231
39.248125
39.260524
39.268545
353.46702
353.46048
353.46852
353.47507
353.45099
353.46558
353.44755
353.47508
353.46493
353.46768
353.47157
353.47022
353.46848
353.46612
353.48086
353.46694
353.4804
353.46037
353.47792
353.47265
353.46322
353.46872
353.46885
353.46355
353.46258
353.47458
353.4714
353.47783
353.46824
353.47311
274.41158
274.40005
274.46443
274.4689
274.42048
274.42514
274.43519
274.45234
274.40932
274.39126
274.39866
274.39684
274.39784
274.42008
274.4639
274.47482
274.48586
274.43116
274.47596
274.4597
274.41319
274.40209
274.39826
274.4054
274.439
274.4876
274.47737
274.44839
274.40952
274.40033
196.32398
196.26737
196.26361
196.24815
196.29842
196.31544
196.28709
196.25915
196.27451
196.29117
196.31173
196.29464
196.27274
196.25739
196.23607
196.27512
196.26809
196.28988
196.25375
196.24308
196.25692
196.2752
196.30955
196.27032
196.24948
196.22537
196.27044
196.24734
196.25024
196.28512
117.67774
117.64352
117.64294
117.64575
117.66321
117.68692
117.64382
117.64185
117.62774
117.67275
117.68833
117.68521
117.67086
117.64064
117.6455
117.66695
117.68003
117.6527
117.64054
117.64163
117.62716
117.66562
117.67582
117.65424
117.65085
117.65037
117.67077
117.66218
117.61651
117.67805
39.274694
39.26136
39.263999
39.254102
39.238386
39.236876
39.237618
39.262878
39.261992
39.265245
39.274374
39.268005
39.255013
39.257485
39.244535
39.22716
39.234746
39.234031
39.255112
39.253273
39.256493
39.253419
39.270486
39.254126
39.256097
39.248946
39.228492
39.237147
39.252897
39.257239
353.4628
353.45253
353.47541
353.45948
353.47526
353.47092
353.47888
353.46845
353.46519
353.46299
353.45721
353.46291
353.46844
353.47168
353.47199
353.46841
353.48256
353.48113
353.46718
353.47024
353.46837
353.47015
353.47009
353.46676
353.46576
353.47076
353.47574
353.47379
353.47068
353.47401
274.41058
274.4172
274.47223
274.43425
274.47364
274.46948
274.46636
274.41798
274.40591
274.3984
274.41258
274.41526
274.39645
274.39932
274.41948
274.447
274.46304
274.4593
274.41871
274.40536
274.39081
274.39714
274.39446
274.39458
274.41047
274.44371
274.46447
274.43862
274.40276
274.3999
196.2939
196.26749
196.25666
196.29301
196.26441
196.26594
196.22532
196.24832
196.29135
196.29365
196.29119
196.28809
196.29182
196.28839
196.26528
196.28375
196.26102
196.25407
196.26069
196.28678
196.28623
196.32445
196.32764
196.30555
196.27529
196.25039
196.26116
196.24948
196.26078
196.30773
117.6757
117.61916
117.63889
117.64683
117.66926
117.67672
117.65894
117.65823
117.67207
117.67486
117.63742
117.63158
117.67414
117.67579
117.64694
117.66816
117.66614
117.66213
117.64032
117.65267
117.67764
117.68753
117.68533
117.67597
117.64451
117.66304
117.66832
117.65975
117.63902
117.68124
39.26416
39.264708
39.255961
39.237531
39.228861
39.232155
39.238585
39.241494
39.246066
39.254298
39.283174
39.273945
39.252368
39.251653
39.24485
39.230929
39.230042
39.230086
39.248667
39.252117
39.261074
39.272784
39.276
39.265115
39.259912
39.249387
39.226976
39.248096
39.254577
39.265613
353.46388
353.46021
353.46987
353.46936
353.45518
353.47669
353.4711
353.47489
353.47349
353.46396
353.48038
353.47532
353.47214
353.46664
353.46785
353.46782
353.47146
353.46635
353.46311
353.46758
353.45477
353.46732
353.46233
353.46895
353.46828
353.46648
353.46248
353.48603
353.47406
353.47778
274.40874
274.42299
274.45953
274.4566
274.42702
274.44556
274.39828
274.39452
274.40566
274.39816
274.45569
274.46758
274.43202
274.41926
274.4028
274.39816
274.41984
274.40253
274.38944
274.40598
274.40894
274.42355
274.39864
274.39577
274.39447
274.41087
274.41112
274.45143
274.41752
274.40147
196.28977
196.25605
196.26607
196.28973
196.31343
196.26346
196.28633
196.3001
196.28621
196.25817
196.23915
196.25066
196.25941
196.27284
196.27121
196.29237
196.3118
196.30529
196.29272
196.31416
196.29414
196.26254
196.29966
196.309
196.29722
196.26584
196.2992
196.23806
196.25454
196.28013
117.66838
117.63182
117.66426
117.66614
117.64053
117.61984
117.60507
117.66554
117.68824
117.65218
117.65018
117.65814
117.66259
117.65088
117.65384
117.65934
117.6137
117.61643
117.65185
117.66609
117.65913
117.63321
117.64994
117.67816
117.65648
117.65212
117.64939
117.64444
117.61092
117.67718
39.24651
39.246519
39.231476
39.231509
39.234432
39.256093
39.266572
39.269889
39.255356
39.23863
39.247417
39.232649
39.223422
39.232193
39.233908
39.2454
39.282361
39.286702
39.250095
39.243151
39.252453
39.265723
39.262033
39.266691
39.248702
39.243662
39.226254
39.240071
39.253359
39.256632
353.45924
353.45561
353.45482
353.4656
353.47369
353.47508
353.47316
353.46758
353.46372
353.46918
353.47284
353.47729
353.47749
353.46929
353.47325
353.46282
353.47448
353.47324
353.46804
353.47742
353.47166
353.4755
353.46554
353.46694
353.47014
353.47312
353.47503
353.478
353.47841
353.47711
274.41391
274.4245
274.42933
274.45647
274.46006
274.39546
274.39863
274.41309
274.42536
274.45982
274.48592
274.49686
274.48548
274.46371
274.4544
274.41859
274.4041
274.40389
274.42916
274.45034
274.46821
274.47773
274.44623
274.41312
274.42965
274.45466
274.47441
274.46856
274.44151
274.40821
196.31299
196.27224
196.29519
196.26624
196.26354
196.29775
196.30859
196.29836
196.2589
196.26347
196.2728
196.27285
196.26796
196.26616
196.25004
196.26103
196.27815
196.28048
196.27882
196.26573
196.26739
196.26643
196.26767
196.26942
196.28604
196.25027
196.26591
196.26478
196.23052
196.27365
117.67067
117.64008
117.66786
117.6496
117.62676
117.64537
117.66749
117.67025
117.64454
117.66269
117.67605
117.69147
117.68568
117.63918
117.63267
117.61039
117.68463
117.69092
117.60606
117.64898
117.66686
117.68608
117.65031
117.6752
117.62587
117.65866
117.67169
117.68218
117.62491
117.66833
39.251078
39.244767
39.233207
39.232749
39.241914
39.25432
39.274071
39.264929
39.262415
39.240885
39.234742
39.242067
39.231868
39.221834
39.246556
39.267338
39.277023
39.278689
39.266896
39.24152
39.243228
39.250146
39.250255
39.246557
39.258776
39.2341
39.225219
39.225736
39.236987
39.238841
)
;

boundaryField
{
    minX
    {
        type            calculated;
        value           nonuniform List<scalar> 
50
(
353.44191
274.43478
196.30175
117.63882
39.26822
353.44612
274.42797
196.31169
117.66469
39.232926
353.45084
274.43421
196.3194
117.69415
39.238487
353.45223
274.4243
196.31174
117.6818
39.232535
353.45798
274.41322
196.3086
117.66633
39.25547
353.4656
274.41478
196.32975
117.68182
39.279261
353.46702
274.41158
196.32398
117.67774
39.274694
353.4628
274.41058
196.2939
117.6757
39.26416
353.46388
274.40874
196.28977
117.66838
39.24651
353.45924
274.41391
196.31299
117.67067
39.251078
)
;
    }
    maxX
    {
        type            calculated;
        value           nonuniform List<scalar> 
50
(
353.4652
274.43112
196.29084
117.64302
39.250563
353.46711
274.41016
196.29406
117.6599
39.234428
353.46925
274.40605
196.28918
117.66424
39.248838
353.47432
274.40318
196.296
117.67631
39.268129
353.47477
274.40539
196.3309
117.67866
39.275167
353.47198
274.39974
196.30522
117.67529
39.268545
353.47311
274.40033
196.28512
117.67805
39.257239
353.47401
274.3999
196.30773
117.68124
39.265613
353.47778
274.40147
196.28013
117.67718
39.256632
353.47711
274.40821
196.27365
117.66833
39.238841
)
;
    }
    minY
    {
        type            calculated;
        value           nonuniform List<scalar> 
292
(
392.4
392.4
392.4
392.4
392.4
392.4
392.4
392.4
392.4
392.4
392.4
392.4
392.4
392.4
392.4
392.4
392.4
392.4
392.4
392.4
392.4
392.4
392.4
392.4
392.4
392.4
392.4
392.4
392.4
392.4
392.4
392.4
392.4
392.4
392.4
392.4
392.4
392.4
392.4
392.4
392.4
392.4
392.4
392.4
392.4
392.4
392.4
392.4
392.4
392.4
392.4
392.4
392.4
392.4
392.4
392.4
392.4
392.4
392.4
392.4
392.4
392.4
392.4
392.4
392.4
392.4
392.4
392.4
392.4
392.4
392.4
392.4
392.4
392.4
392.4
392.4
392.4
392.4
392.4
392.4
392.4
392.4
392.4
392.4
392.4
392.4
392.4
392.4
392.4
392.4
392.4
392.4
392.4
392.4
392.4
392.4
392.4
392.4
392.4
392.4
392.4
392.4
392.4
392.4
392.4
392.4
392.4
392.4
392.4
392.4
392.4
392.4
392.4
392.4
392.4
392.4
392.4
392.4
392.4
392.4
392.4
392.4
392.4
392.4
392.4
392.4
392.4
392.4
392.4
392.4
392.4
392.4
392.4
392.4
392.4
392.4
392.4
392.4
392.4
392.4
392.4
392.4
392.4
392.4
392.4
392.4
392.4
392.4
392.4
392.4
392.4
392.4
392.4
392.4
392.4
392.4
392.4
392.4
392.4
392.4
392.4
392.4
392.4
392.4
392.4
392.4
392.4
392.4
392.4
392.4
392.4
392.4
392.4
392.4
392.4
392.4
392.4
392.4
392.4
392.4
392.4
392.4
392.4
392.4
392.4
392.4
392.4
392.4
392.4
392.4
392.4
392.4
392.4
392.4
392.4
392.4
392.4
392.4
392.4
392.4
392.4
392.4
392.4
392.4
392.4
392.4
392.4
392.4
392.4
392.4
392.4
392.4
392.4
392.4
392.4
392.4
392.4
392.4
392.4
392.4
392.4
392.4
392.4
392.4
392.4
392.4
392.4
392.4
392.4
392.4
392.4
392.4
392.4
392.4
392.4
392.4
392.4
392.4
392.4
392.4
392.4
392.4
392.4
392.4
392.4
392.4
392.4
392.4
392.4
392.4
392.4
392.4
392.4
392.4
392.4
392.4
392.4
392.4
392.4
392.4
392.4
392.4
392.4
392.4
392.4
392.4
392.4
392.4
392.4
392.4
392.4
392.4
392.4
392.4
392.4
392.4
392.4
392.4
392.4
392.4
392.4
392.4
392.4
392.4
392.4
392.4
392.4
392.4
392.4
392.4
392.4
392.4
)
;
    }
    minZ
    {
        type            calculated;
        value           nonuniform List<scalar> 
150
(
353.44191
274.43478
196.30175
117.63882
39.26822
353.45027
274.43432
196.29414
117.62407
39.285695
353.44238
274.43589
196.28798
117.62373
39.268433
353.45205
274.40745
196.30462
117.67037
39.270112
353.45598
274.41355
196.33023
117.67609
39.268883
353.45339
274.41396
196.30697
117.66453
39.253163
353.44649
274.42267
196.27868
117.64234
39.25269
353.45179
274.44256
196.27238
117.6624
39.236283
353.46335
274.48152
196.26504
117.66403
39.241019
353.48531
274.47393
196.24693
117.64768
39.250969
353.44948
274.42884
196.29113
117.64152
39.250388
353.47542
274.41105
196.31417
117.69917
39.249771
353.46224
274.42542
196.30548
117.6878
39.241507
353.47317
274.47155
196.27238
117.68467
39.230844
353.46602
274.46991
196.26752
117.68473
39.228453
353.44032
274.43045
196.29276
117.682
39.226444
353.45608
274.42417
196.2972
117.68905
39.226497
353.4408
274.45331
196.28528
117.64779
39.248932
353.47256
274.46312
196.25411
117.66208
39.263958
353.45237
274.41926
196.28458
117.65691
39.253155
353.45476
274.4113
196.29321
117.67919
39.257547
353.45048
274.43137
196.29311
117.65644
39.276859
353.44888
274.42745
196.27917
117.64168
39.272619
353.44516
274.41459
196.29497
117.67541
39.243025
353.45086
274.4171
196.31743
117.68668
39.249118
353.44802
274.41504
196.2818
117.67763
39.236653
353.44209
274.43203
196.26445
117.62861
39.238353
353.4663
274.47315
196.24922
117.66755
39.237668
353.4636
274.45564
196.27583
117.64971
39.222989
353.4652
274.43112
196.29084
117.64302
39.250563
)
;
    }
    maxZ
    {
        type            calculated;
        value           nonuniform List<scalar> 
150
(
353.45924
274.41391
196.31299
117.67067
39.251078
353.45561
274.4245
196.27224
117.64008
39.244767
353.45482
274.42933
196.29519
117.66786
39.233207
353.4656
274.45647
196.26624
117.6496
39.232749
353.47369
274.46006
196.26354
117.62676
39.241914
353.47508
274.39546
196.29775
117.64537
39.25432
353.47316
274.39863
196.30859
117.66749
39.274071
353.46758
274.41309
196.29836
117.67025
39.264929
353.46372
274.42536
196.2589
117.64454
39.262415
353.46918
274.45982
196.26347
117.66269
39.240885
353.47284
274.48592
196.2728
117.67605
39.234742
353.47729
274.49686
196.27285
117.69147
39.242067
353.47749
274.48548
196.26796
117.68568
39.231868
353.46929
274.46371
196.26616
117.63918
39.221834
353.47325
274.4544
196.25004
117.63267
39.246556
353.46282
274.41859
196.26103
117.61039
39.267338
353.47448
274.4041
196.27815
117.68463
39.277023
353.47324
274.40389
196.28048
117.69092
39.278689
353.46804
274.42916
196.27882
117.60606
39.266896
353.47742
274.45034
196.26573
117.64898
39.24152
353.47166
274.46821
196.26739
117.66686
39.243228
353.4755
274.47773
196.26643
117.68608
39.250146
353.46554
274.44623
196.26767
117.65031
39.250255
353.46694
274.41312
196.26942
117.6752
39.246557
353.47014
274.42965
196.28604
117.62587
39.258776
353.47312
274.45466
196.25027
117.65866
39.2341
353.47503
274.47441
196.26591
117.67169
39.225219
353.478
274.46856
196.26478
117.68218
39.225736
353.47841
274.44151
196.23052
117.62491
39.236987
353.47711
274.40821
196.27365
117.66833
39.238841
)
;
    }
    bottomWater_to_rightSolid
    {
        type            calculated;
        value           nonuniform List<scalar> 
130
(
0.008931796
0.023958119
0.013155222
0.017547122
0.036858837
0.032618974
0.0030247425
0.0091180106
-0.0033472982
-0.0016465339
-0.0023318973
-0.017010653
0.01056261
0.012968729
0.022569109
0.015857111
0.016257141
0.026399088
0.025154374
0.001846743
-0.0090796113
-0.014203486
-0.012549588
-0.020471955
-0.011691725
-0.00557201
0.0042989579
0.019934411
0.027216055
0.020551964
0.019546601
0.022529684
0.00089127817
-0.017339847
-0.012162301
-0.016889359
-0.0092640081
0.0093380175
0.0088378907
0.051129703
0.014967766
0.011622816
0.014938777
0.005777864
0.018808655
-0.011208586
-0.010849651
-0.014350822
-0.021189451
0.012915827
0.025427309
0.028129452
-0.0056454133
-0.011817655
-0.0116103
-0.016753684
-0.032341683
-0.013649719
-0.012299183
-0.012884621
-0.015436965
-0.014654823
0.011051596
0.016774179
0.035167128
-0.012260851
-0.019996602
-0.011467441
0.012816078
0.018100585
0.024896848
0.010535905
0.0024440363
-0.0030156021
-0.0097693913
0.0081247904
0.020524367
0.028544815
-0.0059688639
0.015111673
0.01327311
0.016493115
0.013418749
0.030485816
0.014126085
0.016096537
0.0089464989
-0.01150775
-0.0028530733
0.012897262
0.017239319
-0.0099141808
0.008667127
0.012116805
0.02107364
0.032784476
0.035999863
0.025114508
0.019912057
0.0093869355
-0.013024488
0.0080955181
0.014576592
0.025612894
0.046701727
0.010094719
0.0031505162
0.012453261
0.025723384
0.0220333
0.026690761
0.0087015068
0.0036617069
-0.013746199
7.0602917e-05
0.013358927
0.016631953
0.038689282
0.02689604
0.0015204448
0.0032278928
0.010145514
0.010254711
0.0065567369
0.018776184
-0.0059003017
-0.014780664
-0.0142641
-0.0030128651
-0.0011591136
)
;
    }
    bottomWater_to_leftSolid
    {
        type            calculated;
        value           nonuniform List<scalar> 
130
(
0.028220373
0.04569513
0.028432857
0.030111941
0.02888283
0.013162761
0.012690265
-0.0037171359
0.001018788
0.010969056
0.010388057
0.0097711882
0.0015069758
-0.007073603
0.0041543421
0.025906095
0.025295183
0.0083819306
0.00071229527
-0.0077163096
-0.0029960795
0.0038506236
-0.015038622
-0.019657692
-0.020060104
-0.019409007
-0.0015129993
-0.019254296
0.002790271
0.012837647
-0.0045263083
-0.0053658196
0.010900922
0.021863965
0.0019001685
-0.00066996981
-0.0039012181
-0.018772389
0.0050962076
-0.0074654287
-0.012348778
-0.018408402
-0.017000651
-0.02055775
-0.019798715
-0.031303534
0.001067817
0.014376434
0.0092344382
0.0090411486
0.010024264
0.013361326
0.015470312
0.012181247
0.0079003908
0.00062206744
-0.027309978
-0.013510912
-0.018184764
0.00054944352
0.0089584449
0.024149802
0.02590699
0.026054275
0.01683227
0.039261141
0.024127822
0.022038476
0.020383608
-0.0011855212
-0.0096892815
-0.0042900945
0.0043968422
0.01678548
0.026683396
0.032987774
0.031869934
0.021076242
0.034694426
0.021359977
0.02399928
0.014101884
-0.0016135761
-0.0031235079
-0.002381798
0.022877887
0.021992215
0.025245449
0.034373899
0.028005167
0.015012538
0.024160203
0.024708279
0.015960771
-0.0024694001
-0.011139498
-0.0078446331
-0.0014145706
0.0014938288
0.0060655966
0.014298361
0.04317358
0.033945375
0.012368007
0.0065099014
0.0065185605
-0.0085238699
-0.0084911211
-0.0055679448
0.016092533
0.026572043
0.029889092
0.015355865
-0.0013700183
0.0074169869
-0.0073508279
-0.016577562
0.01107768
0.0047673317
-0.0067925831
-0.007251491
0.001914447
0.014320348
0.034071455
0.024929291
0.022414665
0.00088503928
-0.0052581966
0.0020667636
-0.0081321602
)
;
    }
    bottomWater_to_heater
    {
        type            calculated;
        value           nonuniform List<scalar> 
92
(
-0.0091556709
-0.011546676
-0.013555707
-0.013503051
-0.0076805097
-0.0063362427
-0.016826833
-0.019000085
0.020580587
0.031411007
-0.00058299363
0.025703081
353.45271
353.45523
353.4562
353.45531
274.39784
274.408
274.40502
274.42218
196.25964
196.32411
196.31361
196.32969
117.67524
117.68073
117.67571
117.62275
0.014248172
39.254248
0.029706612
39.269707
0.024476125
39.264476
0.054650337
39.29465
353.45318
353.45231
274.43961
274.43121
196.3019
196.27992
117.67505
117.64258
39.256832
39.234355
353.46817
353.46612
353.48086
353.46694
353.46693
353.4804
274.44475
274.42008
274.4639
274.47482
274.46845
274.48586
196.26974
196.25739
196.23607
196.27512
196.27999
196.26809
117.67536
117.64064
117.6455
117.66695
117.67833
117.68003
39.261076
39.257485
39.244535
39.22716
39.227739
39.234746
0.017484941
0.004534568
-0.012840283
-0.0052539636
0.011652773
0.0048498787
-0.0090710506
-0.0099581539
-0.0078066802
-0.0060915362
0.0054004622
0.042360746
-0.018165946
0.0065559286
0.027338082
0.037022611
)
;
    }
}


// ************************************************************************* //
