/*--------------------------------*- C++ -*----------------------------------*\
| =========                 |                                                 |
| \\      /  F ield         | OpenFOAM: The Open Source CFD Toolbox           |
|  \\    /   O peration     | Version:  v2012                                 |
|   \\  /    A nd           | Website:  www.openfoam.com                      |
|    \\/     M anipulation  |                                                 |
\*---------------------------------------------------------------------------*/
FoamFile
{
    version     2.0;
    format      ascii;
    class       volScalarField;
    location    "600/bottomWater";
    object      p_rgh;
}
// * * * * * * * * * * * * * * * * * * * * * * * * * * * * * * * * * * * * * //

dimensions      [1 -1 -2 0 0 0 0];


internalField   nonuniform List<scalar> 
1460
(
0.28191364
0.29026523
0.28237574
0.29204907
0.29598145
0.29338999
0.2864883
0.29179152
0.30335215
0.32530704
0.2894794
0.31541646
0.30224078
0.31317125
0.30602053
0.28032457
0.29607703
0.28080344
0.3125629
0.29237228
0.29476054
0.29047549
0.28888293
0.28515822
0.29086301
0.28802014
0.28208867
0.3062978
0.3036027
0.30519782
-0.24522005
-0.24568321
-0.24410856
-0.27255469
-0.26645319
-0.26603992
-0.25733494
-0.23743775
-0.19848301
-0.20607278
-0.25116197
-0.26895041
-0.25458168
-0.20845478
-0.21009206
-0.24954559
-0.25582534
-0.2266915
-0.21688362
-0.26073535
-0.2686983
-0.24863269
-0.25255492
-0.26540571
-0.26290402
-0.26496186
-0.24797282
-0.20685151
-0.22435623
-0.2488783
0.10174617
0.094142324
0.087979674
0.10462209
0.1302294
0.10697489
0.078683554
0.072376353
0.065035927
0.046929197
0.091132856
0.11417116
0.1054758
0.072377261
0.067523411
0.092760451
0.097203616
0.085280801
0.054111
0.084577118
0.093210642
0.093109678
0.079165184
0.094974636
0.11742946
0.081802162
0.064448202
0.049220088
0.0758337
0.090840337
-0.081175766
-0.095930607
-0.096268591
-0.04963106
-0.043908151
-0.055466075
-0.077655458
-0.057598147
-0.055969535
-0.0723212
-0.078478103
-0.020832451
-0.032197378
-0.035333199
-0.03526709
-0.037996597
-0.030950025
-0.072208412
-0.0579241
-0.063086296
-0.040805944
-0.063564522
-0.078317515
-0.044586224
-0.033318707
-0.042366665
-0.091392861
-0.052445017
-0.070287646
-0.076984923
0.028220373
0.04569513
0.028432857
0.030111941
0.02888283
0.013162761
0.012690265
-0.0037171359
0.001018788
0.010969056
0.010388057
0.0097711882
0.0015069758
-0.0091556709
-0.011546676
-0.013555707
-0.013503051
0.008931796
0.023958119
0.013155222
0.017547122
0.036858837
0.032618974
0.0030247425
0.0091180106
-0.0033472982
-0.0016465339
-0.0023318973
-0.017010653
0.01056261
0.28611834
0.27368022
0.30869629
0.29524874
0.30265783
0.29993781
0.29528598
0.29687576
0.30291826
0.29709545
0.30131439
0.31623071
0.30917002
0.31006413
0.2999054
0.29120134
0.29207496
0.29966551
0.29605686
0.29750634
0.29734965
0.29607481
0.30676876
0.27694938
0.29505233
0.29084385
0.28364672
0.30577827
0.30632634
0.30710941
-0.25202627
-0.24769037
-0.22665509
-0.26459423
-0.27821033
-0.26760453
-0.2739679
-0.26794907
-0.24170665
-0.25282004
-0.24928602
-0.21813785
-0.20480403
-0.17738748
-0.22340451
-0.24993509
-0.26644217
-0.21591198
-0.24009715
-0.27036522
-0.26899477
-0.23425426
-0.22132965
-0.26363051
-0.26257934
-0.26116908
-0.25047938
-0.22874748
-0.23517144
-0.26983908
0.11169435
0.087504298
0.041700165
0.080136426
0.089257025
0.10739848
0.098368815
0.083449136
0.0714498
0.082835243
0.087687529
0.050389927
0.055534335
0.053330635
0.052831859
0.080077074
0.11742976
0.047615717
0.068220158
0.081112046
0.080330315
0.045731659
0.030886924
0.053365068
0.081099818
0.078569015
0.081763732
0.065276679
0.055824482
0.094064904
-0.055311537
-0.10169505
-0.076436313
-0.1035771
-0.05391871
-0.047277756
-0.059549343
-0.062155442
-0.083402262
-0.071500808
-0.051867217
-0.030265902
-0.052024938
-0.06257348
-0.067657783
-0.055406666
-0.052983366
-0.070016281
-0.075978772
-0.041158903
-0.039248163
-0.063639956
-0.061276605
-0.075402746
-0.037203406
-0.042156695
-0.063312712
-0.0543149
-0.092751851
-0.060099415
-0.007073603
0.0041543421
0.025906095
0.025295183
0.0083819306
0.00071229527
-0.0077163096
-0.0029960795
0.0038506236
-0.015038622
-0.019657692
-0.020060104
-0.019409007
-0.0076805097
-0.0063362427
-0.016826833
-0.019000085
0.012968729
0.022569109
0.015857111
0.016257141
0.026399088
0.025154374
0.001846743
-0.0090796113
-0.014203486
-0.012549588
-0.020471955
-0.011691725
-0.00557201
0.29084191
0.28007212
0.30248162
0.30763098
0.29970391
0.30027833
0.30440428
0.29976867
0.29846847
0.30207493
0.30050964
0.29904246
0.29476785
0.31234366
0.29568786
0.29955922
0.29984451
0.30614645
0.30781995
0.30709139
0.29778786
0.31570932
0.32024759
0.28268957
0.28769465
0.28929572
0.28139248
0.30812342
0.30933556
0.30924518
-0.2457881
-0.2606573
-0.20417121
-0.19175818
-0.24806339
-0.24314249
-0.20750485
-0.21860568
-0.25233754
-0.28080775
-0.27891066
-0.27426209
-0.25431874
-0.21857123
-0.25272358
-0.26877122
-0.24411505
-0.23619061
-0.26802926
-0.27242831
-0.26792
-0.18662258
-0.1967116
-0.25876342
-0.24706785
-0.24876684
-0.25562906
-0.21754105
-0.23227464
-0.27395468
0.11939824
0.088494177
0.048290942
0.051569967
0.065488324
0.094120471
0.031038061
0.056232558
0.068666417
0.088663317
0.11333851
0.08834684
0.074924585
0.02706342
0.081658501
0.056765721
0.11375198
0.036150105
0.11082381
0.081975089
0.055277809
0.039934304
0.030551931
0.060171467
0.079200242
0.099854333
0.08956846
0.048681321
0.058744881
0.089175729
-0.025851315
-0.074348461
-0.074781361
-0.082959869
-0.083058277
-0.069371888
-0.074065319
-0.082493864
-0.069263485
-0.037216497
-0.043438852
-0.049698168
-0.076393741
-0.071424449
-0.093503839
-0.04904152
-0.082054255
-0.067775305
-0.057555951
-0.039653549
-0.081955557
-0.06420358
-0.065309235
-0.079225443
-0.067469726
-0.041050685
-0.069876027
-0.085562464
-0.097505794
-0.055763866
-0.0015129993
-0.019254296
0.002790271
0.012837647
-0.0045263083
-0.0053658196
0.010900922
0.021863965
0.0019001685
-0.00066996981
-0.0039012181
-0.018772389
0.0050962076
0.020580587
0.031411007
-0.00058299363
0.025703081
0.0042989579
0.019934411
0.027216055
0.020551964
0.019546601
0.022529684
0.00089127817
-0.017339847
-0.012162301
-0.016889359
-0.0092640081
0.0093380175
0.0088378907
0.29222528
0.28297668
0.30153501
0.28528274
0.30579139
0.30888301
0.30487161
0.31077154
0.30724543
0.30797499
0.30772794
0.31115468
0.2965439
0.29271167
0.29522996
0.29619798
0.29531044
0.29531465
0.29516662
0.30000286
0.28559746
0.3111582
0.30453641
0.30127757
0.30560357
0.3073388
0.29854344
0.32436812
0.31037875
0.31431545
-0.25570168
-0.25450257
-0.23280616
-0.23434121
-0.21339295
-0.19769201
-0.20303175
-0.21053918
-0.25120329
-0.28530295
-0.28166603
-0.23356902
-0.25093639
-0.28216116
-0.27200052
-0.27498348
-0.25782094
-0.25495282
-0.26926151
-0.26915606
-0.25990247
-0.22285053
-0.24859069
-0.26619069
-0.22620542
-0.22062434
-0.22057396
-0.20100158
-0.26618824
-0.27682464
0.11173893
0.091253337
0.087493863
0.11203841
0.065167273
0.066501452
0.058936652
0.037245983
0.04241473
0.072157701
0.12365906
0.033151702
0.10030838
0.059636574
0.1241146
0.11360858
0.12969049
0.10286406
0.12351823
0.091925307
0.060865495
0.019744361
0.079464721
0.059161298
0.063525503
0.07086038
0.066913809
0.050672134
0.060369269
0.095996018
-0.038199127
-0.062894947
-0.059963277
-0.062277969
-0.041005773
-0.029649986
-0.069337966
-0.076592009
-0.087901625
-0.052527922
-0.045495749
-0.071765499
-0.053257741
-0.044762547
-0.039274336
-0.044294513
-0.097248223
-0.097907033
-0.059943759
-0.048483383
-0.073153074
-0.059930124
-0.071075824
-0.052243978
-0.047533044
-0.052798252
-0.10125324
-0.080451444
-0.11573073
-0.043687949
-0.0074654287
-0.012348778
-0.018408402
-0.017000651
-0.02055775
-0.019798715
-0.031303534
0.001067817
0.014376434
0.0092344382
0.0090411486
0.010024264
0.013361326
0.014248172
0.029706612
0.024476125
0.054650337
0.051129703
0.014967766
0.011622816
0.014938777
0.005777864
0.018808655
-0.011208586
-0.010849651
-0.014350822
-0.021189451
0.012915827
0.025427309
0.028129452
0.29797914
0.29059112
0.29662046
0.30440137
0.29984067
0.3097835
0.3060591
0.30406507
0.30401069
0.31084665
0.30585879
0.31374232
0.29318023
0.29231121
0.292544
0.297568
0.28456464
0.30900141
0.30487095
0.30528948
0.30646536
0.30805639
0.30435875
0.3168448
0.30899027
0.31476749
-0.26677829
-0.26288121
-0.23195293
-0.18820596
-0.20164221
-0.21053805
-0.24113735
-0.26428176
-0.28167414
-0.28442369
-0.27882499
-0.23891194
-0.24039364
-0.24878944
-0.26895328
-0.26676249
-0.25991807
-0.24069355
-0.28074914
-0.25814909
-0.23245825
-0.2112937
-0.2141443
-0.23148341
-0.29278171
-0.27461053
0.1086017
0.067206617
0.059372065
0.041872437
0.077504023
0.070604475
0.080722971
0.068319461
0.091736457
0.10911803
0.11848585
0.044421209
0.10190078
0.079917957
0.084501723
0.083027559
0.079777042
0.052660269
0.098490972
0.075489334
0.066442779
0.064851445
0.062522607
0.048765844
0.067898045
0.13090257
-0.053667846
-0.096097709
-0.082516745
-0.082315268
-0.063309196
-0.039691043
-0.061154058
-0.09520071
-0.076006458
-0.054159351
-0.059857689
-0.070654938
-0.044947542
-0.077421743
-0.057375989
-0.046100456
-0.068091877
-0.053776201
-0.022436083
-0.064383776
-0.039424456
-0.05835832
-0.084367687
-0.095650241
-0.08054369
-0.041338547
0.015470312
0.012181247
0.0079003908
0.00062206744
-0.027309978
-0.013510912
-0.018184764
0.00054944352
0.0089584449
0.024149802
0.02590699
0.026054275
0.01683227
-0.0056454133
-0.011817655
-0.0116103
-0.016753684
-0.032341683
-0.013649719
-0.012299183
-0.012884621
-0.015436965
-0.014654823
0.011051596
0.016774179
0.035167128
0.30560451
0.29740599
0.29491168
0.3153104
0.30749503
0.30397645
0.2994296
0.29713037
0.30166919
0.30670262
0.30604091
0.30273615
0.30817463
0.3069285
0.29827493
0.29698206
0.31836972
0.31041251
0.31042625
0.30885761
0.314428
0.31389329
0.30866143
0.31465344
0.30775395
0.31198142
-0.26521959
-0.26933695
-0.21970318
-0.17288282
-0.21141502
-0.25472759
-0.27002221
-0.27734934
-0.28196652
-0.28212109
-0.27960532
-0.27844709
-0.23524931
-0.21154636
-0.25068776
-0.23654818
-0.23206749
-0.26832134
-0.28488375
-0.27614693
-0.24879341
-0.21417939
-0.217475
-0.2357278
-0.27757453
-0.2802618
0.12974789
0.075200875
0.062076346
0.048391227
0.055036241
0.091527605
0.084810194
0.085379109
0.10940821
0.12707268
0.12197563
0.079148039
0.069741712
0.079991376
0.09310882
0.097199379
0.046750632
0.086161411
0.093801461
0.082135768
0.043786085
0.066265547
0.066239026
0.046023167
0.064371706
0.1052181
-0.038183117
-0.078473861
-0.087608023
-0.072118942
-0.083707708
-0.054317419
-0.061410547
-0.070923081
-0.059513165
-0.046643526
-0.034963148
-0.073194194
-0.044639097
-0.041668326
-0.056854054
-0.065254515
-0.069692021
-0.068726975
-0.03919905
-0.059422926
-0.081838102
-0.040446133
-0.063875618
-0.090417989
-0.093090918
-0.044708956
0.039261141
0.024127822
0.022038476
0.020383608
-0.0011855212
-0.0096892815
-0.0042900945
0.0043968422
0.01678548
0.026683396
0.032987774
0.031869934
0.021076242
-0.012260851
-0.019996602
-0.011467441
0.012816078
0.018100585
0.024896848
0.010535905
0.0024440363
-0.0030156021
-0.0097693913
0.0081247904
0.020524367
0.028544815
0.30701948
0.30048238
0.30851788
0.31506626
0.29098775
0.3055774
0.28754608
0.31508438
0.30492652
0.30768403
0.31156634
0.31022082
0.30848374
0.30611569
0.32085822
0.306944
0.32040056
0.30037208
0.31791986
0.31265192
0.30322114
0.30871839
0.30885389
0.30354958
0.30258362
0.31457546
0.31140305
0.31783425
0.30824374
0.3131059
-0.26841582
-0.27994925
-0.21556507
-0.21109924
-0.25952148
-0.25486283
-0.24480946
-0.22766283
-0.27067652
-0.28873644
-0.28134492
-0.28315546
-0.28216115
-0.25991973
-0.21610077
-0.2051849
-0.19413754
-0.24884104
-0.20404277
-0.22030001
-0.26680887
-0.27791033
-0.28173582
-0.27459784
-0.24100048
-0.19240289
-0.20262799
-0.23161106
-0.27047978
-0.27967033
0.12398163
0.067369193
0.06360717
0.048150351
0.098418012
0.11543753
0.087087389
0.05915418
0.074511993
0.09117046
0.1117334
0.094643509
0.072742777
0.05738998
0.036070345
0.075116109
0.068086004
0.089883678
0.053749779
0.043077756
0.05692098
0.075196116
0.10955083
0.070324647
0.049483735
0.025371764
0.070437438
0.047341745
0.050241999
0.085121859
-0.042258753
-0.076476094
-0.07705745
-0.074245747
-0.056793723
-0.033076036
-0.076183007
-0.078154588
-0.092256939
-0.04725029
-0.031670822
-0.034792265
-0.049139101
-0.079355151
-0.074500386
-0.053046737
-0.039967866
-0.067303233
-0.079461503
-0.078367279
-0.092844576
-0.054384201
-0.044175162
-0.065764136
-0.069154768
-0.069628139
-0.049230393
-0.05782489
-0.10348735
-0.041950577
0.034694426
0.021359977
0.02399928
0.014101884
-0.0016135761
-0.0031235079
-0.002381798
0.022877887
0.021992215
0.025245449
0.034373899
0.028005167
0.015012538
0.017484941
0.004534568
-0.012840283
-0.0052539636
-0.0059688639
0.015111673
0.01327311
0.016493115
0.013418749
0.030485816
0.014126085
0.016096537
0.0089464989
-0.01150775
-0.0028530733
0.012897262
0.017239319
0.30280065
0.2925281
0.31541056
0.29947865
0.31526432
0.31092362
0.31888447
0.3084533
0.30518716
0.30299211
0.29720829
0.30290749
0.30843822
0.31167756
0.31199177
0.30840572
0.32256444
0.32112703
0.30718069
0.31024325
0.30836524
0.31015078
0.31008739
0.30675798
0.30575965
0.31076445
0.31574002
0.3137865
0.31067809
0.31401344
-0.2694189
-0.26279956
-0.20776641
-0.24574956
-0.20636438
-0.21052433
-0.21364433
-0.26202175
-0.27409428
-0.28160315
-0.26742166
-0.26474039
-0.28355478
-0.28068014
-0.26052321
-0.23300377
-0.21695547
-0.22069598
-0.26128676
-0.27463946
-0.28919312
-0.28286342
-0.28553557
-0.28541519
-0.26952786
-0.23629033
-0.21552901
-0.24137843
-0.27723882
-0.28010212
0.093901505
0.067487021
0.056660765
0.093005965
0.064409745
0.065938864
0.025316931
0.048315584
0.091353353
0.093649909
0.091190664
0.088087985
0.091815785
0.088386707
0.065275654
0.083754994
0.061022359
0.054065686
0.060693369
0.086783695
0.086233227
0.12444799
0.12763709
0.10554738
0.075287549
0.050388254
0.061158373
0.049477995
0.060779708
0.10772854
-0.044299269
-0.10083919
-0.081111909
-0.073170691
-0.050743215
-0.043278566
-0.061058571
-0.061767829
-0.047933929
-0.045137037
-0.082581163
-0.088418857
-0.045861788
-0.044214695
-0.073056673
-0.051844367
-0.053857312
-0.057867475
-0.0796782
-0.067334898
-0.042361738
-0.032472138
-0.034668484
-0.044027536
-0.075485368
-0.056955468
-0.051676575
-0.060250863
-0.080977156
-0.038761972
0.024160203
0.024708279
0.015960771
-0.0024694001
-0.011139498
-0.0078446331
-0.0014145706
0.0014938288
0.0060655966
0.014298361
0.04317358
0.033945375
0.012368007
0.011652773
0.0048498787
-0.0090710506
-0.0099581539
-0.0099141808
0.008667127
0.012116805
0.02107364
0.032784476
0.035999863
0.025114508
0.019912057
0.0093869355
-0.013024488
0.0080955181
0.014576592
0.025612894
0.30388264
0.30020699
0.30986566
0.30935747
0.29517774
0.31669377
0.31110458
0.31488907
0.31348522
0.30395985
0.32037534
0.31532221
0.31213692
0.30664054
0.30785052
0.3078195
0.31146467
0.30634936
0.30310606
0.3075818
0.29476659
0.30731864
0.30233323
0.30894548
0.30828435
0.30648497
0.30247753
0.32603024
0.31405663
0.31777937
-0.27126189
-0.25701095
-0.22047084
-0.22340189
-0.25298244
-0.23443829
-0.28171918
-0.28548418
-0.27433625
-0.28183677
-0.22431426
-0.21241676
-0.24797722
-0.26073542
-0.27719642
-0.28184226
-0.26015872
-0.27747017
-0.29056142
-0.2740162
-0.27106001
-0.25645393
-0.28135621
-0.28422695
-0.28553272
-0.26912614
-0.2688841
-0.22857181
-0.26247646
-0.27852968
0.089765234
0.056046634
0.066072172
0.089726662
0.11342702
0.063463391
0.086325381
0.1001031
0.086209079
0.058170207
0.039148459
0.050663542
0.059407718
0.072843724
0.071212741
0.092372491
0.11179921
0.10529169
0.09271824
0.11416264
0.094135829
0.062539906
0.099662183
0.10900131
0.097222222
0.065843214
0.099197084
0.0380574
0.054535455
0.080133327
-0.051617788
-0.088177344
-0.055743477
-0.053862604
-0.079470172
-0.10015564
-0.11493166
-0.054455031
-0.031758295
-0.067819304
-0.069815646
-0.061857179
-0.057411922
-0.069118003
-0.066162058
-0.060656933
-0.10630331
-0.10357161
-0.068145032
-0.053911375
-0.060867916
-0.086793854
-0.070062562
-0.04183569
-0.063523986
-0.067881723
-0.070608299
-0.075559095
-0.10907607
-0.042818876
0.0065099014
0.0065185605
-0.0085238699
-0.0084911211
-0.0055679448
0.016092533
0.026572043
0.029889092
0.015355865
-0.0013700183
0.0074169869
-0.0073508279
-0.016577562
-0.0078066802
-0.0060915362
0.0054004622
0.042360746
0.046701727
0.010094719
0.0031505162
0.012453261
0.025723384
0.0220333
0.026690761
0.0087015068
0.0036617069
-0.013746199
7.0602917e-05
0.013358927
0.016631953
0.29923923
0.29561213
0.2948208
0.30560001
0.31368949
0.31508381
0.3131579
0.30758114
0.30371745
0.3091753
0.31284499
0.31728566
0.31749398
0.30928694
0.31324624
0.30282347
0.31448224
0.31323963
0.30803815
0.3174204
0.31166389
0.3154962
0.3055367
0.30694345
0.31013625
0.31311728
0.31503261
0.31799777
0.31841022
0.31711351
-0.26608573
-0.25549659
-0.25067066
-0.22352712
-0.21994423
-0.28454323
-0.28137177
-0.26690893
-0.25463586
-0.22018209
-0.19407581
-0.18313968
-0.19451566
-0.216288
-0.22559892
-0.2614084
-0.27589583
-0.27611022
-0.25083662
-0.22965966
-0.21178956
-0.20226639
-0.23376696
-0.26687603
-0.25034886
-0.22534114
-0.20558715
-0.21144002
-0.23849033
-0.27179037
0.11299345
0.072243285
0.09519246
0.066237379
0.06353508
0.097747832
0.10859109
0.098355247
0.058898379
0.063471007
0.072801566
0.072850397
0.067958484
0.06615797
0.050038362
0.061031098
0.078150004
0.0804756
0.078820457
0.065733385
0.067388059
0.066427776
0.06767343
0.069421084
0.086035387
0.050274289
0.065907499
0.064777758
0.030517966
0.073654366
-0.049332778
-0.07992455
-0.052144051
-0.070402494
-0.093242343
-0.074627925
-0.052506936
-0.049746239
-0.075461053
-0.057313556
-0.043948796
-0.028525493
-0.034322902
-0.080819116
-0.087333448
-0.10961318
-0.035369376
-0.029080787
-0.11394214
-0.071020993
-0.053143827
-0.03391979
-0.069687669
-0.044801874
-0.094125647
-0.061336335
-0.048311567
-0.037822577
-0.095086557
-0.051667352
0.01107768
0.0047673317
-0.0067925831
-0.007251491
0.001914447
0.014320348
0.034071455
0.024929291
0.022414665
0.00088503928
-0.0052581966
0.0020667636
-0.0081321602
-0.018165946
0.0065559286
0.027338082
0.037022611
0.038689282
0.02689604
0.0015204448
0.0032278928
0.010145514
0.010254711
0.0065567369
0.018776184
-0.0059003017
-0.014780664
-0.0142641
-0.0030128651
-0.0011591136
)
;

boundaryField
{
    minX
    {
        type            fixedFluxPressure;
        gradient        uniform 0;
        value           nonuniform List<scalar> 
50
(
0.28191364
-0.24522005
0.10174617
-0.081175766
0.028220373
0.28611834
-0.25202627
0.11169435
-0.055311537
-0.007073603
0.29084191
-0.2457881
0.11939824
-0.025851315
-0.0015129993
0.29222528
-0.25570168
0.11173893
-0.038199127
-0.0074654287
0.29797914
-0.26677829
0.1086017
-0.053667846
0.015470312
0.30560451
-0.26521959
0.12974789
-0.038183117
0.039261141
0.30701948
-0.26841582
0.12398163
-0.042258753
0.034694426
0.30280065
-0.2694189
0.093901505
-0.044299269
0.024160203
0.30388264
-0.27126189
0.089765234
-0.051617788
0.0065099014
0.29923923
-0.26608573
0.11299345
-0.049332778
0.01107768
)
;
    }
    maxX
    {
        type            fixedFluxPressure;
        gradient        uniform 0;
        value           nonuniform List<scalar> 
50
(
0.30519782
-0.2488783
0.090840337
-0.076984923
0.01056261
0.30710941
-0.26983908
0.094064904
-0.060099415
-0.00557201
0.30924518
-0.27395468
0.089175729
-0.055763866
0.0088378907
0.31431545
-0.27682464
0.095996018
-0.043687949
0.028129452
0.31476749
-0.27461053
0.13090257
-0.041338547
0.035167128
0.31198142
-0.2802618
0.1052181
-0.044708956
0.028544815
0.3131059
-0.27967033
0.085121859
-0.041950577
0.017239319
0.31401344
-0.28010212
0.10772854
-0.038761972
0.025612894
0.31777937
-0.27852968
0.080133327
-0.042818876
0.016631953
0.31711351
-0.27179037
0.073654366
-0.051667352
-0.0011591136
)
;
    }
    minY
    {
        type            fixedValue;
        value           uniform 0;
    }
    minZ
    {
        type            fixedFluxPressure;
        gradient        uniform 0;
        value           nonuniform List<scalar> 
150
(
0.28191364
-0.24522005
0.10174617
-0.081175766
0.028220373
0.29026523
-0.24568321
0.094142324
-0.095930607
0.04569513
0.28237574
-0.24410856
0.087979674
-0.096268591
0.028432857
0.29204907
-0.27255469
0.10462209
-0.04963106
0.030111941
0.29598145
-0.26645319
0.1302294
-0.043908151
0.02888283
0.29338999
-0.26603992
0.10697489
-0.055466075
0.013162761
0.2864883
-0.25733494
0.078683554
-0.077655458
0.012690265
0.29179152
-0.23743775
0.072376353
-0.057598147
-0.0037171359
0.30335215
-0.19848301
0.065035927
-0.055969535
0.001018788
0.32530704
-0.20607278
0.046929197
-0.0723212
0.010969056
0.2894794
-0.25116197
0.091132856
-0.078478103
0.010388057
0.31541646
-0.26895041
0.11417116
-0.020832451
0.0097711882
0.30224078
-0.25458168
0.1054758
-0.032197378
0.0015069758
0.31317125
-0.20845478
0.072377261
-0.035333199
-0.0091556709
0.30602053
-0.21009206
0.067523411
-0.03526709
-0.011546676
0.28032457
-0.24954559
0.092760451
-0.037996597
-0.013555707
0.29607703
-0.25582534
0.097203616
-0.030950025
-0.013503051
0.28080344
-0.2266915
0.085280801
-0.072208412
0.008931796
0.3125629
-0.21688362
0.054111
-0.0579241
0.023958119
0.29237228
-0.26073535
0.084577118
-0.063086296
0.013155222
0.29476054
-0.2686983
0.093210642
-0.040805944
0.017547122
0.29047549
-0.24863269
0.093109678
-0.063564522
0.036858837
0.28888293
-0.25255492
0.079165184
-0.078317515
0.032618974
0.28515822
-0.26540571
0.094974636
-0.044586224
0.0030247425
0.29086301
-0.26290402
0.11742946
-0.033318707
0.0091180106
0.28802014
-0.26496186
0.081802162
-0.042366665
-0.0033472982
0.28208867
-0.24797282
0.064448202
-0.091392861
-0.0016465339
0.3062978
-0.20685151
0.049220088
-0.052445017
-0.0023318973
0.3036027
-0.22435623
0.0758337
-0.070287646
-0.017010653
0.30519782
-0.2488783
0.090840337
-0.076984923
0.01056261
)
;
    }
    maxZ
    {
        type            fixedFluxPressure;
        gradient        uniform 0;
        value           nonuniform List<scalar> 
150
(
0.29923923
-0.26608573
0.11299345
-0.049332778
0.01107768
0.29561213
-0.25549659
0.072243285
-0.07992455
0.0047673317
0.2948208
-0.25067066
0.09519246
-0.052144051
-0.0067925831
0.30560001
-0.22352712
0.066237379
-0.070402494
-0.007251491
0.31368949
-0.21994423
0.06353508
-0.093242343
0.001914447
0.31508381
-0.28454323
0.097747832
-0.074627925
0.014320348
0.3131579
-0.28137177
0.10859109
-0.052506936
0.034071455
0.30758114
-0.26690893
0.098355247
-0.049746239
0.024929291
0.30371745
-0.25463586
0.058898379
-0.075461053
0.022414665
0.3091753
-0.22018209
0.063471007
-0.057313556
0.00088503928
0.31284499
-0.19407581
0.072801566
-0.043948796
-0.0052581966
0.31728566
-0.18313968
0.072850397
-0.028525493
0.0020667636
0.31749398
-0.19451566
0.067958484
-0.034322902
-0.0081321602
0.30928694
-0.216288
0.06615797
-0.080819116
-0.018165946
0.31324624
-0.22559892
0.050038362
-0.087333448
0.0065559286
0.30282347
-0.2614084
0.061031098
-0.10961318
0.027338082
0.31448224
-0.27589583
0.078150004
-0.035369376
0.037022611
0.31323963
-0.27611022
0.0804756
-0.029080787
0.038689282
0.30803815
-0.25083662
0.078820457
-0.11394214
0.02689604
0.3174204
-0.22965966
0.065733385
-0.071020993
0.0015204448
0.31166389
-0.21178956
0.067388059
-0.053143827
0.0032278928
0.3154962
-0.20226639
0.066427776
-0.03391979
0.010145514
0.3055367
-0.23376696
0.06767343
-0.069687669
0.010254711
0.30694345
-0.26687603
0.069421084
-0.044801874
0.0065567369
0.31013625
-0.25034886
0.086035387
-0.094125647
0.018776184
0.31311728
-0.22534114
0.050274289
-0.061336335
-0.0059003017
0.31503261
-0.20558715
0.065907499
-0.048311567
-0.014780664
0.31799777
-0.21144002
0.064777758
-0.037822577
-0.0142641
0.31841022
-0.23849033
0.030517966
-0.095086557
-0.0030128651
0.31711351
-0.27179037
0.073654366
-0.051667352
-0.0011591136
)
;
    }
    bottomWater_to_rightSolid
    {
        type            fixedFluxPressure;
        gradient        uniform 0;
        value           nonuniform List<scalar> 
130
(
0.008931796
0.023958119
0.013155222
0.017547122
0.036858837
0.032618974
0.0030247425
0.0091180106
-0.0033472982
-0.0016465339
-0.0023318973
-0.017010653
0.01056261
0.012968729
0.022569109
0.015857111
0.016257141
0.026399088
0.025154374
0.001846743
-0.0090796113
-0.014203486
-0.012549588
-0.020471955
-0.011691725
-0.00557201
0.0042989579
0.019934411
0.027216055
0.020551964
0.019546601
0.022529684
0.00089127817
-0.017339847
-0.012162301
-0.016889359
-0.0092640081
0.0093380175
0.0088378907
0.051129703
0.014967766
0.011622816
0.014938777
0.005777864
0.018808655
-0.011208586
-0.010849651
-0.014350822
-0.021189451
0.012915827
0.025427309
0.028129452
-0.0056454133
-0.011817655
-0.0116103
-0.016753684
-0.032341683
-0.013649719
-0.012299183
-0.012884621
-0.015436965
-0.014654823
0.011051596
0.016774179
0.035167128
-0.012260851
-0.019996602
-0.011467441
0.012816078
0.018100585
0.024896848
0.010535905
0.0024440363
-0.0030156021
-0.0097693913
0.0081247904
0.020524367
0.028544815
-0.0059688639
0.015111673
0.01327311
0.016493115
0.013418749
0.030485816
0.014126085
0.016096537
0.0089464989
-0.01150775
-0.0028530733
0.012897262
0.017239319
-0.0099141808
0.008667127
0.012116805
0.02107364
0.032784476
0.035999863
0.025114508
0.019912057
0.0093869355
-0.013024488
0.0080955181
0.014576592
0.025612894
0.046701727
0.010094719
0.0031505162
0.012453261
0.025723384
0.0220333
0.026690761
0.0087015068
0.0036617069
-0.013746199
7.0602917e-05
0.013358927
0.016631953
0.038689282
0.02689604
0.0015204448
0.0032278928
0.010145514
0.010254711
0.0065567369
0.018776184
-0.0059003017
-0.014780664
-0.0142641
-0.0030128651
-0.0011591136
)
;
    }
    bottomWater_to_leftSolid
    {
        type            fixedFluxPressure;
        gradient        uniform 0;
        value           nonuniform List<scalar> 
130
(
0.028220373
0.04569513
0.028432857
0.030111941
0.02888283
0.013162761
0.012690265
-0.0037171359
0.001018788
0.010969056
0.010388057
0.0097711882
0.0015069758
-0.007073603
0.0041543421
0.025906095
0.025295183
0.0083819306
0.00071229527
-0.0077163096
-0.0029960795
0.0038506236
-0.015038622
-0.019657692
-0.020060104
-0.019409007
-0.0015129993
-0.019254296
0.002790271
0.012837647
-0.0045263083
-0.0053658196
0.010900922
0.021863965
0.0019001685
-0.00066996981
-0.0039012181
-0.018772389
0.0050962076
-0.0074654287
-0.012348778
-0.018408402
-0.017000651
-0.02055775
-0.019798715
-0.031303534
0.001067817
0.014376434
0.0092344382
0.0090411486
0.010024264
0.013361326
0.015470312
0.012181247
0.0079003908
0.00062206744
-0.027309978
-0.013510912
-0.018184764
0.00054944352
0.0089584449
0.024149802
0.02590699
0.026054275
0.01683227
0.039261141
0.024127822
0.022038476
0.020383608
-0.0011855212
-0.0096892815
-0.0042900945
0.0043968422
0.01678548
0.026683396
0.032987774
0.031869934
0.021076242
0.034694426
0.021359977
0.02399928
0.014101884
-0.0016135761
-0.0031235079
-0.002381798
0.022877887
0.021992215
0.025245449
0.034373899
0.028005167
0.015012538
0.024160203
0.024708279
0.015960771
-0.0024694001
-0.011139498
-0.0078446331
-0.0014145706
0.0014938288
0.0060655966
0.014298361
0.04317358
0.033945375
0.012368007
0.0065099014
0.0065185605
-0.0085238699
-0.0084911211
-0.0055679448
0.016092533
0.026572043
0.029889092
0.015355865
-0.0013700183
0.0074169869
-0.0073508279
-0.016577562
0.01107768
0.0047673317
-0.0067925831
-0.007251491
0.001914447
0.014320348
0.034071455
0.024929291
0.022414665
0.00088503928
-0.0052581966
0.0020667636
-0.0081321602
)
;
    }
    bottomWater_to_heater
    {
        type            fixedFluxPressure;
        gradient        uniform 0;
        value           nonuniform List<scalar> 
92
(
-0.0091556709
-0.011546676
-0.013555707
-0.013503051
-0.0076805097
-0.0063362427
-0.016826833
-0.019000085
0.020580587
0.031411007
-0.00058299363
0.025703081
0.29271167
0.29522996
0.29619798
0.29531044
-0.28216116
-0.27200052
-0.27498348
-0.25782094
0.059636574
0.1241146
0.11360858
0.12969049
-0.044762547
-0.039274336
-0.044294513
-0.097248223
0.014248172
0.014248172
0.029706612
0.029706612
0.024476125
0.024476125
0.054650337
0.054650337
0.29318023
0.29231121
-0.24039364
-0.24878944
0.10190078
0.079917957
-0.044947542
-0.077421743
0.01683227
-0.0056454133
0.30817463
0.30611569
0.32085822
0.306944
0.3069285
0.32040056
-0.23524931
-0.25991973
-0.21610077
-0.2051849
-0.21154636
-0.19413754
0.069741712
0.05738998
0.036070345
0.075116109
0.079991376
0.068086004
-0.044639097
-0.079355151
-0.074500386
-0.053046737
-0.041668326
-0.039967866
0.021076242
0.017484941
0.004534568
-0.012840283
-0.012260851
-0.0052539636
0.017484941
0.004534568
-0.012840283
-0.0052539636
0.011652773
0.0048498787
-0.0090710506
-0.0099581539
-0.0078066802
-0.0060915362
0.0054004622
0.042360746
-0.018165946
0.0065559286
0.027338082
0.037022611
)
;
    }
}


// ************************************************************************* //
