/*--------------------------------*- C++ -*----------------------------------*\
| =========                 |                                                 |
| \\      /  F ield         | OpenFOAM: The Open Source CFD Toolbox           |
|  \\    /   O peration     | Version:  v2012                                 |
|   \\  /    A nd           | Website:  www.openfoam.com                      |
|    \\/     M anipulation  |                                                 |
\*---------------------------------------------------------------------------*/
FoamFile
{
    version     2.0;
    format      ascii;
    class       volVectorField;
    location    "600/bottomWater";
    object      U;
}
// * * * * * * * * * * * * * * * * * * * * * * * * * * * * * * * * * * * * * //

dimensions      [0 1 -1 0 0 0 0];


internalField   nonuniform List<vector> 
1460
(
(-0.00068826579 -0.015315442 -0.0006519751)
(-0.0010845654 -0.01752253 0.00057013631)
(-0.0013561587 -0.015304255 -0.0031134286)
(-0.0015831444 -0.015660482 -0.0019933887)
(-0.0018718694 -0.016467074 -0.001183504)
(-0.0026496908 -0.01472607 -0.00011623343)
(-0.0046672007 -0.012832684 0.00074088494)
(-0.0054280005 -0.011767645 0.0012903873)
(-0.0041491934 -0.011642457 0.0014239413)
(-0.0005538288 -0.012544602 0.0014963583)
(0.00039954778 -0.014815577 0.00083464692)
(-0.0014592107 -0.021572433 0.00039539919)
(-0.001286971 -0.018091858 0.00045380899)
(-0.0013128356 -0.012179781 0.00048216148)
(0.0019316463 -0.011304452 0.00098245841)
(0.0038164697 -0.013602431 0.00040497441)
(0.00049720599 -0.016055889 0.00079830176)
(-0.0013504153 -0.014038421 -0.00027119163)
(0.0015809713 -0.012702877 0.00020691781)
(0.0030653833 -0.014955839 -0.00074705393)
(0.0018466449 -0.015571694 -0.0012605246)
(0.00063778635 -0.016396919 -0.0020006984)
(0.0012433316 -0.014930656 -0.0028750731)
(-0.00024789573 -0.014216134 -9.8201691e-05)
(-0.001840791 -0.015675109 -0.0011158004)
(-0.0019904131 -0.014475086 -0.00074310463)
(-0.0040768585 -0.013243285 -0.00023026467)
(-0.0020892712 -0.01125787 -0.00037142382)
(0.0020525833 -0.012308016 0.00081289747)
(0.00015438394 -0.0187655 0.00093357461)
(-0.00040205119 0.017053668 0.00018299463)
(0.00061541631 0.015521622 0.0010227957)
(0.0026103252 0.017049094 -0.0025811546)
(0.0033129948 0.017359135 -0.0035968738)
(-0.0019650633 0.01800516 -0.0017763132)
(-0.0045606348 0.01673333 -0.00020066071)
(-0.0057951113 0.014488731 0.0012028806)
(-0.0041039201 0.0075129993 0.0010520831)
(-0.0017633447 0.00048584967 0.00065648173)
(-0.00069890908 -0.0008503945 -0.0013571805)
(0.0044212252 0.014023226 -0.00066078658)
(0.0013986949 0.020162046 -0.0035043162)
(-0.0059986944 0.016118231 -0.0033502505)
(-0.0015368194 0.0026525074 -0.0009358451)
(-0.0014040547 -0.0023920809 0.00035613592)
(0.0053276333 0.013828753 0.00045457949)
(-0.00031673303 0.017588668 0.0010867256)
(-0.0013940767 0.012484094 0.00099260486)
(0.00086209801 0.0037999414 -0.00017662299)
(0.0058652345 0.015687002 -0.00011743577)
(0.001664742 0.017685195 -0.00078070905)
(-0.0023735303 0.018199487 -0.0027146289)
(0.0017341844 0.016679589 -0.0040377545)
(0.0018193765 0.016691731 -0.0018350344)
(-0.0024596891 0.017513457 -0.0017372793)
(-0.0048344175 0.016753527 -0.001331077)
(-0.0055465469 0.013892718 -0.00083226464)
(0.00096218017 0.00040581986 -0.00093386137)
(0.002434591 0.006460134 0.0012105036)
(0.0038478201 0.018953661 0.0026490687)
(0.0011547378 -0.011177026 -0.00045228782)
(0.002319967 -0.018613617 0.0011435349)
(-0.0021945323 -0.014921796 0.0034633889)
(-6.8758242e-05 0.0041707837 -0.0022161406)
(-0.0019581365 0.0048285671 -0.00033556168)
(0.00042077021 -0.0005886408 -0.00021807822)
(0.00073996275 -0.0083295859 -0.00078240716)
(0.0025588698 -0.013495653 -0.00098847303)
(0.00078547455 -0.013551506 -0.00079478075)
(-0.0043696378 -0.01497237 -0.0036831197)
(-0.0058391645 -0.01290997 -0.0015547938)
(8.0295966e-05 0.0017852569 -7.7009293e-05)
(-0.000785578 -0.005523632 0.00058979149)
(0.0023581481 -0.013169492 0.00013527726)
(-0.0039734307 -0.013998618 -0.00014862937)
(-0.0039834058 -0.013887472 -9.8379512e-05)
(0.0011891923 -0.002066391 -0.00030114713)
(0.0049738782 -0.013852012 0.0019251597)
(-0.0026534568 -0.016211975 -0.0015202544)
(-0.00044131161 -0.010568914 -8.4683481e-05)
(0.00068205371 0.0022493569 8.8222586e-05)
(0.00088348358 -0.0096563776 0.0029932281)
(-0.0019927726 -0.013745036 0.0038029306)
(-0.0014821794 0.00090045486 0.00033102644)
(-0.0013718632 0.0026894829 -0.00029842633)
(-0.00031876588 -0.00015717916 -0.0016737643)
(0.0047915744 -0.014164624 -0.0028041515)
(0.0028117321 -0.014292248 -0.0021310257)
(-0.0015952556 -0.013136271 0.0013605088)
(0.00036778284 -0.011135133 0.0015078531)
(0.0033258052 0.010968863 -0.0014112977)
(-0.0020471098 0.014578336 -0.00032596435)
(-0.0067283182 0.012443492 -0.00096615906)
(-0.0033745647 0.009025027 0.00016858735)
(-0.0016256206 0.0099473115 0.00023590729)
(0.0022663619 0.008458509 -0.00011845001)
(0.00050825176 0.008874551 -0.0010242871)
(0.0011126221 0.0014763938 0.00014007334)
(-0.001990407 0.0031719056 0.001039339)
(-0.0029709657 0.010428337 -0.0014459255)
(-0.0063465682 0.0097010057 -0.0010815206)
(-0.0037298386 0.0078474889 0.00053811987)
(-0.00010477 0.0080548117 0.0024361471)
(0.00031344213 -0.0016618611 -0.0011665935)
(-0.0024094565 -0.00070617957 -0.0010939821)
(-0.0029413672 0.0014399038 -0.00086013746)
(-0.00043101758 0.0033449165 0.00040004869)
(0.0044485432 0.011502598 0.0004867669)
(-0.0026367435 0.011552672 0.00046017935)
(-0.002587669 0.0085929821 -0.0017008952)
(0.0013527939 0.0080749784 0.0001250119)
(0.0026502454 0.010637116 0.00083680763)
(-0.005801904 0.011357952 0.00063115933)
(-0.0042644159 0.0086441532 0.0014568667)
(-0.0014747578 0.0094615618 2.9061764e-05)
(0.0040114675 0.0080121597 -0.0013233489)
(0.0046900508 0.010668523 -0.0024134423)
(0.0025693007 0.0055461997 -0.00055925442)
(0.0016738877 -0.00013667604 0.00047398016)
(0.0019213053 0.011078509 -0.0015689089)
(-0.0042861165 -0.011190712 0.0039911237)
(-0.0022776252 -0.0026397196 0.0020599171)
(-0.0017570012 -0.0091334872 0.00011343616)
(-0.0014905237 -0.0018971999 0.00017044983)
(0.00063071365 0.0020896959 0.0018741914)
(0.0027444928 -0.00048583943 0.0017389076)
(0.0029324109 -0.0047610913 0.0017178576)
(0.0026246058 -0.0097560185 0.0006840568)
(-0.0041377961 -0.0086764161 0.00050014492)
(-0.0032932113 -0.0044760769 0.0018622917)
(-0.0025632655 -0.0045901977 0.0027130274)
(-0.0013491043 -0.0024163285 0.0029177613)
(0.0017886749 -0.0090466397 0.0014133171)
(-0.00023785323 -0.0087853801 -0.0032908717)
(-0.0022392635 -0.0091349412 -0.0037680784)
(-0.0039299845 -0.010288661 -0.0025640926)
(-0.0060660347 -0.0096955483 -0.0016294529)
(-0.0051863175 -0.0085182374 -0.00079308956)
(-0.0028344393 -0.0057271893 -0.00034352881)
(-0.0010761639 -0.010090553 -0.0011392801)
(-0.002600953 -0.0036120303 6.9439e-05)
(0.0010123454 -0.0004712664 0.001409006)
(0.0012545088 -0.0034297846 0.0011424059)
(0.0033952022 -0.0054976696 0.00084457678)
(0.0022938489 -0.0032224259 0.0013612946)
(0.0037502636 -0.003195906 0.0010443844)
(0.0036707511 -0.0056394443 0.00059394022)
(0.0046355918 -0.0095116929 0.0015709857)
(-0.0011547837 -0.0104666 -0.000318519)
(-0.0026987372 -0.0044658877 0.0002495857)
(0.00041366287 -0.014525076 -0.0016262137)
(-0.0038527342 -0.012468966 0.00012699728)
(-0.00088710026 -0.010975943 -0.00029647389)
(0.0015790474 -0.015487512 -0.0031988481)
(-0.00081320105 -0.017669427 -0.0023571455)
(-0.0017909121 -0.017206005 -0.001921816)
(-0.0031187618 -0.015042416 -0.0010624152)
(-0.0043081681 -0.015602401 0.00072873843)
(-0.0043372086 -0.016306239 0.0019434)
(-0.0038563178 -0.014700974 0.0019947455)
(-0.0041990909 -0.013122643 0.00043821309)
(-0.0021972075 -0.012095632 0.00052484087)
(-0.00061392001 -0.012460601 0.00088808216)
(0.0015585371 -0.013361766 0.0019733254)
(0.0031267025 -0.01196049 0.0025493693)
(0.003717232 -0.015324711 0.0011293534)
(-0.00061815366 -0.017263551 0.00059649919)
(0.001252859 -0.011676351 -0.00054974231)
(0.0027157413 -0.013894108 -0.000733809)
(0.0019982802 -0.015735055 -0.0018734921)
(-0.0013176049 -0.015278892 -0.001908062)
(-0.0025176814 -0.01242568 -0.0024007532)
(0.00051991744 -0.010934576 -0.0012881015)
(0.0030487496 -0.0120785 -0.0016753616)
(-0.00099833139 -0.015889833 -0.0022505583)
(-0.00048202871 -0.015888515 -0.0025702944)
(-0.0034859477 -0.013300517 -0.0012841972)
(-0.0017831142 -0.010497964 -0.00046922541)
(0.0016681209 -0.014136795 0.00042162876)
(0.00029088658 -0.017075448 -0.00034190715)
(-0.0022891439 0.016226104 0.000163123)
(-0.003779125 0.013967612 0.0016438138)
(0.0013935665 -0.0042146158 0.0015083731)
(0.0044826727 0.013713083 -0.0046329967)
(0.0016000195 0.019074795 -0.0049179672)
(-0.0036742389 0.018704455 -0.0035836455)
(-0.0043418754 0.017100417 -0.0016580196)
(-0.006038826 0.017416013 0.0018876779)
(-0.0040453369 0.016063272 0.0043355808)
(-0.0027087563 0.015880244 0.0041282389)
(-0.0033179375 0.010559129 -0.00066102364)
(-0.0012212838 0.0015135977 -0.0013715839)
(-0.0014686335 0.0022706345 -0.00028435856)
(0.0010149898 0.0033220107 0.0027223663)
(0.0017306499 0.0049070657 0.0024117308)
(0.0056030414 0.016247133 0.0027476966)
(-0.0035731039 0.018241766 -0.00012884562)
(0.0023104026 0.0041281378 0.0012278004)
(0.0040110373 0.01136948 0.00084651048)
(0.0053543032 0.017158805 0.00011388733)
(-0.0044684117 0.016627248 -0.00033355849)
(-0.0027236274 0.0080465618 0.00020763762)
(-0.0024404493 -0.0017513914 0.0012551719)
(0.0049951642 0.014688199 -0.001544127)
(0.0012287147 0.018032459 -0.0032973189)
(-0.0028449132 0.01800723 -0.0034148858)
(-0.0046383003 0.015255999 -0.0013651334)
(0.0019056865 0.00085233991 0.00020408526)
(0.0030238626 0.0099439561 0.0021774429)
(0.0045830892 0.017925303 0.0029277516)
(0.00028954196 -0.0015214048 -0.00076650844)
(0.0072536035 -0.012821241 0.00021192068)
(0.00067480828 -0.015710847 0.0029424317)
(-0.0062674518 -0.012288897 0.0030678323)
(-0.001348682 0.0029495624 -0.0013985994)
(-0.0032309137 -0.0010653899 -0.0011863701)
(-0.0013532451 -0.004369859 0.0015749672)
(-0.0020185911 -0.0063506902 0.0019682114)
(-0.00030284336 -0.017409812 -0.00022723033)
(-0.0021328687 -0.014027461 -0.0047708217)
(0.0010082287 -0.013508009 -0.0037434201)
(0.0017565489 -0.01443982 -0.0017369429)
(0.0013532617 -0.013739188 -7.4301901e-05)
(-0.00028026572 -0.014115605 0.0029966157)
(-0.0048038063 -0.01376594 0.00027208559)
(-0.0032246081 -0.0079570351 0.0026280914)
(0.00046077294 -0.0049824231 -0.0012303382)
(0.0051634823 -0.014171659 0.00083441884)
(-0.0038288365 -0.01427328 -0.0052413065)
(0.0034622909 0.0017353786 -0.00039154111)
(-0.00042062463 0.00059586015 0.0014122203)
(0.004348561 -0.013480606 0.0048890597)
(-0.0042161905 -0.015150426 0.0035746969)
(-0.0049645321 -0.010744291 0.00073900056)
(-0.0014902966 0.0016988744 -0.0017216141)
(-0.0022542369 0.0010590522 -0.0035139893)
(0.0032277849 -0.012067939 -0.0017798629)
(0.0031562541 -0.013736637 -0.00035177802)
(-0.0023574684 -0.014368293 0.0030828314)
(0.00092068955 -0.0002644912 0.0026946669)
(0.0012378257 0.0014283062 0.0007596444)
(0.0042838313 0.010341197 -0.0010168317)
(-0.002533399 0.011708464 0.00030744367)
(-0.0060032876 0.011500715 0.0027973266)
(-0.004751118 0.0086177493 0.0012985481)
(-0.0024882574 0.0087603035 0.0011715057)
(-0.00011432613 0.0064877874 0.0017965578)
(0.002027296 0.0083071858 0.0031120565)
(0.00031831557 0.011725278 0.0018477171)
(-0.0028522819 0.0065990593 -0.0029693464)
(-0.00047538522 -0.00058388537 -0.0025416147)
(-0.00042591423 -0.003795791 -0.0027995884)
(0.0009566494 0.0020175069 -0.00099489558)
(0.0021451472 0.0083366899 0.0033229675)
(-0.0034651541 0.0085493751 0.00324666)
(-0.0027624697 0.0044957363 -0.0016061872)
(-0.0023762172 0.00066933144 -0.0011499442)
(0.0030029146 0.010635466 -0.00024181478)
(-0.0041339623 0.011406083 -0.0014827627)
(-0.00025539286 0.0074219335 -0.0014977977)
(0.001631137 0.0072116547 0.00279733)
(0.0027246106 0.0098779697 0.0020033515)
(-0.004317264 0.01052343 0.0016842639)
(-0.005479479 0.010586082 0.002400863)
(-0.0036524331 0.0082890131 0.00019900001)
(0.0010240941 0.0070892891 -0.0022394786)
(0.0037586526 0.0018363672 -6.9811488e-05)
(0.0008515299 -0.0022345834 0.00020392186)
(0.00042140715 0.0089318955 0.0026479906)
(-0.0023787378 0.008354911 0.00091015932)
(-0.0044497163 -0.010316773 0.0051840351)
(-0.003949314 -0.0064946004 0.0046961007)
(-0.0035186624 -0.0030009966 0.002872144)
(-0.0020784271 -0.0026958312 0.0034943481)
(0.00017832737 -0.00035584191 0.0039135344)
(0.0019175364 -0.0059270924 0.0039635506)
(0.00033100309 -0.010099523 0.0009256051)
(-0.0016631432 -0.0066252836 -0.0013044059)
(0.0016404193 -0.0064449723 0.00044749328)
(0.0029816615 -0.010373009 0.00074727198)
(0.0024865598 -0.010737398 -0.00040406848)
(-0.0016126423 -0.010334143 -0.0041410056)
(-0.0035980834 -0.0087991995 -0.0054615925)
(-0.0023159534 -0.0054239533 -0.005136149)
(-0.00098428864 -0.0057305301 -0.0050282386)
(-0.00040559997 -0.0089935664 -0.0048852222)
(-0.0043292986 -0.011375876 -0.0047442652)
(-0.00547734 -0.0092876219 -0.0013136607)
(-0.0031440443 -0.004114942 -0.00090829887)
(-0.00030110662 -0.0040447584 -0.0014913205)
(-0.0011583124 -0.0034992401 0.0015771788)
(0.0012647122 -0.0040161642 0.0029740664)
(0.00195683 -0.0049184854 0.0024922357)
(0.0038264142 -0.0068293986 0.0022221174)
(0.0041733118 -0.0065107673 0.003020595)
(0.0042289352 -0.007544777 0.0027751089)
(0.0041774064 -0.010321466 0.0028412921)
(-0.0028718902 -0.01033085 -0.001514326)
(-0.0038356138 -0.0090444927 -0.0024747056)
(-0.0022422598 -0.0021516383 -0.00015885658)
(-1.5823581e-05 -0.015711504 -0.0014289366)
(-0.0037091829 -0.01239346 -0.0003606196)
(-0.0022868897 -0.011693474 0.00063091801)
(0.0005994972 -0.012916133 -0.00086091657)
(0.00065735944 -0.017435595 -0.0019935716)
(-0.0019502106 -0.017106236 -0.0021927931)
(-0.0010116716 -0.011827248 -0.0011654309)
(0.0020024137 -0.014040183 -0.0023663933)
(0.001801209 -0.017069133 -0.0020813158)
(0.00078888612 -0.016891741 -0.0021501601)
(-0.00052181119 -0.016998277 -8.6751405e-05)
(-0.00070983031 -0.015871354 0.0024707225)
(-0.00234098 -0.015849033 0.0035238966)
(0.0012241604 -0.011811122 0.0032836761)
(0.0030151369 -0.014985144 0.0034459099)
(0.0023242583 -0.01685421 0.0024491533)
(-0.0019137856 -0.017102836 0.00073387491)
(6.6047957e-05 -0.010226737 0.00015845122)
(0.0013872084 -0.01871424 0.0011334665)
(-0.0010587557 -0.017390012 0.00021889453)
(-0.0035976424 -0.014503159 0.00034235003)
(-0.003103948 -0.012846427 -0.00047776323)
(0.0013095091 -0.012993012 -0.0014410049)
(0.0035162521 -0.014851769 -0.0030746842)
(2.0262765e-06 -0.015129288 -0.0032932637)
(-0.00011802484 -0.015447451 -0.0037626685)
(-0.0027228758 -0.013329518 -0.003017519)
(-0.0011400225 -0.011544274 -0.00094936105)
(0.0020644098 -0.014253709 0.00060967542)
(0.001171017 -0.016129698 -0.00028209632)
(-0.0019129381 0.016943691 0.00067713712)
(-0.0052381301 0.013762304 0.0011772915)
(0.0010280339 0.0012556662 0.00040761886)
(0.00013507061 0.0031527938 -0.0019750987)
(0.0027134487 0.0176828 -0.005128393)
(-0.0047836209 0.01619072 -0.0039206802)
(-0.0016019197 0.0025716734 6.0486547e-05)
(0.0012206804 0.0099013509 -0.0017919498)
(0.0048177671 0.018357256 0.00026081636)
(0.0033502835 0.01894248 0.001866566)
(-0.0023022526 0.018424857 0.0032651842)
(-0.0036677557 0.017348748 0.0033578615)
(-0.0036001697 0.014159927 0.0031370441)
(0.0018738955 0.00038633702 0.0016794728)
(0.0048370056 0.013694217 0.004019757)
(0.0027468677 0.018761199 0.0038098043)
(-0.0046228848 0.017607153 -0.00041907973)
(0.0017669542 0.00080410717 -0.0014180572)
(0.0051939237 0.017442332 0.00071593653)
(-0.0050488907 0.018824541 -0.00011870832)
(-0.0079566715 0.014607435 0.00047830892)
(-0.0015053994 0.001015075 0.0016628464)
(-0.0016760861 -0.0034273234 -0.001842268)
(0.0048960118 0.016020626 -0.0016244992)
(0.00091478864 0.016965339 -0.0037526385)
(-0.00042687548 0.016608678 -0.0050894002)
(-0.0034203052 0.015151241 -0.004179265)
(0.002955662 0.0019790188 0.00048389282)
(0.0033890634 0.0097707644 0.002781673)
(0.005360955 0.017148698 0.0024868852)
(0.0015699354 -0.0040599595 0.001311363)
(0.0057819386 -0.010476923 0.0014281187)
(0.006365924 -0.013558348 -0.00010775145)
(-0.0029691922 -0.014287748 -0.0009293792)
(-0.0034070651 -0.010198074 0.0006506835)
(0.00061125753 -0.011363626 0.0032590032)
(-0.00019473795 -0.014689932 0.0038151037)
(-0.0053834644 -0.015160223 0.0027407908)
(-0.0028021341 -0.011407014 0.0012467224)
(-0.00027051758 0.003000111 0.0016469369)
(-0.0018028427 -0.0034262799 4.6964733e-05)
(0.0028198276 -0.009681412 0.00048641725)
(0.0048810627 -0.016759038 -0.0031484714)
(0.0020276304 -0.015733297 -0.0031596896)
(-0.0042594122 -0.013640194 -0.0048679744)
(-4.6503994e-05 0.0027044526 0.0021678033)
(0.0031585515 -0.014071105 0.0001588085)
(0.00021539396 -0.015076367 -0.0033167123)
(0.00034292733 -0.001851489 -0.0028400695)
(-0.0010390152 0.0067168361 -0.00080734373)
(0.0029415428 -0.012507123 0.0017023931)
(0.0038835149 -0.015111218 0.0032734466)
(-0.0054137433 -0.016033631 -0.0028897545)
(-0.0062355496 -0.014700378 -0.00095224031)
(-0.0032783317 -0.0069056369 -0.00084263331)
(-0.00062863553 -0.0069869199 -0.0014156857)
(0.0039792837 -0.011453489 0.0005889961)
(0.0050341388 -0.013888262 0.0018335775)
(-0.0050786084 -0.014475867 0.0022495589)
(0.0022253474 0.0017880026 0.0023483652)
(0.0020558302 0.00020603384 0.00279543)
(0.0022650448 0.0016445594 0.0020669559)
(0.0026352878 0.008706123 -0.00046183528)
(-0.0026923448 0.010994539 -0.001937755)
(-0.0036712367 0.0085962462 0.0014168655)
(-0.0026495194 0.004479522 0.0023576919)
(-0.00085199346 0.010829352 0.0025602649)
(-0.0039915489 0.012385741 0.00087735598)
(-0.0058568773 0.011568988 -0.00057834657)
(-0.0023575767 0.0075266415 -0.00082585519)
(0.0023543268 0.0049560172 -0.0037492032)
(0.0020917694 0.0021022628 -0.0034903303)
(0.0022013188 0.011804149 -0.0036466099)
(0.0013637605 0.010138957 -0.0030572682)
(-0.0040747346 0.011478908 -0.00065474466)
(-0.0014040503 0.0074743612 0.0012950909)
(0.00099751578 0.012779308 0.0027487848)
(-0.0033883809 0.0041038998 -0.00094316448)
(-0.0025036126 0.0085789853 -0.0028092463)
(0.00057426847 0.0095102146 -0.00059365454)
(0.0034072787 0.010403578 0.0030606404)
(0.0013468128 0.011088048 0.0016286961)
(8.2561163e-05 0.01130943 0.00096251369)
(-0.0025208489 0.011128566 6.1688092e-06)
(-0.0021378784 0.0043671031 0.00195517)
(0.00071131161 -0.0019631436 0.0012784761)
(0.00078638562 0.00012276871 0.0010406566)
(0.0026978678 0.0078830614 0.0029943939)
(-0.0038183625 0.011358777 0.0028979991)
(-0.0017435978 0.007845826 0.0011953376)
(-0.0025926786 -0.010454595 0.0047196705)
(-0.0040955623 -0.009436724 0.0053517784)
(-0.0041815795 -0.0071947728 0.0051627271)
(-0.0014197256 -0.0035410236 0.0036362537)
(0.001634041 -0.0088591362 0.0057447165)
(-0.0026234241 -0.011424692 0.004271516)
(-0.0039805012 -0.0093213941 0.0025416047)
(-0.0020887041 -0.003478015 0.00038574689)
(0.0011490814 -0.009552519 -0.0020912795)
(0.0014381458 -0.0078671977 -0.0038145747)
(0.0026017547 -0.0094774283 -0.0056924045)
(-0.0015691031 -0.010987055 -0.0070184961)
(-0.0035168062 -0.0089494976 -0.0055005405)
(-0.0020643574 -0.0022443062 -0.0038605284)
(-0.0010217339 -0.0017972089 -0.003291835)
(0.0010177882 -0.0030332261 -0.0040835447)
(0.00057413792 -0.011744133 -0.0067147516)
(-0.0015981086 -0.0088248753 -0.0032305919)
(-0.0036643528 -0.0031182968 -0.00079281385)
(0.0002227261 0.0026245288 -0.00016289348)
(0.0018328018 -0.0065389744 0.0017882583)
(0.0014720755 -0.0071923898 0.0032995709)
(0.0027547795 -0.005311689 0.0024509161)
(0.0045244787 -0.0062217097 0.0023089463)
(0.0050326865 -0.0088892273 0.0023604882)
(0.0011514612 -0.010233292 0.00091963145)
(-0.0046961716 -0.0099107296 -0.0015566608)
(-0.0053557482 -0.0070046863 -0.0027832453)
(-0.0040496727 -0.0034211566 -0.0017987775)
(-0.0013933514 -0.0015270843 -0.0023073842)
(-0.00016367625 -0.015330339 -0.0013182944)
(-0.0033057833 -0.013765507 0.00015116714)
(-0.0020998857 -0.013532894 0.0014288265)
(-0.002336926 -0.015690083 -6.6514343e-05)
(-0.0028342454 -0.011600746 -0.00037618574)
(0.00023398291 -0.011972881 0.00016496912)
(0.0019996843 -0.012092306 0.00011246318)
(0.0033400256 -0.011705564 -0.00026607303)
(0.0038475732 -0.01350499 -0.00036168413)
(0.0024681963 -0.015808851 -0.0010321796)
(-0.0012184836 -0.01881073 -0.0020594137)
(0.0012187306 -0.012868136 -0.0019480219)
(0.0025519994 -0.017811077 -0.00058216004)
(0.0018323563 -0.014323697 0.0020087092)
(0.0016901339 -0.015384134 0.0018811404)
(0.0016571375 -0.016115112 0.0017595186)
(0.00039273103 -0.018020697 0.00082501369)
(-0.00019444454 -0.01809006 0.0017636273)
(-0.00049600089 -0.017579498 0.00018163667)
(-0.00019946658 -0.015946783 -0.00035695601)
(-0.0029474995 -0.013029492 -1.3344579e-05)
(-0.0011005591 -0.01102414 -0.00021125423)
(0.0027659817 -0.019617284 0.0021510356)
(-0.00093050309 -0.017429449 -0.0021264139)
(-0.0017942889 -0.011662452 -0.0021141506)
(0.00019889073 -0.012364435 -0.002695175)
(-0.00063542866 -0.013313357 -0.0034105718)
(0.0014850734 -0.013576548 -0.00038669254)
(0.0032501058 -0.016814968 0.00021522294)
(0.0013976155 -0.017649928 0.00014827019)
(-0.0026428396 0.016991544 0.002196577)
(-0.0046412357 0.015250157 0.002347221)
(-0.0010990637 0.0093892143 0.0030671014)
(-0.0028024368 0.016263226 0.0005285411)
(-0.00067961796 0.0019717579 -0.00012420674)
(5.6680374e-07 -0.00076514779 0.0010553963)
(0.0030017043 0.0035510355 -0.00030697519)
(0.0048797773 0.001304808 -0.00090269876)
(0.0065109655 0.0098147227 -0.00019896714)
(0.0064778806 0.017045592 0.00018996313)
(-0.004228622 0.018968846 0.00085269829)
(-0.0011143366 0.0071856496 0.00058159429)
(0.0044992355 0.018736491 -0.00094676441)
(0.0044221405 0.016922544 0.0025770382)
(0.0030142562 0.016978246 0.0036051371)
(-0.0001388213 0.018185465 0.0027520052)
(-0.00315306 0.019218774 0.00156474)
(0.0015831921 0.019314951 0.0002187188)
(0.0018199575 0.019021365 -0.0017412939)
(-0.0032217319 0.01789092 -0.0022294774)
(-0.0052161518 0.014711109 -0.0013458171)
(0.0013720431 -0.0017838878 -0.00023211494)
(0.0043524305 0.017579379 0.0050451656)
(-0.0030586416 0.018535982 0.00036711862)
(-0.0018522884 0.004728436 0.00027648295)
(-0.00031898906 0.0057011982 -0.0010101231)
(0.0015572173 0.0089073951 -0.0016117466)
(0.0030250913 0.0034625032 0.00079607857)
(0.0073734475 0.015906223 0.003539708)
(0.0061168354 0.018865579 0.0027175516)
(-0.00026322847 -0.0020623822 0.0026937328)
(0.0041203534 -0.012379816 0.0036358324)
(0.0024384757 -0.013987898 0.0021195368)
(0.0020941522 -0.014798151 0.0021949733)
(0.0019389748 -0.013896197 0.0020476838)
(0.00038883393 -0.01374711 0.0023039756)
(0.0023131545 -0.013006357 -0.0029985036)
(0.0026281588 -0.015421243 -0.0033329421)
(-0.0034686666 -0.014325306 -0.0029475777)
(0.0006609778 0.0040872268 -0.00043453731)
(-0.00057324274 -0.00014403375 0.00091868937)
(0.001667267 -0.016478105 0.0022018008)
(-0.0043305065 -0.01689413 -0.0029368857)
(0.0018157237 -0.00050449317 0.00074257326)
(-0.0011354018 0.0022639862 0.0014903496)
(-0.00040208972 0.004747173 0.00052309641)
(0.0018258531 -0.015034718 -0.00082684399)
(0.00075595777 -0.018639665 -0.0034497525)
(0.0023372669 -0.0003565961 -0.0010187792)
(0.0015447054 0.0020791196 -0.0020434972)
(0.0067720957 -0.011305933 -0.0025461497)
(0.0024939228 -0.015719607 -0.0023525035)
(-0.0042467741 -0.015379614 -0.004681908)
(-0.00073638127 -0.0051252607 -0.00083139108)
(0.0016879717 -0.013873159 0.0014852454)
(0.00047655127 -0.013910049 0.0018595152)
(0.0039299311 -0.013898652 0.0020490187)
(-0.00015898618 -0.015721513 0.00094202779)
(-0.0055186106 -0.013951715 0.00063405882)
(0.0033924859 0.0062222782 0.0011478748)
(0.0027179886 0.0062825958 0.0037327066)
(0.0040407658 0.0064252091 0.0028032206)
(0.0029119653 0.0037972157 0.0014663982)
(0.00024375641 0.0057510401 0.0014818843)
(-0.0013925817 -0.0016769288 0.0027624782)
(-0.00062763234 -0.0031304002 0.00086193228)
(-7.898298e-05 0.00031617575 -0.00057633381)
(0.0029593645 0.0095766483 -0.00013032945)
(-0.004298579 0.011053693 -0.00073360754)
(-0.0020911864 0.0085070299 0.00028955216)
(0.0018076153 0.0094476993 0.0018524487)
(0.0022118083 0.011756102 0.0016763912)
(-0.0024909466 0.011705961 -0.0047228817)
(-0.00097514186 0.0062795279 -0.0017189832)
(-0.00088887023 0.0087666874 -0.0013376487)
(0.0028732771 0.0093778603 0.00018729423)
(0.0062857731 0.013659485 0.0012218244)
(-0.001686654 0.013557128 -0.00034184057)
(-0.0022989221 0.0088376886 -0.0012151716)
(0.0025412288 0.0080688652 -0.0012945498)
(0.0039223419 0.011114868 -0.00087151678)
(0.002525722 0.011146464 -0.0013555142)
(-0.00084079091 0.013030065 -0.0035284304)
(-0.001892678 0.007424584 -0.0011532178)
(0.0030931304 -0.0034334881 0.0011466575)
(0.00019843539 -0.0033162266 0.00033537279)
(0.003671442 0.0074360284 0.0002878601)
(0.0010473246 0.011424563 0.00096286821)
(-0.0051443602 0.011564729 -0.00064218404)
(-0.0012547333 0.0093643208 0.00047407141)
(0.00064767953 -0.0077229212 -0.00083389958)
(0.0023442737 -0.010208503 -0.0022965353)
(0.0016916396 -0.010809581 -0.00045437569)
(0.001739258 -0.010480612 0.0013264661)
(0.0015701658 -0.010189027 0.0046228795)
(-0.0028488116 -0.010258879 0.0019628782)
(-0.0059792687 -0.0093095566 0.00051090521)
(-0.005701136 -0.0068789288 -0.00082834834)
(-0.0033538204 -0.0026136644 -0.0020476367)
(-0.00057918659 -0.00032776428 -0.0026492934)
(0.0014880777 -0.0047114654 -0.0040259239)
(0.00082144541 -0.010088344 -0.006038915)
(-0.00036646829 -0.012440942 -0.0034149741)
(-0.0024890502 -0.0039370177 -0.00091017721)
(-0.0012724965 0.0001119983 -0.00118142)
(0.00048091975 0.00044625977 -0.0018625698)
(0.0021300359 -0.0021611417 -0.0013755992)
(0.0025214499 -0.0014406195 -4.8279644e-05)
(0.0039591828 -0.0037526447 0.0014152584)
(0.002700546 -0.0041929338 0.0027734132)
(0.0029281482 -0.0077348446 0.0038203541)
(0.0019673233 -0.01100531 0.0059459765)
(0.0024554247 -0.0056602808 0.0031878356)
(0.0051917695 -0.0084373544 0.003393244)
(0.0046831265 -0.010399261 0.0026106148)
(-0.0050663549 -0.009561737 -0.00081708646)
(-0.0067032887 -0.007433179 -0.0011403074)
(-0.005055032 -0.0027337478 -0.0012246592)
(-0.0043452374 -0.0036630543 -0.0013931819)
(-0.0016097464 0.0018476497 -0.0013398777)
(-0.00092434848 -0.015874596 -0.0018800579)
(-0.0034068702 -0.015100208 -0.00087799721)
(-0.0035529821 -0.014488525 0.00023452628)
(-0.001622995 -0.013303896 -0.00095523662)
(-0.00019964537 -0.012404278 0.00091625345)
(0.0017621683 -0.012144874 0.0015790721)
(0.0034355273 -0.013631584 0.0020580972)
(0.0034292952 -0.016128711 0.0025082886)
(0.0021557228 -0.016645685 0.0018860528)
(0.0013055168 -0.017906059 0.00030064521)
(-0.0012670222 -0.01660212 -0.0010577986)
(0.0007601903 -0.010558381 0.00038535737)
(0.002753283 -0.015295278 -0.0010952514)
(0.0016737757 -0.015858187 -0.0031100651)
(0.00064311799 -0.015726113 -0.0034578386)
(0.0006118432 -0.015560529 -0.0028482952)
(-0.0021405383 -0.012754556 -0.0022314123)
(-0.0018762875 -0.010043493 0.0010845895)
(0.0021098152 -0.019021852 -0.00076055722)
(-0.0020406552 -0.017380137 -0.0007215783)
(-0.001911967 -0.012020837 -0.00025954176)
(-0.00047808888 -0.011982653 -0.0013243173)
(0.0012412629 -0.012357473 -0.001869748)
(0.0026688545 -0.014880235 0.00025246372)
(0.0030482849 -0.015343797 0.00086756706)
(0.00071771176 -0.017480694 0.0013406662)
(-0.0041929497 0.017656004 0.0022870623)
(-0.006118702 0.016684061 0.0030903337)
(-0.0044841362 0.011697853 0.0033293471)
(-0.0018786325 0.0048370391 0.0021162208)
(0.0002901074 0.0046726754 0.0016427018)
(0.003208295 0.0028817973 0.001341824)
(0.0057231292 0.0088643739 0.0025407484)
(0.0072423618 0.016210308 0.0045050047)
(0.0069895988 0.018087956 0.0042017726)
(0.0034584277 0.019398949 0.002288732)
(-0.0057532641 0.015722339 0.00024380249)
(-0.0012666841 8.5655462e-05 -0.0003665127)
(0.0011704371 0.017326115 -0.0024170892)
(0.0019434892 0.014435153 -0.0041303222)
(0.0026912286 0.017449433 -0.0048185216)
(-0.00085437703 0.017496876 -0.0043131508)
(-0.0036716202 0.014982733 -0.0024179152)
(0.0013010946 0.0012798129 0.0018032651)
(0.0017322883 0.019339522 0.0039548913)
(-0.0056238473 0.018009559 0.0012022447)
(-0.002033562 0.0061397388 0.00080904969)
(-0.00051068825 0.0035376056 -0.0012383852)
(0.0034101945 0.0053647686 -0.0020029852)
(0.0061652286 0.010339657 0.00019478699)
(0.0077155673 0.016502266 0.00094678583)
(0.0046573281 0.018581654 0.0013463378)
(-0.0010175915 0.0036448118 0.0016247753)
(0.0032540429 -0.008934522 0.0038900547)
(0.0044101295 -0.014728444 0.0043042333)
(0.00083179855 -0.015290614 0.0056160738)
(-0.0019597801 -0.012991508 0.0019445194)
(0.0012922854 -0.013842928 -0.0020693104)
(0.0015973115 -0.014115037 -0.0032082228)
(0.0018846706 -0.015694867 -0.0042216005)
(0.0022357893 -0.0046560865 -0.0013441257)
(0.0018401413 0.0051767639 -0.00019632571)
(0.0032253319 -0.0054233206 0.00026567778)
(0.0011296062 -0.014876465 -0.0023066444)
(-0.0056854059 -0.013426257 -0.00037948809)
(-0.0024206687 -0.016476833 -0.00021682078)
(0.0021420831 -0.0035710164 -0.0018708947)
(0.00018800357 -0.0014578093 -0.0031549058)
(0.0041935802 -0.013200869 0.00062749219)
(0.00029570135 -0.014127265 -0.00013204213)
(-0.00023837125 -0.001232458 0.00252605)
(0.0015821282 -0.01078174 -0.00023574541)
(0.0024731527 -0.014024493 0.00045250804)
(0.00098557701 -0.01351537 -0.00094121871)
(0.0028202331 -0.013639171 -0.0023184352)
(-0.0016312664 -0.015450685 1.6286354e-05)
(9.340447e-05 0.00016353304 0.0005674139)
(0.00087107562 0.0064245459 0.0010087241)
(0.0023180875 0.0085674632 0.0019547657)
(0.0050246176 0.0093453039 0.0028297516)
(0.0032557268 0.010258357 0.0036815643)
(-1.8962814e-05 0.011036728 0.0031920627)
(0.00029051011 0.0014550413 0.0015351068)
(0.0032956035 -0.0029571376 -0.001043391)
(0.0013461266 -0.0016490627 -0.0024885386)
(0.0025215346 0.0099426314 -0.0021131072)
(-0.002776764 0.008717797 -0.0027562067)
(0.00098065639 0.0098120426 -0.00036957924)
(0.0036840575 0.0095461442 -0.00099381073)