/*--------------------------------*- C++ -*----------------------------------*\
| =========                 |                                                 |
| \\      /  F ield         | OpenFOAM: The Open Source CFD Toolbox           |
|  \\    /   O peration     | Version:  v2012                                 |
|   \\  /    A nd           | Website:  www.openfoam.com                      |
|    \\/     M anipulation  |                                                 |
\*---------------------------------------------------------------------------*/
FoamFile
{
    version     2.0;
    format      ascii;
    class       volScalarField;
    location    "790/bottomWater";
    object      p;
}
// * * * * * * * * * * * * * * * * * * * * * * * * * * * * * * * * * * * * * //

dimensions      [1 -1 -2 0 0 0 0];


internalField   nonuniform List<scalar> 
1460
(
353.53498
353.52942
353.53661
353.54527
353.55184
353.54727
353.54418
353.55118
353.55064
353.54788
353.53369
353.5383
353.54121
353.53414
353.53752
353.54091
353.54829
353.54427
353.54702
353.54735
353.54259
353.52565
353.55051
353.53297
353.55127
353.54849
353.5465
353.5646
353.55908
353.5508
274.37385
274.39552
274.40519
274.42494
274.38343
274.36936
274.39352
274.41705
274.45203
274.41659
274.3698
274.36663
274.36371
274.35874
274.36816
274.39067
274.43046
274.43913
274.44558
274.46101
274.4444
274.41029
274.42894
274.36917
274.36733
274.35829
274.37671
274.43191
274.40436
274.37635
196.33914
196.29642
196.32824
196.27066
196.32462
196.30225
196.36554
196.28213
196.29289
196.26932
196.30231
196.34003
196.37033
196.3545
196.33037
196.31289
196.29083
196.30015
196.29929
196.30086
196.29139
196.34503
196.28702
196.29953
196.3319
196.31494
196.29655
196.26992
196.30307
196.35114
117.67605
117.62969
117.68801
117.69245
117.65632
117.71303
117.67463
117.68177
117.66089
117.65103
117.64229
117.67631
117.676
117.66261
117.6556
117.63303
117.63892
117.6562
117.67635
117.71027
117.68651
117.66083
117.65418
117.63942
117.67796
117.67404
117.6098
117.63502
117.65082
117.67463
39.255812
39.255828
39.233585
39.247122
39.251466
39.256046
39.242477
39.236269
39.248998
39.265425
39.272207
39.277021
39.277303
39.267996
39.25393
39.266681
39.271244
39.246886
39.23864
39.247889
39.229948
39.24256
39.263454
39.27009
39.271951
39.274497
39.274677
39.258693
39.224697
39.251245
353.53677
353.53135
353.52954
353.5418
353.55142
353.53991
353.53751
353.53246
353.53524
353.52421
353.52845
353.53301
353.53971
353.5241
353.55203
353.55922
353.54078
353.54277
353.53799
353.53416
353.54535
353.55772
353.54604
353.54678
353.56274
353.54968
353.55227
353.56855
353.54789
353.556
274.36886
274.3825
274.39313
274.43263
274.4428
274.39049
274.38672
274.36646
274.38842
274.37544
274.36699
274.36458
274.36968
274.37208
274.42921
274.43831
274.38016
274.37644
274.38813
274.40816
274.44085
274.43446
274.35774
274.35238
274.34965
274.34578
274.37286
274.40629
274.35207
274.35457
196.3496
196.30793
196.30643
196.29661
196.27462
196.29474
196.31943
196.3236
196.30971
196.32463
196.32103
196.34607
196.32562
196.30062
196.26201
196.30233
196.34359
196.32216
196.30524
196.29824
196.28431
196.27214
196.28814
196.29951
196.37327
196.30574
196.3104
196.26807
196.33467
196.33554
117.67493
117.62604
117.64944
117.66897
117.66121
117.64257
117.63235
117.66056
117.62394
117.63686
117.66051
117.66737
117.66552
117.63681
117.6434
117.66465
117.65731
117.6913
117.66524
117.67966
117.65434
117.64313
117.62849
117.65642
117.68118
117.67355
117.6139
117.64368
117.64589
117.67539
39.271256
39.270935
39.252909
39.230658
39.249876
39.255442
39.251315
39.250477
39.278199
39.267953
39.259623
39.270368
39.25886
39.265622
39.252123
39.239515
39.233713
39.240433
39.253138
39.236217
39.234468
39.256259
39.264989
39.273258
39.293833
39.273321
39.274084
39.252683
39.240181
39.257971
353.541
353.52834
353.55167
353.5487
353.55276
353.56495
353.55319
353.55112
353.55328
353.55389
353.54852
353.53123
353.53201
353.53931
353.51984
353.54449
353.5324
353.53448
353.53721
353.52492
353.54766
353.5361
353.54355
353.54588
353.54411
353.53795
353.56385
353.56809
353.56099
353.56278
274.37495
274.3788
274.43337
274.4546
274.44856
274.42771
274.37536
274.34666
274.35775
274.34999
274.41778
274.38005
274.38113
274.37462
274.38364
274.40639
274.39623
274.35806
274.36282
274.36826
274.4
274.38305
274.3526
274.36168
274.3524
274.36556
274.42619
274.42879
274.35104
274.35458
196.32122
196.28518
196.26971
196.30238
196.3095
196.28261
196.29582
196.31194
196.33437
196.32006
196.26729
196.2876
196.32141
196.33318
196.34417
196.30907
196.30944
196.33623
196.33268
196.30862
196.284
196.31365
196.3088
196.36164
196.3247
196.29289
196.27761
196.27585
196.29698
196.35287
117.67978
117.63123
117.65209
117.66847
117.65587
117.64067
117.61817
117.67307
117.68264
117.67587
117.65768
117.65306
117.65985
117.6729
117.65921
117.66028
117.61568
117.6686
117.66913
117.65655
117.64572
117.63676
117.66315
117.67546
117.67501
117.63724
117.64571
117.65913
117.63298
117.67958
39.26435
39.263054
39.257381
39.243142
39.244471
39.268063
39.273652
39.259342
39.278749
39.266977
39.269939
39.267089
39.249694
39.245888
39.244737
39.249744
39.274897
39.262475
39.267575
39.24862
39.266384
39.268875
39.27371
39.282907
39.273691
39.272521
39.274464
39.262033
39.266376
39.276692
353.54028
353.53651
353.53076
353.55164
353.54655
353.53933
353.53534
353.53538
353.53157
353.5149
353.5307
353.53516
353.53122
353.51632
353.52564
353.52548
353.52663
353.52733
353.53858
353.52374
353.55145
353.54581
353.53817
353.54015
353.53994
353.53447
353.55731
353.56752
353.55647
353.56224
274.37148
274.36295
274.3858
274.44221
274.42316
274.37272
274.35116
274.36199
274.37301
274.38545
274.42719
274.43904
274.40092
274.3835
274.38043
274.39252
274.37905
274.36656
274.36729
274.36141
274.3922
274.3891
274.35973
274.35614
274.36257
274.37341
274.42874
274.42169
274.36105
274.35204
196.36639
196.30814
196.29336
196.26003
196.31146
196.30966
196.34339
196.36977
196.33305
196.30759
196.28917
196.30313
196.31475
196.34288
196.34196
196.34924
196.35497
196.36055
196.3808
196.32994
196.29597
196.33372
196.33637
196.34362
196.31594
196.29512
196.27007
196.29282
196.27916
196.33024
117.68187
117.66682
117.64299
117.65837
117.66461
117.62611
117.66736
117.68048
117.6692
117.63527
117.6582
117.67534
117.68101
117.65922
117.65508
117.61926
117.62685
117.65652
117.66597
117.65451
117.62442
117.63681
117.65094
117.66389
117.66666
117.6473
117.64746
117.67126
117.61387
117.67366
39.277055
39.265201
39.255652
39.252398
39.246358
39.273926
39.278633
39.279506
39.274178
39.264486
39.24381
39.235739
39.242381
39.247749
39.252483
39.284845
39.309167
39.252748
39.263125
39.25301
39.277046
39.268705
39.236738
39.271844
39.255991
39.251346
39.245434
39.240432
39.260434
39.269241
353.53765
353.53274
353.53361
353.54055
353.55298
353.55938
353.55955
353.55573
353.54411
353.5567
353.55266
353.55407
353.54771
353.53978
353.54362
353.53719
353.53254
353.54565
353.55294
353.5465
353.53865
353.54705
353.55227
353.56744
353.57248
353.56867
274.36993
274.38179
274.38943
274.41873
274.42776
274.3986
274.34231
274.3615
274.36343
274.40512
274.45454
274.41117
274.38857
274.36243
274.36199
274.36173
274.3569
274.41787
274.42743
274.38078
274.38677
274.39859
274.42332
274.41849
274.36765
274.3507
196.35729
196.30802
196.32912
196.29393
196.29396
196.27387
196.32659
196.32816
196.3001
196.27555
196.30643
196.29736
196.35579
196.37957
196.36913
196.33039
196.29558
196.27097
196.26242
196.3297
196.31259
196.317
196.29726
196.30779
196.29138
196.33086
117.67355
117.63129
117.66446
117.65413
117.64738
117.62522
117.67157
117.67375
117.63506
117.64494
117.65181
117.6799
117.70141
117.67639
117.67559
117.66794
117.63133
117.6442
117.65152
117.64904
117.66562
117.67366
117.67292
117.68057
117.62349
117.65391
39.267978
39.259339
39.24617
39.235028
39.248461
39.269246
39.270726
39.278069
39.277293
39.274003
39.251621
39.238618
39.260923
39.243667
39.245709
39.241862
39.269847
39.271761
39.262309
39.246731
39.233259
39.226255
39.225413
39.232497
39.239297
39.252534
353.53949
353.53638
353.5477
353.54454
353.53293
353.53467
353.53513
353.53551
353.54063
353.53352
353.55462
353.52095
353.53646
353.52612
353.53108
353.53526
353.54213
353.54075
353.54709
353.56258
353.56285
353.56747
353.56709
353.57957
353.57688
353.57832
274.37073
274.38801
274.43147
274.4221
274.37344
274.37653
274.39174
274.37811
274.36299
274.37086
274.41248
274.38121
274.38391
274.37258
274.36667
274.35252
274.35168
274.35678
274.38205
274.41282
274.42369
274.43545
274.43123
274.40941
274.36255
274.34051
196.32999
196.29443
196.2906
196.30809
196.32622
196.33722
196.32893
196.34129
196.32949
196.3129
196.27772
196.32553
196.34642
196.3471
196.35307
196.37024
196.35435
196.32317
196.30243
196.30273
196.29782
196.31267
196.30155
196.30931
196.2956
196.33928
117.67376
117.62675
117.66022
117.6699
117.647
117.63112
117.61173
117.6459
117.66858
117.62743
117.64767
117.63763
117.67997
117.62943
117.62819
117.66986
117.66256
117.64921
117.63226
117.66852
117.66675
117.69259
117.67805
117.65805
117.60953
117.66767
39.264208
39.264284
39.249156
39.236082
39.243268
39.257331
39.282152
39.263279
39.273635
39.278749
39.270386
39.24296
39.254808
39.26993
39.272767
39.271577
39.267939
39.261817
39.262791
39.237105
39.234532
39.238984
39.232485
39.227788
39.254385
39.264291
353.53669
353.53639
353.55022
353.51717
353.53996
353.52907
353.53547
353.54178
353.5459
353.55242
353.55272
353.55116
353.55338
353.56612
353.54977
353.55952
353.53659
353.53412
353.55373
353.54016
353.54974
353.54501
353.53992
353.54254
353.5456
353.55823
353.55369
353.57533
353.56832
353.57136
274.37615
274.42842
274.44013
274.37131
274.36695
274.37561
274.38531
274.40365
274.35769
274.35217
274.36812
274.36215
274.37201
274.41769
274.42923
274.42408
274.39453
274.3962
274.40216
274.36915
274.35724
274.36277
274.34467
274.35406
274.37207
274.4053
274.39949
274.40013
274.33187
274.33184
196.32893
196.28673
196.28522
196.2997
196.32534
196.34997
196.30533
196.27584
196.34615
196.34564
196.34835
196.33782
196.33258
196.30033
196.30847
196.31655
196.34061
196.35894
196.29963
196.33656
196.32235
196.33926
196.30099
196.30355
196.28625
196.28549
196.31033
196.29858
196.31784
196.35066
117.66396
117.62869
117.64986
117.63183
117.7057
117.67504
117.66981
117.64749
117.65436
117.66372
117.59928
117.64969
117.61114
117.633
117.67008
117.6664
117.62785
117.60565
117.61338
117.61198
117.67599
117.66288
117.6563
117.62294
117.61492
117.6659
117.62299
117.62628
117.59177
117.67196
39.268715
39.273648
39.260643
39.232938
39.253961
39.246331
39.2366
39.258894
39.263714
39.272767
39.292271
39.268202
39.249172
39.233076
39.238895
39.240104
39.257511
39.294176
39.284977
39.25307
39.276056
39.268291
39.262144
39.25143
39.260408
39.242932
39.23241
39.249161
39.275097
39.283264
353.53836
353.53749
353.54201
353.51894
353.54111
353.52031
353.55198
353.56943
353.54533
353.55656
353.55819
353.54742
353.55981
353.57307
353.5373
353.54844
353.55412
353.55918
353.54168
353.54932
353.54239
353.53452
353.55614
353.56224
353.56079
353.56236
353.55126
353.59476
353.58231
353.58622
274.36727
274.39869
274.40439
274.38228
274.38255
274.37138
274.45064
274.47066
274.35901
274.35884
274.36007
274.35895
274.4319
274.4489
274.39269
274.39667
274.41908
274.41195
274.37213
274.35774
274.36618
274.37158
274.39422
274.34168
274.33458
274.36215
274.36857
274.39823
274.32828
274.32798
196.33371
196.33184
196.28454
196.33595
196.36047
196.33966
196.25883
196.28768
196.28832
196.33285
196.3443
196.3053
196.27704
196.25463
196.29376
196.33792
196.30174
196.30601
196.34114
196.34924
196.33584
196.32687
196.29435
196.37607
196.33683
196.32595
196.3265
196.29108
196.31953
196.37782
117.68827
117.61278
117.65043
117.62804
117.69292
117.66268
117.63638
117.65069
117.62173
117.6792
117.66436
117.61393
117.639
117.62901
117.63171
117.66398
117.65833
117.6581
117.64358
117.70691
117.65911
117.62787
117.63903
117.66695
117.66561
117.64234
117.63084
117.64663
117.60918
117.69292
39.285847
39.293683
39.273951
39.245275
39.252104
39.235418
39.260936
39.275955
39.278858
39.284032
39.287025
39.271678
39.270272
39.260244
39.246042
39.232784
39.247923
39.23823
39.238275
39.248403
39.243913
39.257682
39.285796
39.284984
39.280804
39.272064
39.269941
39.283851
39.30106
39.315645
353.53218
353.53066
353.5278
353.52409
353.52733
353.50711
353.54725
353.56465
353.54074
353.55506
353.55401
353.54797
353.55346
353.55626
353.54343
353.54927
353.53753
353.54291
353.53676
353.5381
353.55153
353.55264
353.56808
353.55658
353.56503
353.56146
353.54442
353.58424
353.57352
353.57765
274.39962
274.37747
274.39105
274.37741
274.38593
274.3764
274.44173
274.44069
274.34641
274.35069
274.34942
274.33235
274.39708
274.40586
274.37187
274.36954
274.36421
274.36949
274.38022
274.37644
274.40902
274.42055
274.4077
274.34602
274.33986
274.34596
274.35777
274.37794
274.34674
274.33103
196.325
196.32799
196.33974
196.35772
196.34489
196.30047
196.26465
196.27562
196.3049
196.33444
196.36598
196.30211
196.30492
196.26952
196.33497
196.34375
196.346
196.36297
196.32613
196.35381
196.29118
196.30675
196.27487
196.31207
196.35458
196.3153
196.33033
196.3003
196.31325
196.34031
117.62441
117.64067
117.62664
117.66398
117.67414
117.61976
117.65469
117.64414
117.63233
117.67313
117.66785
117.64523
117.62656
117.64142
117.65139
117.65273
117.61708
117.64079
117.61195
117.65526
117.66495
117.63379
117.62811
117.62369
117.67447
117.67555
117.61453
117.63525
117.58046
117.66365
39.281814
39.25345
39.250113
39.233402
39.240679
39.251619
39.269521
39.27587
39.276304
39.276635
39.288679
39.262263
39.261147
39.25755
39.256967
39.263123
39.277879
39.274458
39.253002
39.243757
39.248185
39.238245
39.276028
39.287406
39.290925
39.281765
39.250897
39.259494
39.277994
39.281775
353.53573
353.53808
353.51744
353.5165
353.52644
353.51991
353.52738
353.52736
353.53165
353.53803
353.54074
353.54809
353.55675
353.54774
353.54332
353.5477
353.54653
353.54296
353.53644
353.56282
353.55212
353.56283
353.56209
353.56064
353.5613
353.5496
353.57048
353.58217
353.58118
353.57844
274.46024
274.44655
274.39335
274.38556
274.38308
274.37498
274.38132
274.39573
274.36832
274.36042
274.35824
274.39153
274.43017
274.38613
274.37316
274.35701
274.35618
274.35833
274.37649
274.4365
274.44334
274.40932
274.363
274.34286
274.35136
274.36501
274.40074
274.42543
274.38619
274.35165
196.30707
196.27191
196.31887
196.34436
196.36385
196.3606
196.34193
196.32075
196.356
196.34153
196.3343
196.29575
196.30072
196.32475
196.36646
196.36739
196.37276
196.33493
196.30699
196.28357
196.3112
196.30791
196.3003
196.33906
196.34357
196.30827
196.29843
196.31809
196.28195
196.32764
117.67461
117.65321
117.65913
117.68083
117.68339
117.66871
117.66316
117.64242
117.67008
117.66409
117.64339
117.6359
117.65557
117.67949
117.66284
117.68144
117.67257
117.64507
117.61736
117.6313
117.65183
117.66299
117.61569
117.66736
117.68605
117.62677
117.67885
117.67682
117.62617
117.64874
39.24478
39.245263
39.236365
39.24173
39.247409
39.229532
39.247884
39.267565
39.259752
39.265249
39.277834
39.271456
39.241563
39.246636
39.25612
39.275491
39.288887
39.277429
39.273447
39.262144
39.25327
39.243353
39.266274
39.276346
39.286529
39.282637
39.255887
39.252596
39.254405
39.263163
)
;

boundaryField
{
    minX
    {
        type            calculated;
        value           nonuniform List<scalar> 
50
(
353.53498
274.37385
196.33914
117.67605
39.255812
353.53677
274.36886
196.3496
117.67493
39.271256
353.541
274.37495
196.32122
117.67978
39.26435
353.54028
274.37148
196.36639
117.68187
39.277055
353.53765
274.36993
196.35729
117.67355
39.267978
353.53949
274.37073
196.32999
117.67376
39.264208
353.53669
274.37615
196.32893
117.66396
39.268715
353.53836
274.36727
196.33371
117.68827
39.285847
353.53218
274.39962
196.325
117.62441
39.281814
353.53573
274.46024
196.30707
117.67461
39.24478
)
;
    }
    maxX
    {
        type            calculated;
        value           nonuniform List<scalar> 
50
(
353.5508
274.37635
196.35114
117.67463
39.251245
353.556
274.35457
196.33554
117.67539
39.257971
353.56278
274.35458
196.35287
117.67958
39.276692
353.56224
274.35204
196.33024
117.67366
39.269241
353.56867
274.3507
196.33086
117.65391
39.252534
353.57832
274.34051
196.33928
117.66767
39.264291
353.57136
274.33184
196.35066
117.67196
39.283264
353.58622
274.32798
196.37782
117.69292
39.315645
353.57765
274.33103
196.34031
117.66365
39.281775
353.57844
274.35165
196.32764
117.64874
39.263163
)
;
    }
    minY
    {
        type            calculated;
        value           nonuniform List<scalar> 
292
(
392.4
392.4
392.4
392.4
392.4
392.4
392.4
392.4
392.4
392.4
392.4
392.4
392.4
392.4
392.4
392.4
392.4
392.4
392.4
392.4
392.4
392.4
392.4
392.4
392.4
392.4
392.4
392.4
392.4
392.4
392.4
392.4
392.4
392.4
392.4
392.4
392.4
392.4
392.4
392.4
392.4
392.4
392.4
392.4
392.4
392.4
392.4
392.4
392.4
392.4
392.4
392.4
392.4
392.4
392.4
392.4
392.4
392.4
392.4
392.4
392.4
392.4
392.4
392.4
392.4
392.4
392.4
392.4
392.4
392.4
392.4
392.4
392.4
392.4
392.4
392.4
392.4
392.4
392.4
392.4
392.4
392.4
392.4
392.4
392.4
392.4
392.4
392.4
392.4
392.4
392.4
392.4
392.4
392.4
392.4
392.4
392.4
392.4
392.4
392.4
392.4
392.4
392.4
392.4
392.4
392.4
392.4
392.4
392.4
392.4
392.4
392.4
392.4
392.4
392.4
392.4
392.4
392.4
392.4
392.4
392.4
392.4
392.4
392.4
392.4
392.4
392.4
392.4
392.4
392.4
392.4
392.4
392.4
392.4
392.4
392.4
392.4
392.4
392.4
392.4
392.4
392.4
392.4
392.4
392.4
392.4
392.4
392.4
392.4
392.4
392.4
392.4
392.4
392.4
392.4
392.4
392.4
392.4
392.4
392.4
392.4
392.4
392.4
392.4
392.4
392.4
392.4
392.4
392.4
392.4
392.4
392.4
392.4
392.4
392.4
392.4
392.4
392.4
392.4
392.4
392.4
392.4
392.4
392.4
392.4
392.4
392.4
392.4
392.4
392.4
392.4
392.4
392.4
392.4
392.4
392.4
392.4
392.4
392.4
392.4
392.4
392.4
392.4
392.4
392.4
392.4
392.4
392.4
392.4
392.4
392.4
392.4
392.4
392.4
392.4
392.4
392.4
392.4
392.4
392.4
392.4
392.4
392.4
392.4
392.4
392.4
392.4
392.4
392.4
392.4
392.4
392.4
392.4
392.4
392.4
392.4
392.4
392.4
392.4
392.4
392.4
392.4
392.4
392.4
392.4
392.4
392.4
392.4
392.4
392.4
392.4
392.4
392.4
392.4
392.4
392.4
392.4
392.4
392.4
392.4
392.4
392.4
392.4
392.4
392.4
392.4
392.4
392.4
392.4
392.4
392.4
392.4
392.4
392.4
392.4
392.4
392.4
392.4
392.4
392.4
392.4
392.4
392.4
392.4
392.4
392.4
392.4
392.4
392.4
392.4
392.4
392.4
)
;
    }
    minZ
    {
        type            calculated;
        value           nonuniform List<scalar> 
150
(
353.53498
274.37385
196.33914
117.67605
39.255812
353.52942
274.39552
196.29642
117.62969
39.255828
353.53661
274.40519
196.32824
117.68801
39.233585
353.54527
274.42494
196.27066
117.69245
39.247122
353.55184
274.38343
196.32462
117.65632
39.251466
353.54727
274.36936
196.30225
117.71303
39.256046
353.54418
274.39352
196.36554
117.67463
39.242477
353.55118
274.41705
196.28213
117.68177
39.236269
353.55064
274.45203
196.29289
117.66089
39.248998
353.54788
274.41659
196.26932
117.65103
39.265425
353.53369
274.3698
196.30231
117.64229
39.272207
353.5383
274.36663
196.34003
117.67631
39.277021
353.54121
274.36371
196.37033
117.676
39.277303
353.53414
274.35874
196.3545
117.66261
39.267996
353.53752
274.36816
196.33037
117.6556
39.25393
353.54091
274.39067
196.31289
117.63303
39.266681
353.54829
274.43046
196.29083
117.63892
39.271244
353.54427
274.43913
196.30015
117.6562
39.246886
353.54702
274.44558
196.29929
117.67635
39.23864
353.54735
274.46101
196.30086
117.71027
39.247889
353.54259
274.4444
196.29139
117.68651
39.229948
353.52565
274.41029
196.34503
117.66083
39.24256
353.55051
274.42894
196.28702
117.65418
39.263454
353.53297
274.36917
196.29953
117.63942
39.27009
353.55127
274.36733
196.3319
117.67796
39.271951
353.54849
274.35829
196.31494
117.67404
39.274497
353.5465
274.37671
196.29655
117.6098
39.274677
353.5646
274.43191
196.26992
117.63502
39.258693
353.55908
274.40436
196.30307
117.65082
39.224697
353.5508
274.37635
196.35114
117.67463
39.251245
)
;
    }
    maxZ
    {
        type            calculated;
        value           nonuniform List<scalar> 
150
(
353.53573
274.46024
196.30707
117.67461
39.24478
353.53808
274.44655
196.27191
117.65321
39.245263
353.51744
274.39335
196.31887
117.65913
39.236365
353.5165
274.38556
196.34436
117.68083
39.24173
353.52644
274.38308
196.36385
117.68339
39.247409
353.51991
274.37498
196.3606
117.66871
39.229532
353.52738
274.38132
196.34193
117.66316
39.247884
353.52736
274.39573
196.32075
117.64242
39.267565
353.53165
274.36832
196.356
117.67008
39.259752
353.53803
274.36042
196.34153
117.66409
39.265249
353.54074
274.35824
196.3343
117.64339
39.277834
353.54809
274.39153
196.29575
117.6359
39.271456
353.55675
274.43017
196.30072
117.65557
39.241563
353.54774
274.38613
196.32475
117.67949
39.246636
353.54332
274.37316
196.36646
117.66284
39.25612
353.5477
274.35701
196.36739
117.68144
39.275491
353.54653
274.35618
196.37276
117.67257
39.288887
353.54296
274.35833
196.33493
117.64507
39.277429
353.53644
274.37649
196.30699
117.61736
39.273447
353.56282
274.4365
196.28357
117.6313
39.262144
353.55212
274.44334
196.3112
117.65183
39.25327
353.56283
274.40932
196.30791
117.66299
39.243353
353.56209
274.363
196.3003
117.61569
39.266274
353.56064
274.34286
196.33906
117.66736
39.276346
353.5613
274.35136
196.34357
117.68605
39.286529
353.5496
274.36501
196.30827
117.62677
39.282637
353.57048
274.40074
196.29843
117.67885
39.255887
353.58217
274.42543
196.31809
117.67682
39.252596
353.58118
274.38619
196.28195
117.62617
39.254405
353.57844
274.35165
196.32764
117.64874
39.263163
)
;
    }
    bottomWater_to_rightSolid
    {
        type            calculated;
        value           nonuniform List<scalar> 
130
(
0.0068858616
-0.0013595817
0.0078888279
-0.010052497
0.0025604481
0.023454463
0.030090088
0.031951168
0.034497028
0.034677326
0.018692674
-0.015302815
0.011244998
0.00043274388
0.013138047
-0.0037829821
-0.0055324818
0.016258894
0.024989141
0.033258365
0.053833239
0.033321179
0.034084253
0.012682547
0.00018059727
0.017971234
0.022474781
0.027575147
0.0086197715
0.02638351
0.028875461
0.033710083
0.042906784
0.033691074
0.032521052
0.034464183
0.022032785
0.026376015
0.036691738
0.01274761
0.023124547
0.013010067
0.037046202
0.028705309
-0.0032620962
0.031843672
0.015991307
0.011345598
0.0054339321
0.00043166936
0.020433612
0.029240763
0.0036670357
0.0057087486
0.0018620017
0.029847448
0.03176141
0.022309433
0.006730851
-0.0067413647
-0.013745019
-0.014587403
-0.0075027458
-0.00070272029
0.012533775
0.029929728
0.032766817
0.031576575
0.027938703
0.021817294
0.022791261
-0.002895084
-0.0054683528
-0.0010159425
-0.0075146022
-0.012211794
0.014384696
0.024290982
0.05417641
0.044976889
0.013069729
0.036055953
0.028291193
0.022143608
0.011430008
0.020407541
0.002931866
-0.0075904371
0.0091610489
0.035097008
0.043264402
-0.0017697934
-0.0017248051
0.0084034459
0.003913042
0.017681832
0.04579625
0.044983727
0.040804273
0.032064058
0.029940637
0.043850959
0.06106044
0.075644868
0.034457873
0.01300185
0.0037574915
0.0081848394
-0.0017550508
0.036027708
0.047405676
0.050925153
0.041764878
0.010896529
0.019494427
0.037993666
0.041775116
0.037428737
0.033446673
0.022144116
0.013269803
0.0033534004
0.026273851
0.03634568
0.046528875
0.042636735
0.015886809
0.012595837
0.014404955
0.023162801
)
;
    }
    bottomWater_to_leftSolid
    {
        type            calculated;
        value           nonuniform List<scalar> 
130
(
0.01581204
0.015827758
-0.0064146603
0.0071222101
0.011465696
0.016046481
0.0024774201
-0.0037308113
0.0089979254
0.025424705
0.032206941
0.037021303
0.037303295
0.031255914
0.030935399
0.012909109
-0.0093418027
0.0098762662
0.015442001
0.011315191
0.010476958
0.038199129
0.027953486
0.019623284
0.030367606
0.018860413
0.024349849
0.023054279
0.017380986
0.0031422465
0.0044711603
0.028062758
0.033652317
0.019341651
0.03874949
0.026976912
0.029938897
0.027089047
0.0096938729
0.037055238
0.02520112
0.015651929
0.012397677
0.006357593
0.033926003
0.038633368
0.039506128
0.034177672
0.02448565
0.0038102122
-0.004260697
0.0023805583
0.027977634
0.019339145
0.0061702564
-0.0049720066
0.0084605926
0.029245998
0.030725761
0.0380692
0.037292572
0.034003277
0.011620706
-0.001381511
0.020922624
0.024207573
0.024284356
0.009155552
-0.0039182263
0.0032675787
0.017331115
0.042152185
0.023279077
0.033634816
0.038749419
0.030386081
0.0029600547
0.014808326
0.028714928
0.03364814
0.020642548
-0.007062
0.013960775
0.0063307238
-0.0033997198
0.018893834
0.023714019
0.032767112
0.052270993
0.028202124
0.0091722614
0.045847086
0.053683123
0.033950925
0.0052746714
0.01210386
-0.0045823668
0.020936026
0.035954806
0.03885809
0.044031591
0.047024533
0.031677656
0.03027194
0.041814341
0.013449669
0.010113209
-0.0065981781
0.00067936772
0.011618972
0.029521089
0.035869911
0.03630386
0.036635256
0.048678978
0.022262786
0.021147456
0.004779974
0.0052634571
-0.0036350543
0.0017297988
0.0074092581
-0.010468384
0.0078842243
0.027564646
0.019751866
0.025248664
0.037834226
0.031455932
0.0015632009
)
;
    }
    bottomWater_to_heater
    {
        type            calculated;
        value           nonuniform List<scalar> 
92
(
0.02799616
0.013929609
0.02668116
0.031244147
0.025622208
0.012123341
-0.00048500326
-0.0062870779
0.0058877745
0.0047369036
0.0097444784
0.034897151
353.51632
353.52564
353.52548
353.52663
274.3835
274.38043
274.39252
274.37905
196.34288
196.34196
196.34924
196.35497
117.65922
117.65508
117.61926
117.62685
0.0077493944
39.247749
0.012482659
39.252483
0.044844645
39.284845
0.069167397
39.309167
353.54771
353.53978
274.38857
274.36243
196.35579
196.37957
117.70141
117.67639
39.260923
39.243667
353.53646
353.56612
353.54977
353.55952
353.52612
353.53659
274.38391
274.41769
274.42923
274.42408
274.37258
274.39453
196.34642
196.30033
196.30847
196.31655
196.3471
196.34061
117.67997
117.633
117.67008
117.6664
117.62943
117.62785
39.254808
39.233076
39.238895
39.240104
39.26993
39.257511
-0.0069237457
-0.001105121
0.00010351436
0.017511158
0.020243525
0.0060421976
-0.0072156811
0.0079228573
0.017549998
0.016967134
0.023123019
0.037879119
0.0066363581
0.016119732
0.035490662
0.048887354
)
;
    }
}


// ************************************************************************* //
