/*--------------------------------*- C++ -*----------------------------------*\
| =========                 |                                                 |
| \\      /  F ield         | OpenFOAM: The Open Source CFD Toolbox           |
|  \\    /   O peration     | Version:  v2012                                 |
|   \\  /    A nd           | Website:  www.openfoam.com                      |
|    \\/     M anipulation  |                                                 |
\*---------------------------------------------------------------------------*/
FoamFile
{
    version     2.0;
    format      ascii;
    class       surfaceScalarField;
    location    "790/bottomWater";
    object      phi;
}
// * * * * * * * * * * * * * * * * * * * * * * * * * * * * * * * * * * * * * //

dimensions      [1 0 -1 0 0 0 0];
oriented        oriented;


internalField   nonuniform List<scalar> 
3858
(
-0.00013388047
0.00016763
-3.1931614e-05
-0.00027505099
0.00014860357
-4.5240406e-06
-0.00019902047
-7.4696522e-05
3.2509922e-07
5.6113279e-07
-0.00021242333
1.2924036e-05
2.8025838e-05
-2.3654788e-05
-5.1070055e-06
-0.00013308549
0.00013236152
2.8419926e-05
-0.00020760074
1.6232014e-05
5.8547851e-05
-8.9369987e-05
-0.00022210629
0.00010306492
6.9953242e-05
-0.0002781432
0.00011805926
0.00020362479
-0.00021414549
8.0197978e-05
0.00011882221
0.00013280009
-4.5865167e-05
-1.4962276e-05
0.00015908559
-2.4081149e-05
-0.00011871365
0.00014264075
-3.8175365e-05
-0.00022103691
0.00014853425
-4.4136844e-05
-0.00023016883
8.1577796e-05
-7.090935e-05
-0.0002287826
5.1183216e-05
-5.1645562e-05
-0.00017414222
-0.00012752186
7.25581e-05
-0.00015076773
-0.00013424912
0.00011122472
-8.8333691e-05
-0.0002398528
0.00017734855
6.7254505e-05
-0.00032431545
0.0001685954
0.0001530489
-0.0001855887
0.0001003934
0.00011907054
4.6857225e-05
-9.4633593e-06
0.0002194924
-0.00015986647
5.8708679e-05
0.00013838851
5.8225463e-05
2.5098035e-05
-3.1875938e-05
0.00014799384
2.1260204e-05
-0.00022132531
0.00016329682
2.5688425e-05
-0.00028229654
7.4122397e-05
-1.3173997e-05
-8.5618727e-05
-0.00022281603
2.3006392e-05
9.7369988e-05
-0.00027211193
8.6895353e-05
0.0001011169
-4.7513495e-06
-0.00034152025
0.00048096549
2.8184771e-05
-0.00023972022
-3.3780568e-06
5.0181598e-05
-1.1656547e-05
-0.00032890759
2.6147403e-05
0.0003349182
-0.00054841566
-1.0582416e-05
0.00023693021
0.00015690556
-8.2572351e-05
-0.00025353261
0.00067455496
-5.1730629e-05
-0.00027503224
-3.7251885e-05
7.4983528e-05
-7.664034e-05
-0.00056836597
0.00014786778
4.348583e-05
-0.00058986709
0.00019159771
0.00027624171
-0.00057254719
0.00012564582
0.00032304349
0.00012878237
-4.278406e-05
6.1254602e-05
0.00052902534
-0.00010815086
-0.00023417829
0.00057734443
-0.00013927077
-0.00038781586
0.00045498621
-0.00015281439
-0.00044321018
0.00032721812
-0.000190246
-0.0003531429
7.7455874e-05
-0.00011633994
-0.00016618961
-0.00037974252
6.5267365e-05
-0.00014124916
-0.00033986089
0.00018067131
-0.00012276816
-0.00051247609
0.00025414228
-6.9188563e-06
-0.00063567219
0.00019550743
0.00016606184
-0.00043738148
7.8812082e-05
0.00020675434
1.882005e-06
4.2827222e-06
0.00039836615
-0.00048012014
0.00012864185
0.00041874454
-6.8283664e-05
0.00010613074
-4.8469487e-07
0.00049004242
7.7180659e-05
-0.0004908525
0.00066941704
-1.5752414e-05
-0.00041685513
3.4304239e-05
-3.4179206e-05
-0.00011940297
-0.00055337602
3.3107824e-05
0.00012135443
-0.00065257307
0.00013970374
4.4572414e-05
0.00017789892
6.9677359e-05
0.00038058997
3.0698159e-05
9.5808265e-05
-9.7381502e-05
6.7872545e-05
9.2660571e-05
-0.0004677945
0.0001420346
-9.1718124e-05
-0.00038752756
2.34906e-05
-0.0001399589
5.3263062e-05
0.00015188328
-4.9036414e-05
0.00047309364
0.00011053884
0.00017802467
-0.0004534453
0.00018913233
6.1912705e-05
-0.00045036772
-1.8862966e-06
-0.00015985294
-0.00022948291
-0.00013861854
-0.00040271992
-0.00011104874
-0.00021863149
-0.00029068073
4.5761372e-05
-2.9018193e-05
-0.00017027678
0.00045088636
-4.2264955e-05
-0.00011482415
0.00053248291
-1.0591113e-05
-3.0758031e-05
0.00036820285
2.7172609e-06
0.0001301002
0.00019658195
-3.0222057e-05
0.00025195877
-4.1425362e-05
-2.9773284e-06
7.3108099e-05
-0.00010415561
-9.6736251e-05
-3.7993676e-05
-0.00019080754
-3.795159e-05
-7.8793286e-05
-0.00046123582
-1.044068e-05
-0.00015872404
-0.00053673328
-1.9008186e-05
-0.00015520034
-0.00045043825
9.5330503e-06
-2.7555925e-06
-0.00023294566
8.23829e-05
-0.00022399925
-0.00012438165
-0.00013449484
-8.7737948e-05
-0.00012207186
-8.2473114e-05
5.0414333e-05
0.00034799732
3.8928168e-06
0.00011301667
0.00058771887
1.9095846e-05
0.00018364072
-4.5982196e-05
9.6623855e-06
-0.00022166887
-0.00013400214
-1.4064275e-05
-0.00036649823
-0.00047704972
-3.0693998e-05
-0.00038657226
6.4646444e-05
0.00020805352
0.00013631902
3.6217443e-05
7.7307076e-06
3.3066133e-05
6.9875185e-05
-7.5867679e-05
-0.0004399393
5.5743199e-05
-0.00017795922
-0.00031329325
2.7857237e-05
-0.0003170074
0.00011211563
8.0195604e-05
-8.3433557e-05
-7.543068e-07
0.0002402741
-0.00012647837
-0.00047348644
6.3085952e-05
-0.00017714321
-0.00039572359
-3.9792984e-06
-0.00022878466
-0.00015453902
-2.3302449e-05
-0.00034991398
5.5255961e-05
-4.5175392e-05
-0.00038952753
0.00013152546
-4.6150533e-05
-0.00017657966
0.00022669153
1.1246953e-05
-3.275213e-06
0.00033796083
2.1217642e-05
0.00017102133
0.00018218003
1.1726285e-05
0.00036102119
-1.4388802e-05
2.0970899e-05
0.0002392187
0.0001394543
-5.9077184e-05
-4.5369819e-05
0.0002313305
-5.0897608e-05
-0.00010229636
-3.5397484e-05
-9.8483549e-05
-0.00010858942
-0.0004397144
-1.5228384e-05
-0.00012117353
-0.00050447651
-1.9672677e-05
-0.00010667847
-0.00044259117
-2.2342164e-05
-9.7976105e-05
-0.00019402298
-4.7625058e-05
-0.00017145066
2.5679232e-05
-7.6586338e-05
-0.00020200381
4.6348931e-05
-0.00013786763
5.1282268e-05
0.00010908257
-1.4371326e-05
0.00033871519
0.00025331784
4.6968109e-05
9.0437017e-05
0.00022370014
-2.140415e-05
-2.9818896e-05
6.6179547e-05
-7.9925771e-05
1.1600142e-05
-0.00045606397
-6.2404785e-05
-0.00036972615
-5.245968e-06
0.0001903401
-5.4021083e-05
0.00029723262
-7.3826376e-05
-4.7857771e-06
-0.0001379209
-0.00025007061
-6.8008411e-05
-0.00010027046
-3.7684524e-05
-2.6099888e-05
-7.4924878e-05
-0.00026256152
-0.00023702481
-0.00047153793
-0.00018674719
-0.0004813021
-0.00014477487
-0.00038054804
-4.54981e-05
-0.00026811181
1.9089225e-05
-0.0001008778
5.9457526e-05
0.00012851061
0.00010857242
0.00023123541
7.945524e-05
0.0001514595
6.5387106e-05
0.00019838278
9.2531015e-05
0.00038393257
4.5780704e-05
0.00038031315
-3.1778086e-05
8.2746714e-05
-0.00014214799
-0.00025900954
-0.00016272029
-0.00049415586
-0.00020744487
-0.00050573092
-0.00018244793
-0.00034722998
-0.00013282171
-0.00018156102
-0.00011932003
8.8226412e-06
-8.1301085e-05
0.00023521616
2.6924326e-05
0.00046092731
-2.0110028e-06
0.00055536027
-2.8253413e-05
0.00022473481
-0.00012543851
-0.00014499134
-0.00013340445
0.00016582576
-6.2811618e-05
-0.00027044081
0.00015724736
-2.2149351e-05
-0.00028724484
3.1449069e-05
-1.1413604e-05
-7.6474415e-05
-0.00020539194
8.3276945e-06
0.00016897053
-0.00027855686
2.7103935e-05
0.00020651828
-1.4636637e-05
6.5112708e-06
0.00013498869
0.00011896137
1.2601436e-05
5.762838e-05
0.00014022143
4.2528948e-05
0.00011386657
-1.7145642e-05
8.0753197e-05
6.4534861e-05
0.00012213317
1.1094312e-05
-1.0900272e-05
0.00018218965
-0.00014961704
-5.9333412e-05
0.00015309471
-0.00012657767
-0.00016907835
0.00016046668
-8.7802597e-05
-0.0002774758
8.7633806e-05
-1.9530893e-05
-5.9342624e-05
-0.00033114403
4.1240775e-05
0.00017614772
-0.00026193452
-2.743713e-05
0.00013331556
5.328856e-05
6.3000895e-05
-1.2649694e-05
0.00011289823
0.00014485721
-0.00011861655
6.9150526e-05
0.00021560745
-0.0001137869
-6.8400454e-05
0.0002343402
2.0848215e-05
-0.00017958778
0.00014549451
0.00022240046
-0.00030244032
8.9493585e-05
0.00018790427
2.7666571e-05
6.5570146e-05
1.0132876e-05
0.00017759081
2.5094899e-05
-0.00012377634
0.00012643226
2.5711666e-05
-0.00024713709
0.00016802592
-1.9559063e-05
-0.0002175436
3.2700168e-05
-7.6495523e-05
6.1350112e-05
-0.00026977385
1.0043076e-05
6.7176096e-05
7.0133459e-05
1.0474781e-05
0.00014150044
-8.0927847e-05
-0.00038521056
0.00056685001
1.2371083e-05
-0.00036927903
0.00013962916
5.1868278e-05
-0.00021629985
-0.0001229538
2.7571093e-05
4.1252712e-05
-0.00050435501
3.0828103e-05
0.00026618901
-0.00061108754
2.5022032e-05
0.00030874413
-0.00011633385
7.4114623e-06
0.00025134119
0.00014898108
0.00010236676
3.4966213e-05
0.00031562089
0.00018884328
0.00010390391
-0.00014846439
0.00025397876
0.0001918564
3.0190735e-05
0.00012963575
8.7409963e-05
0.00035000275
-0.00010615072
-7.7859948e-05
0.00044194971
-0.00023173596
-0.00027064801
0.00041254193
-0.00019855796
-0.00023483387
-3.8980475e-05
-6.2014242e-05
-2.0192725e-05
-0.00073282644
-3.2047258e-06
0.00024311592
-0.0005479333
-9.3649795e-05
0.00025871413
0.00011632185
-1.336414e-05
-6.9515296e-05
0.00045439545
0.00016740351
-0.00018631789
8.0632988e-05
0.0003594624
-8.5937509e-05
-0.00026134742
0.000288074
0.00010325109
-0.00045345475
0.00016349045
0.00042037391
-0.00068914064
7.3860228e-05
0.00048159721
-1.8578987e-05
0.00011366411
0.00028132132
0.00047061423
1.3383212e-05
-0.00016042874
0.00071632966
-7.0966673e-05
-0.00045347932
0.00060272108
-0.00015739699
-0.00028076379
-4.1932314e-05
-0.00013226225
0.00014016411
-0.000663921
6.32708e-06
0.0002448661
-1.4598681e-05
0.0001197339
0.00046113937
0.00010312608
7.2237359e-05
0.00050547715
1.9833665e-05
0.00018849909
1.6393885e-05
7.4846099e-05
0.00022696794
-0.00019501078
0.00017562273
0.00011563117
-0.00044685217
7.7324532e-05
-0.00021310657
-0.00015810379
2.7637268e-05
-0.00024877482
-9.5475059e-05
0.00012534829
2.4300929e-05
-7.7184109e-05
0.00014222177
0.00012002608
0.00013539971
8.2609735e-05
-5.3414841e-05
-8.8462915e-05
-2.5179107e-05
-6.9583066e-05
-8.1435464e-05
-9.083707e-05
-3.7252918e-05
0.00023918749
4.9466917e-05
3.1952323e-05
0.00035689433
-2.6414811e-05
0.00026203809
0.00026800357
-9.6138507e-05
0.00038314145
-6.7918199e-05
-8.9448366e-05
-2.9860357e-05
-0.00011693034
-0.00023311635
-0.0002001831
-0.00024428927
-0.00013629861
0.0001097921
-0.000241353
-4.9036613e-05
0.00026937256
0.00021047118
4.63922e-05
0.00029060929
-1.9363226e-05
6.8318786e-05
0.00030703828
-0.00031833194
2.1547316e-05
9.3954735e-05
-0.00023957367
8.735507e-06
-0.00022955009
-0.0001177737
-0.00016547923
-0.00018342208
-7.2317402e-05
-0.00012688443
-2.0588139e-05
0.00035617175
-0.00013086459
-4.4903228e-06
0.00071595929
-1.183462e-05
0.00015935472
0.00048982499
-3.185311e-05
0.0001646533
-7.5176144e-05
3.7607647e-05
-0.00033953861
-0.00019638614
2.2592779e-05
-0.00013468586
-0.00036379422
0.00011364879
0.00029368406
9.7415894e-05
0.00029600208
0.00023867966
7.0128593e-06
0.00018499942
0.00020204404
-4.7723046e-06
4.2693536e-05
-6.7081422e-05
7.0119729e-05
8.6260084e-05
-0.0004582044
-4.3570743e-06
6.5998965e-05
-6.1108352e-05
3.4612873e-06
-9.67371e-05
0.0001181054
0.0001894297
-7.2303321e-05
-8.3221317e-05
4.4689373e-05
7.3007152e-05
-4.0055615e-05
2.6165542e-05
-0.00020739508
0.00021342184
-4.4784978e-05
-0.00034576342
6.4490291e-05
-5.273282e-05
-0.0001576861
2.2858351e-05
-1.7898716e-05
5.9671491e-05
0.00018883656
-3.8052867e-05
0.00026591932
0.00014784484
-6.4871454e-05
0.00018338572
0.00016841503
-0.00014207334
0.0001267381
2.2541788e-05
-6.1853606e-05
0.00013129267
-0.00025123737
-5.6683661e-05
8.3029098e-05
-0.00035812122
0.00011413417
0.00024388252
-8.6600096e-05
3.7734275e-05
0.00017395725
-5.7570575e-06
4.1090687e-05
5.8269862e-05
-0.00028976934
6.7452093e-05
-0.00010819579
-0.000164513
6.9062795e-05
-0.00027384197
7.3704635e-05
-7.3457235e-05
-0.00037033359
9.7010222e-05
-0.00014942235
-0.00017434108
0.0001661428
-0.00014383119
0.00010149392
0.0004310706
-5.3176423e-06
0.00034193496
0.00021673338
7.9618695e-05
0.00010519794
0.00020610728
-6.5950553e-05
-8.4005126e-05
-4.4435412e-05
-4.2673425e-05
-0.00013002563
-0.00042063424
4.0455736e-05
7.0719573e-05
8.7692884e-05
0.00022662631
-4.1967731e-05
0.00039386456
-3.9020577e-05
0.00027506767
-8.620543e-05
-0.00013419887
-0.00011694627
-0.00018841476
-4.4576988e-05
-7.3712137e-05
-7.1522098e-05
-0.00016493884
-0.00022901944
-0.00024330269
-0.00014843896
-0.00011996988
-5.4685847e-05
-9.4274779e-05
-6.7029177e-06
-9.5155323e-05
4.2828118e-05
5.1327736e-05
0.00010181103
0.00018865026
0.00011909474
0.00033231812
0.00010420242
0.00035745988
6.2787134e-05
0.00028067202
-8.1918506e-05
8.0714214e-05
-0.00011238272
3.4632502e-05
-7.2296491e-05
-1.0870215e-05
-0.00010240235
-0.00027966779
-0.00018369208
-0.00045280701
-0.00019881867
-0.00041359379
-0.00014795653
-0.00035054674
-9.8858554e-05
-0.00019293186
-0.00011079211
0.00012299913
3.3838536e-05
0.00029853406
6.812277e-05
0.00047348375
2.9146588e-05
0.00040237714
-1.582211e-06
-3.3505467e-06
-0.00014034506
-7.7622311e-05
-0.00018561236
0.00016617633
-4.2525437e-05
-0.00032298279
0.00011616559
2.198414e-06
-0.00017249796
-0.00022869096
6.6008427e-05
5.4327617e-06
-0.00019564222
2.5510554e-05
0.00018098676
-0.00019539043
4.5741392e-05
0.00033647961
-0.00019307742
4.0994361e-05
0.00030838526
4.6177156e-05
-6.5869464e-06
0.00019615905
0.00016525835
-1.1243014e-05
7.0611336e-05
0.00013981055
6.5265712e-05
4.445712e-05
6.7206525e-05
-3.1505856e-05
0.00016521976
-0.0001868711
-8.3861427e-05
0.00018190385
4.3738709e-06
-0.00014500788
0.00010087099
0.00012182126
-0.00012610053
-4.2401174e-05
0.00014234421
-1.7561747e-05
-0.00011946876
9.3919966e-05
2.8802701e-05
0.0001069512
-0.00032176812
6.8263029e-05
0.00014544825
-4.9548211e-05
7.6363407e-05
9.4549142e-06
0.00013865247
0.00014423881
-0.00011200332
0.00016007414
0.00017861949
-0.00019724073
0.00014039787
0.00018304468
-8.8286084e-05
-0.00010884346
0.00014521435
-7.4488374e-05
1.7864903e-05
5.9432688e-05
-0.00015253406
0.00016374295
-1.9721089e-05
-0.0002352656
0.00015613453
-4.821396e-05
-0.00031080167
0.00017866245
-7.6879617e-05
-0.00034814105
0.00012476962
-0.00010534105
-0.00011579553
-0.00021821312
-9.3477264e-05
0.00012090752
-0.0002077126
-2.2782959e-05
0.00011124649
8.9666078e-05
-7.2187493e-05
0.00014051807
-0.00011312178
-0.00040295016
0.00055810253
2.339505e-05
-0.00035391998
3.4822951e-05
8.4180739e-05
-0.00010144187
-0.00057676026
0.00012316228
9.933672e-05
-0.00040468771
3.9095002e-05
0.0002721351
-0.00039828828
5.5121512e-05
0.00048949933
-0.00050525629
0.0001022261
0.00056618798
-6.4103522e-05
0.00013595879
0.00030562765
0.00053465918
8.0002773e-05
-7.6415544e-05
0.00068177906
9.4053443e-05
-0.0002863
0.00048917628
-8.2449542e-05
-1.6714397e-06
-0.00050712537
-7.0525016e-05
0.00015560931
-0.00019591065
-0.00018873219
5.5398999e-05
0.00022035032
-0.0001968767
-0.00019058671
0.00039715429
-7.0838605e-05
-0.00013288279
-1.1973251e-05
4.4984582e-05
0.00016221951
-0.00073117662
2.0656413e-05
0.0003147177
-0.00021315252
-2.2580199e-06
5.1429898e-05
0.00048902933
8.0314439e-05
-0.00022703851
0.00053408546
0.00026391948
-0.000132973
8.9775904e-05
0.00024463045
0.0001691464
-0.00040167768
0.00015420527
0.00031308407
-0.00011083859
5.8626049e-05
8.884627e-05
0.00055110052
-4.9455658e-05
-0.00025609178
0.00066017006
-0.00014571427
-0.00046496424
0.00056208242
-0.00024551417
-0.00031279718
3.5869398e-05
-0.00022066382
2.7851448e-05
-0.00056360062
-0.00012752339
0.00034919989
-0.00049701521
-2.5718738e-05
0.00038889253
0.00021030884
-4.0601509e-05
0.000666852
-3.4315329e-05
0.00016570902
0.00046029819
-4.8071009e-05
0.00034017161
-6.199963e-05
-2.7939108e-06
0.00012332366
-0.00012618659
-5.8102975e-05
7.2987303e-05
-0.00028779312
1.07663e-05
1.3840038e-06
-0.00027878339
-2.0264328e-05
-0.0002192446
-0.00015079725
-8.4821397e-06
-1.3549429e-05
-0.00013503053
7.4536004e-06
0.00019882106
0.00037943331
2.5465111e-05
0.00014756081
0.00059052217
0.00011733802
7.9739315e-05
0.00035761417
0.00010854653
-0.00028242092
-0.00015070762
5.5209399e-05
-0.00039817196
-9.8201567e-05
-8.3728516e-06
-0.00020711208
8.0113411e-05
-0.00014696147
5.4622445e-06
0.00022147006
-0.00012633845
0.00019149224
-0.00027233141
-0.00015878818
-8.4999679e-05
-0.00038972764
-0.00020125567
-9.1023321e-05
-0.00011590079
-0.00014026471
7.8535587e-05
0.00039901696
-3.3154355e-05
0.00016253261
0.00043034729
8.805991e-05
0.00029487531
-5.8276336e-05
3.7256844e-05
1.1915422e-05
-0.00013370251
2.3720206e-05
-0.00010561337
-0.00012382295
-3.4966089e-05
-8.9352023e-05
0.00042897406
-2.1019321e-05
-7.4517156e-05
0.00062934277
-0.00011487217
0.00015694846
0.0004613259
-0.00014254371
0.00034914157
-7.5802573e-05
-0.00011237424
2.4811337e-05
-0.00013372964
-6.7933096e-05
-0.00032018677
-0.0001194869
-9.9374242e-06
-0.00015594533
6.1893049e-05
9.782314e-05
0.00060283656
5.4860059e-06
0.00034228226
0.00016215443
-3.7125641e-05
0.00025293516
0.00010012888
-7.7553705e-05
0.00014327104
7.8411473e-05
-2.4814212e-05
0.00014434492
-0.00028159393
-1.1630132e-05
0.00013699673
-0.00025214491
-1.582899e-05
-5.5229966e-05
0.0001486836
8.2175542e-05
-0.0002711013
0.00023065152
-0.00010512136
-2.5728912e-06
0.00012840579
8.6646364e-06
0.00022862725
0.00021287576
0.00010166129
0.00032001073
9.8535073e-05
0.00011496279
3.7411684e-05
5.0172349e-05
6.3820355e-05
-0.0002177974
0.00011644142
2.5132338e-06
-0.00010238768
6.0150375e-07
-0.00010076926
0.00012070377
-5.2250931e-05
-9.1443792e-05
0.00017025946
-0.00033566455
-4.8076164e-05
6.7071122e-06
-0.00030716661
2.430765e-05
-0.00019323336
0.00012098568
7.7188151e-05
-3.5849574e-05
0.00025365714
2.5710292e-05
0.00018425622
0.00016192096
8.9411198e-05
0.00018466625
-7.5010537e-05
8.3776233e-05
-0.00013363643
0.0001346621
0.00011900084
-0.00035591925
4.432168e-05
-1.931906e-05
-0.00021641427
0.00015004635
-9.9996276e-06
-1.5011936e-05
0.00035988038
-7.5771132e-05
0.00026336457
0.00024344258
-6.5810823e-05
0.00017867096
0.00012908388
-4.0574146e-05
-0.00010832972
0.00018204084
-9.4720346e-05
-0.00025991408
-4.1562776e-05
3.0986808e-05
-0.00027894015
4.4704751e-06
0.00011690437
0.00036949356
4.2095738e-05
0.00018594963
-6.5762928e-05
0.00029135565
-4.4297704e-05
0.00030459488
-2.1033187e-05
-4.6991246e-05
-4.6954076e-05
-0.00030144058
-4.2272565e-05
-0.00016212087
-6.2158212e-05
-4.446685e-05
-0.00011602194
2.1644447e-05
-8.6144473e-05
0.00015142064
2.8413712e-05
0.00019767933
4.5573461e-05
0.00018441492
0.00010626487
0.00022532025
0.00017734712
0.00023410879
0.00011090771
0.00022767214
5.838814e-05
-4.341128e-05
-1.7939912e-06
-0.00027653006
-0.00015596634
-0.00012549642
-0.00014243069
4.4555507e-05
1.1308702e-05
4.1191114e-05
6.2882974e-05
-0.00017819663
-3.9314884e-05
-0.00020907996
-3.3273255e-05
-0.00026701163
-4.5703185e-05
-0.00024490348
2.9079646e-05
-2.0051746e-05
2.4236525e-05
0.00013559386
0.00012163551
0.00013691773
0.00019588278
0.00015027511
0.00019783006
-5.3786881e-05
0.000160917
-0.00023189837
4.2236898e-05
5.9972879e-05
-0.00011279559
0.00014669366
-7.5500212e-05
-0.00022850277
0.00017285627
-5.3268341e-05
-0.00021524353
7.2611332e-05
-1.7167578e-05
7.1082609e-05
-0.00028769503
2.5985218e-05
0.00025497616
-0.00016801303
2.9808339e-05
0.00023566443
5.3004345e-05
8.5111602e-06
0.00014336365
0.00013798985
-5.0389181e-05
4.6986365e-05
0.00014260383
-5.5700044e-05
-6.3286864e-05
0.00016308413
1.4855001e-05
-0.00013760408
6.9180995e-05
-2.1102915e-05
1.7862343e-05
-0.0002048116
-3.188873e-05
0.00022768147
-0.00032041427
-3.2386717e-05
0.00032711412
-0.00013872909
-8.4001122e-05
0.0002008116
0.00011396952
7.6119421e-05
0.00015699571
1.396377e-05
0.00013384129
-5.1871997e-05
0.00014542013
-0.00012043804
0.00015336145
6.2688953e-05
-0.00014705523
0.00014099957
6.5615326e-05
-0.00020314991
0.00017604881
6.7103968e-05
-1.9905646e-05
-0.00016824731
0.00012938278
1.0300944e-05
2.0006247e-05
9.0027393e-06
-0.00010861988
0.00015622048
-5.5765048e-05
-0.00019199047
0.0001686933
-0.00013243193
-0.0002711593
0.0001812297
-0.00017764172
-0.00029170158
0.00010518205
-0.00018770186
-4.1448758e-05
-0.00024526156
-0.00010024421
0.00019683447
-0.00021885086
-4.5918123e-05
0.00013259611
0.00010257838
-0.00011226108
0.00015716629
-0.00014045609
-0.00032620064
0.00057011718
-7.3827827e-05
-0.00047566541
0.00048811486
-8.1613076e-05
-0.00024378054
-2.1336306e-06
-3.397762e-05
0.00016946153
-0.00064981027
-1.2031837e-05
0.00044482706
-0.00041441424
2.6157198e-05
0.00054632277
5.3097817e-05
6.3692428e-07
0.00027103198
0.00057274526
-2.3505834e-05
-8.9427117e-05
0.00061347707
-3.0411379e-05
-0.00025205706
0.00039143295
2.8334559e-05
-0.00020163144
-2.3755959e-05
-3.9938206e-05
1.6100951e-05
-0.00050916655
1.6097529e-05
0.00018415911
-0.00067784039
6.3577927e-07
0.00028182948
-0.00040366442
-2.9611736e-05
0.00019893642
0.00012602398
-9.9836495e-06
0.00041090036
4.8871315e-05
9.564274e-05
9.8438263e-05
9.3595165e-05
-6.5569306e-05
0.00039333843
4.3450194e-06
-0.00019881847
0.00039427903
0.00014388918
-7.4662725e-05
0.00011156014
0.00018496336
0.00022373764
-0.00051637625
0.00020393383
0.00033381858
-8.0787365e-05
4.9338717e-05
0.00019279392
0.00030811426
-6.0324779e-05
-0.00013022408
0.00052569235
-0.00017969532
-0.00035557453
0.00046177883
-0.00030071285
-0.00021871441
-5.0994688e-06
-0.00024724243
9.7200863e-05
-0.00058510274
-0.00010359747
0.00038612279
-0.00052642411
-7.0674162e-06
0.00044984483
3.9635819e-05
-4.1380988e-05
0.00061777081
-4.5075025e-05
5.2965953e-05
0.00052829935
-5.9219125e-05
0.0002234249
0.00035437016
-3.9508158e-05
0.00037948599
-9.8698709e-05
-0.00011759898
-2.3339338e-05
-0.00014534667
-9.087197e-05
-0.00014817986
-0.00028339298
-2.6445062e-05
3.3543342e-05
-5.1399752e-05
-8.5707773e-05
0.00012205671
0.00052731694
-3.5631459e-05
0.00019960387
0.00057210278
-1.0707761e-05
0.00034387039
0.00030247897
6.202547e-05
0.00035707988
-2.82299e-05
9.9810973e-05
9.7692124e-05
-0.00024494863
5.0379238e-05
-0.00012458905
-0.00044248211
-2.1449958e-05
-0.00018664299
-0.00034587411
-0.00014269784
-8.061667e-05
-0.00010634078
-9.279362e-05
0.00026428913
-0.00015018126
-4.8225285e-05
-0.00016848446
-2.8366355e-05
-5.4769055e-05
0.00027128674
-2.4818085e-05
0.00031129652
1.4647457e-05
0.00010162589
0.00047416058
-8.0942185e-05
6.6895095e-05
6.6892558e-05
-0.0001063096
2.0921575e-05
-2.7409465e-05
-0.00014670817
0.00012525673
0.00016025405
1.3245326e-06
9.8106891e-05
0.0001321244
0.00041856534
2.0384489e-05
0.00023165371
0.00031577456
-9.6068738e-05
0.00037759379
-0.00013134962
-0.00013206417
2.6782026e-05
-0.00017939497
-0.00012282909
-0.00025068765
-0.00026796419
9.0723362e-06
-0.00011256517
-6.4292557e-05
6.3629028e-05
0.00053614619
-2.5454557e-05
0.0002150506
0.00030865147
-3.2528364e-05
0.00036006426
8.5583058e-05
4.6219737e-05
0.0002832784
6.6170229e-06
-5.3344077e-05
0.00015588107
-5.0650906e-05
2.1071449e-05
5.3886805e-05
-0.00026631575
6.9088039e-05
-9.1847765e-05
0.00012143261
5.5077749e-05
1.0320851e-05
0.0003483086
-2.8281631e-05
0.00026096296
0.00030782536
2.2299944e-05
0.00041052895
0.00013801583
0.00011655842
0.00027699624
7.1524991e-05
0.0001487406
0.00018339929
-0.00020320968
0.00011567834
0.00010988575
-0.00042145119
5.4995851e-05
6.7942357e-05
-0.00036176502
-4.2934958e-05
0.00011846707
-0.00024830929
0.00034538192
-1.070188e-05
2.3610441e-05
0.00029785384
-0.00036198211
0.00043441434
-7.3270839e-05
4.8187952e-05
-3.9902208e-05
0.00027415134
-0.00033649188
9.312833e-05
0.00029744305
-7.6674723e-05
5.6217044e-05
-0.000100854
0.00038762875
2.335952e-05
-0.00028243281
4.5450961e-05
-2.9899392e-05
-6.8386319e-05
-0.00027186662
4.9145033e-05
0.00010880026
0.00017266961
-7.0619735e-06
0.00025826779
0.00012467062
-2.4174417e-05
0.00021425389
-2.2603174e-05
-0.00010530669
6.7042194e-05
-7.5437658e-05
-5.1465971e-05
-6.7439008e-05
-0.00021828084
0.00011578466
-0.00022087711
8.4325986e-05
0.00012172393
0.00031337176
4.3993058e-05
0.00026121801
-1.8329456e-05
0.00032210365
-1.9600278e-05
0.00031238687
-4.699382e-06
0.00013154845
8.3233436e-05
-0.00022079073
4.3750871e-05
-0.00019475256
3.3236218e-05
4.7827289e-05
-1.0293199e-05
0.00026010998
9.3981807e-06
0.00040794961
1.8589914e-05
0.00052137417
3.673884e-06
0.00043133685
-6.9074959e-06
0.000161809
2.5423778e-05
-9.0680567e-05
1.6322575e-06
-0.00028060171
-0.00029309758
-0.00015121008
0.00014077356
0.00026288496
-6.2614764e-05
-1.0487785e-05
-2.3617195e-07
-0.00014103792
1.4560511e-05
0.00017962033
3.3697235e-05
0.000197547
-1.8178901e-05
-4.5160739e-05
-7.9244936e-08
7.338354e-05
7.8361849e-05
0.00020498565
0.00011470402
0.00020845007
0.00016981519
8.3046972e-05
0.00024779549
-0.00021373206
0.00023941518
-0.00026341185
0.00017624267
0.00010993278
-0.0001243617
0.00015630167
-0.00010600776
-0.00021520073
0.00015086222
-0.00011090477
-0.000196672
6.5942143e-05
-9.944032e-05
-5.8206888e-05
-0.00018012353
6.8602921e-05
0.00011151597
-0.00022911465
8.8003664e-05
0.00011913244
-9.6999084e-05
9.5533896e-05
6.9023718e-06
9.5347935e-05
-3.5979596e-05
-0.00013610594
0.00015457825
-6.900411e-05
-0.00024072488
0.00011985558
-4.8544229e-08
-0.00010678394
-0.00021328856
5.6486748e-05
4.9874534e-05
-0.00023135588
4.1631116e-05
0.00015659206
-0.00025340385
0.00011297304
3.3490568e-05
3.8696586e-05
-3.7479911e-05
0.00013950152
-3.8385817e-05
-4.2857348e-05
0.00014074558
-6.943632e-05
-0.00010370613
0.00017542713
-4.5994324e-05
-0.00014849577
0.00016742646
9.1063866e-06
-1.2075553e-06
-0.00019641348
5.8130888e-05
0.00013662939
-0.00025821764
6.3425285e-05
4.6478829e-06
4.2926691e-05
-4.3555544e-05
-0.00019533997
0.00013032306
-0.00010663548
-0.00016291912
-7.4957126e-05
-0.00014517557
3.6896505e-06
-0.00019236129
-7.5553461e-05
0.00018828213
-0.00022628018
-7.9560643e-06
0.00017866526
-7.179228e-05
-3.5372149e-05
0.00010382954
-6.9529705e-05
-0.00034767442
0.00055887526
-0.000128727
-0.0003215398
0.00020422747
-0.00016111294
-0.00014061477
-3.4950387e-05
-0.00011401011
0.00013110874
-0.00048638118
2.2502295e-05
0.00036062817
-0.00054650442
0.00011402754
0.00050773682
-0.00027825876
3.4787949e-05
0.00014801158
0.00059439598
-0.00016282864
-0.00027179637
0.00069896544
-0.00015499061
-0.00032333754
0.00013311266
6.6618643e-05
-0.00012775418
-0.00056773971
0.00011892957
5.0666315e-05
-0.00047910223
8.5423396e-05
0.00024492226
-0.00059935793
0.00015233391
0.000140615
0.00010818609
1.0200296e-05
0.00029354823
-0.00015990199
-0.00010294873
0.00048717757
-8.939378e-05
-0.00020530859
0.00041102073
5.1729609e-05
-8.314141e-05
6.8388492e-05
0.00018080462
0.00013656264
-0.00057296313
0.00020618431
0.00026806461
-0.00063964547
0.00018960109
0.00011346032
6.7275057e-05
-4.9439391e-05
-0.00010070611
0.00015660642
-0.00011282977
-1.224915e-05
-0.00026680748
-0.00014384902
0.00020640848
-0.0004730508
-4.1565603e-05
0.00042100425
-0.00053409826
8.6154898e-05
0.00044230409
-0.0002442423
0.00010976917
0.00040888383
9.2174763e-05
2.754241e-05
0.00050988444
-3.7770712e-05
0.00013839417
6.8798992e-05
-1.4931442e-05
0.00027744314
-0.00033223116
4.0632842e-05
0.00019626136
-0.00044912402
-4.6947349e-05
-5.9446711e-07
-0.00019569906
-0.00018039459
7.0740613e-06
-0.00014022515
-0.00023140991
0.00011695316
0.00049567343
-4.678801e-05
0.00018999067
0.00064157671
-2.6356558e-05
0.00033208723
5.76751e-05
-4.6335425e-06
0.00010245744
-0.00010368975
-0.0001346092
-0.00010222086
-0.0002037067
-2.0337995e-05
-0.00024203919
-0.00046264306
-1.8346505e-05
-0.00029004497
4.5922936e-05
0.00014938254
-1.2924112e-05
0.00013227171
0.00027620594
0.00032713017
0.00013484987
0.00045762717
0.00028407524
1.2419343e-05
0.00054955001
-1.5185184e-05
1.2572411e-05
0.0002315771
-0.00011390482
-1.5828675e-05
-0.00017783886
-0.00011644582
-1.5676812e-05
-1.0044608e-05
-0.0001451685
6.5033802e-05
0.00020432097
-0.00018897468
3.5146778e-05
0.00025798055
-0.00039974545
-5.2785783e-05
0.00018788651
-0.00047493975
-5.0846097e-05
-3.1054292e-06
-0.00045243171
0.00011839772
-3.8408624e-05
-0.00027056147
0.00012525138
0.00029054199
5.4478648e-05
0.00024263644
0.00024628546
-1.1565817e-05
0.00021535818
5.822199e-05
8.4074996e-05
0.00016512467
-0.00032711263
-8.2290899e-06
0.00016423391
-0.00046900164
4.1839829e-05
0.00010420166
-2.2507468e-05
-4.40713e-05
-0.00011352471
0.00024596239
-0.00011338342
4.4110307e-05
0.00027938913
3.0367643e-05
0.00031503098
0.00031260756
8.034841e-05
0.00030708583
0.0001768144
5.3642604e-06
0.00018568495
0.00013484343
3.1608291e-05
9.3754806e-05
-0.00011523144
0.00011913322
3.463651e-05
-0.00041767928
6.9150355e-05
-0.00037080426
7.2460831e-05
5.6467906e-05
-0.00027523648
0.00016594224
0.00030820634
-5.9257137e-05
0.00022777719
0.00051828774
5.1731976e-05
7.8478891e-05
0.00039266174
0.00019776259
-6.396227e-05
0.00020438469
0.00014706854
-0.00010259571
0.00014057275
3.9120177e-05
-4.2609021e-05
0.00016965631
-0.00014594529
-3.5368739e-05
0.00021006735
-0.00027711937
2.3559234e-05
0.0002202646
-0.00039354648
-0.00012170291
0.00015663332
-0.00047431408
1.1539629e-05
6.9320815e-05
-0.00042917177
0.00017983721
-9.28254e-05
-0.00019397243
0.00020728108
0.00018752335
5.418629e-05
0.00027191861
-4.3962595e-05
0.00038554122
-7.5000898e-05
0.00015354407
-9.9814847e-05
-0.00028602527
5.3801146e-05
-0.00036444959
9.9667721e-05
-0.0001828235
9.7572515e-05
5.5072108e-07
8.5721703e-05
0.00021037903
0.00011217742
0.00035897905
4.6804288e-05
0.00052565242
-2.8156069e-05
0.00052279744
-0.00011928396
0.0002779165
-0.00014737457
-9.12555e-05
-0.00015356411
-0.00018428714
-0.00016893571
-4.4121732e-05
-9.3156485e-05
-9.4867443e-06
0.00016613743
-2.7834103e-05
0.00033230593
-3.7278867e-05
0.0004410878
-6.9740936e-05
0.0004484275
-7.4923143e-05
0.00039026287
-0.00010425072
0.00028598835
-0.00011945677
3.2313699e-05
2.7156063e-05
-0.00023888668
8.1443783e-05
-0.00027976312
2.3146671e-05
1.7693007e-05
-0.00017492896
0.00014482562
-7.4765848e-05
-0.00020532335
8.4589266e-07
-7.9649893e-05
6.0539722e-06
-0.00026640064
-4.4633239e-05
0.00017506889
-0.00025772201
0.00015766603
0.00013281433
4.8579781e-05
8.3953512e-05
1.3989683e-05
0.0001231242
9.316349e-05
-3.9779789e-05
0.0001335514
-0.00011398633
-7.1945568e-05
0.00013125221
-0.00016629293
-0.00016112638
0.00015161441
-6.158937e-05
-0.00014729983
4.3203823e-05
1.5551506e-06