/*--------------------------------*- C++ -*----------------------------------*\
| =========                 |                                                 |
| \\      /  F ield         | OpenFOAM: The Open Source CFD Toolbox           |
|  \\    /   O peration     | Version:  v2012                                 |
|   \\  /    A nd           | Website:  www.openfoam.com                      |
|    \\/     M anipulation  |                                                 |
\*---------------------------------------------------------------------------*/
FoamFile
{
    version     2.0;
    format      ascii;
    class       volScalarField;
    location    "790/bottomWater";
    object      T;
}
// * * * * * * * * * * * * * * * * * * * * * * * * * * * * * * * * * * * * * //

dimensions      [0 0 0 1 0 0 0];


internalField   nonuniform List<scalar> 
1460
(
983.15299
976.90086
973.14833
969.9445
973.57594
965.97383
960.07934
957.76287
956.92256
957.44181
960.80528
959.90417
938.93094
933.54629
930.38724
927.60426
926.21645
923.91911
919.56738
912.31587
909.87772
911.93055
910.63439
912.47623
912.63851
911.16672
910.03672
908.13251
907.60254
910.15594
977.4042
973.54646
970.53262
968.05952
968.27515
964.21446
957.94073
957.13759
956.42022
956.58948
958.19417
957.28561
937.73904
930.6009
928.48475
926.58178
926.86567
924.85491
919.55379
910.16317
907.05914
907.56207
908.76023
909.06746
909.79108
909.5238
908.87153
908.39289
907.26855
908.72478
977.94192
975.72189
970.66797
967.80139
966.74444
964.40896
960.65167
957.10671
956.57542
956.46495
954.61637
952.2368
936.84063
930.73523
928.71111
927.85761
927.83828
926.21969
920.77708
909.46835
906.8633
907.58817
909.36513
909.40921
909.53993
909.53489
909.40305
908.48355
907.15658
906.92795
978.26683
976.41232
969.7196
966.86062
965.29665
964.40245
960.10137
955.39219
953.05736
951.81043
950.35374
948.33423
937.29685
931.20657
930.06628
930.52073
929.87934
925.47333
921.56819
909.03545
906.46334
907.50106
909.05957
909.27029
909.2731
909.47665
909.39022
908.86862
907.19274
906.58229
973.28538
971.23471
970.42093
967.27066
966.36112
966.05857
960.86853
955.95807
952.99139
950.29242
948.3259
946.17977
938.50237
933.87117
932.59216
930.2537
929.13521
927.60992
924.08607
908.93994
906.06494
906.46678
906.84401
907.21619
907.56806
908.29806
908.20784
907.70021
907.1537
906.38545
981.43588
977.74067
975.01028
972.41133
969.40738
970.72746
970.69311
967.98118
963.94978
964.91275
963.74099
954.24616
941.31028
933.58826
931.08911
924.25816
926.74111
926.93301
920.12276
914.70824
912.78845
911.18394
911.84219
912.50281
909.8439
910.01182
908.88513
907.75951
909.21201
907.50574
976.98637
974.47157
972.7493
971.64976
968.19261
967.18389
966.6069
964.48696
959.4068
960.63101
960.59425
951.12459
939.15854
932.40537
931.98357
924.93363
925.27305
924.84329
918.29714
914.63362
913.50154
911.20925
910.56228
910.62401
909.81176
909.08156
908.82919
908.61709
908.29914
908.29676
977.36339
975.66039
973.82199
971.50319
967.67641
964.67173
963.68494
964.61027
963.08078
961.74273
960.24404
950.40821
939.76061
936.67889
932.4508
926.32897
926.25517
925.10993
923.5503
918.98478
914.80868
910.82876
910.08806
910.23445
909.67688
909.12806
909.28972
908.50629
907.82206
908.1972
977.71471
977.21275
974.54239
970.31458
968.42152
965.44703
964.45659
964.28014
961.6924
959.10731
957.16964
949.57351
941.52767
936.27369
935.13496
932.23628
929.21557
925.39855
924.97184
914.22171
909.05519
909.54719
909.74055
909.79333
909.5329
909.22406
909.22193
908.53925
907.40046
908.3325
975.74417
974.93527
973.41557
970.2061
967.17321
966.40171
965.82868
963.01965
960.80595
957.63095
954.02724
949.20902
943.4787
939.09081
937.63391
932.85441
927.92257
922.55077
917.24336
906.26545
906.73682
907.1701
907.84974
908.26922
908.64061
908.10549
907.99835
907.46182
906.89935
906.61286
978.70726
976.72682
974.85452
973.84456
971.02916
970.47199
971.57373
972.26634
971.43274
971.25453
960.52619
958.97826
954.68253
933.92763
924.11459
918.40337
924.56012
927.68415
921.21745
916.85655
914.39034
913.86095
913.22149
911.92138
910.76939
909.64852
908.00321
907.36523
907.10679
905.02026
976.37125
975.2077
974.73282
973.14545
970.61466
968.74121
968.84369
968.72836
965.58196
960.50651
954.08462
949.60057
947.75263
928.34815
920.27125
917.58001
917.75304
921.79564
918.11928
914.62612
913.50178
911.46638
911.44585
910.30654
909.08146
908.61332
908.65943
908.50968
908.30194
907.58335
976.34278
976.08255
975.12517
973.26088
970.24755
967.2605
966.74068
968.28941
966.41802
963.13758
951.71174
940.63812
938.67441
928.72693
925.64043
917.91913
918.38488
921.64969
918.95714
916.21513
914.32668
910.92633
910.93939
910.10933
909.01902
908.75781
908.78371
908.38498
908.14234
907.72746
976.41182
976.21253
975.7546
972.89616
970.01881
968.00812
968.10774
968.1363
966.86551
965.71424
962.03559
939.78499
935.91112
925.07042
929.44031
918.72745
923.74336
921.58295
919.3422
915.01837
911.87788
909.86375
910.3158
909.9459
909.01304
909.05573
908.7694
908.2687
908.03634
907.88283
974.04444
974.05476
973.79582
971.8551
967.92452
967.86478
967.99371
967.96492
967.34999
966.86967
962.82976
954.72037
948.99247
940.23648
934.405
913.19805
916.26526
919.44909
916.70545
907.11308
907.77281
906.87619
908.41329
908.84823
908.09347
907.66374
907.82861
907.13421
906.71662
907.4154
977.00948
974.97368
973.83905
971.75558
970.73947
970.75712
969.54367
969.31846
970.66931
967.29754
964.03809
953.72827
948.76753
948.85394
940.72891
922.69039
923.62086
926.4992
921.26217
918.14293
914.38815
915.73568
914.18587
912.47786
910.89353
909.32729
907.61567
906.52446
906.31371
903.78524
974.05572
973.01066
972.43643
971.3827
969.57235
969.49353
969.10873
968.52606
967.80952
966.33241
964.56635
953.3514
941.39526
942.2367
931.97003
914.62003
916.60219
921.28929
917.62696
914.83078
912.12463
911.98383
912.08852
910.68314
908.8853
907.90437
907.84336
907.77883
907.5126
906.56008
973.94209
972.9825
972.16947
971.4678
968.62661
967.85004
968.58966
968.44304
967.86462
967.17492
965.14404
954.65439
934.92916
932.08969
923.79422
910.72859
913.46709
918.23449
916.37969
913.88013
912.39172
910.25296
911.42515
910.61089
908.94344
908.28031
907.96728
907.64975
907.53743
906.63958
974.01239
973.48701
973.07895
972.88226
969.9012
968.28269
968.27636
968.40331
968.02794
967.70829
965.79208
961.45534
939.61797
915.30307
916.34123
913.41891
913.3888
912.6939
909.16689
909.51359
909.54513
907.91148
907.39124
910.21817
909.07065
908.34164
908.02176
907.4162
907.41569
906.84924
973.51206
972.73858
972.32407
971.93577
969.16123
967.32652
967.80833
967.73439
967.34516
966.85444
965.58945
961.5974
938.82664
910.52636
906.80094
909.7353
911.25775
906.45396
906.87459
905.38608
908.26645
905.09588
905.09657
908.43208
907.73411
907.08715
907.01794
906.51283
906.24011
906.54715
974.64416
972.68097
971.19806
969.52843
966.65596
966.80713
964.99766
962.87823
963.03517
961.4624
959.58432
951.28229
937.75287
907.89545
919.90839
918.69052
915.7965
911.69695
909.98986
911.02541
910.08301
908.09978
906.98188
905.72062
904.77634
901.927
971.18061
969.86793
969.03568
967.92411
966.25635
965.31709
964.78889
962.99849
962.98205
962.39352
959.78939
950.42857
942.85202
902.56993
915.74201
914.90689
913.09196
911.10022
909.84163
909.66688
908.94054
907.28627
906.52469
906.67442
906.92217
906.11094
971.34167
970.39954
969.56454
967.94417
966.03209
964.00752
964.54818
963.15663
963.68196
962.95357
959.66772
949.58957
934.10156
898.92985
912.23381
913.4231
912.65312
911.40105
909.7514
907.92342
907.23561
906.72587
906.40484
906.57772
907.01543
906.34744
971.61534
971.61554
969.49958
967.4031
967.05061
965.29162
964.3991
963.42693
964.55177
965.32409
962.84105
958.22011
938.72032
889.12634
906.47881
908.81349
908.42134
908.50654
908.37974
906.76226
906.08028
906.2451
906.20246
906.44234
906.72745
906.77208
970.59198
969.57078
968.62379
966.59842
964.81233
964.56396
963.81754
963.17301
963.45884
962.83475
960.61844
957.95106
945.36697
892.56581
900.74595
903.24963
906.0336
905.91369
905.43252
905.46387
905.72198
905.88024
906.06189
906.03106
906.00182
906.31496
972.29525
970.45945
969.06225
966.66698
968.52211
968.86047
963.13611
960.76063
959.42518
956.99172
951.56443
951.26174
936.41569
908.85919
916.39004
916.56
914.90968
912.53247
910.52121
909.03657
907.96803
907.06322
905.44237
903.98412
902.26833
898.51836
969.12442
968.01912
968.63257
964.64285
965.32251
965.81183
963.17572
961.51527
957.82221
954.22694
948.80369
945.43051
935.58231
905.00463
909.52612
912.75565
912.56177
910.79952
910.06378
909.78672
908.75224
908.24927
906.13508
906.35529
906.66394
905.37909
969.22206
969.01089
968.66131
964.47013
964.21317
963.65372
962.49498
961.67256
958.89187
956.57879
946.69624
939.70149
931.04193
890.95863
910.21283
912.5083
912.45824
911.42343
911.18535
909.77232
908.64609
907.9413
905.61031
906.18365
906.79137
905.63409
969.56782
970.42079
968.79049
964.76114
963.78139
962.54223
962.03135
961.75131
959.18165
957.95792
958.79366
950.21241
937.85753
889.98291
907.91912
911.62502
912.05588
911.67454
911.27358
908.88016
907.86788
907.26999
905.1057
905.74456
906.57965
906.01135
968.11878
968.16099
967.5409
964.65821
962.60174
962.32482
961.88329
961.16804
959.34834
956.9485
954.62435
951.29643
944.60179
895.26128
904.97041
909.11725
908.9973
908.48246
908.05212
907.54631
907.45272
906.42827
904.71641
905.01869
905.1386
905.36409
970.19442
967.20536
965.05319
969.77472
970.31082
965.91624
959.84689
958.21087
959.42804
957.81062
941.86987
927.6681
917.28979
914.15434
916.61804
910.23182
910.957
913.43484
910.28431
913.8392
915.20956
913.71234
911.47159
909.82632
909.08602
907.92142
906.38963
903.73025
900.58486
894.44667
965.75619
964.42521
963.94349
965.53282
965.9559
963.77582
960.24198
959.72698
959.12301
951.24466
936.60347
927.24431
921.53222
921.33264
920.90088
912.97468
911.926
910.63514
907.80075
908.4664
911.29821
911.9888
910.34912
909.62837
909.32656
909.03136
906.56579
906.48224
906.31393
904.24065
965.71226
964.43986
963.87387
963.74176
964.95842
962.83182
961.17794
960.47052
957.64544
948.97837
933.98007
928.99234
925.91856
924.14082
924.01291
914.09687
909.55389
898.78872
906.89651
910.65299
911.37651
911.90672
910.51857
910.1023
909.99876
908.9884
906.29025
906.29295
906.14716
904.56889
966.00644
966.41908
965.9359
965.27139
965.20307
961.26421
959.39285
959.4647
958.15466
950.13133
949.26175
939.5811
932.92091
928.70189
928.25329
912.85044
912.03742
903.14377
909.27994
910.10004
911.25649
911.86847
910.71936
910.44319
910.12704
908.09534
905.62913
906.05867
905.77368
904.86499
965.90575
966.0613
965.97833
965.95641
965.60155
960.58851
958.50693
957.08599
955.28752
950.55544
947.70055
943.65647
939.95014
935.00272
930.35275
910.21345
904.00496
902.246
906.55413
906.27888
908.98055
910.29406
908.67556
908.14602
908.24681
906.29324
904.51731
904.76429
904.90216
904.53353
969.19399
966.44841
963.29283
968.18183
962.93086
959.25988
956.07274
954.68529
956.09432
954.05155
932.22633
926.72907
926.26371
927.31257
921.81191
918.74038
918.36898
908.65562
913.29335
915.75361
915.29538
913.51126
909.89592
905.82842
904.79234
905.43805
904.96455
903.10964
894.23918
887.18916
963.2842
961.71749
960.84878
962.36664
958.16957
956.46915
955.87862
955.34405
955.23702
954.78853
932.62821
927.53951
928.0843
930.36961
924.31579
919.9304
917.09932
907.15182
909.00598
911.39594
913.1807
912.36353
911.23187
910.5157
907.81282
907.28732
906.48925
906.78548
906.74947
903.68075
963.45428
962.40741
960.477
959.91989
958.63422
954.94614
955.8774
955.40456
954.43925
953.42597
932.57081
927.9183
927.20897
930.19734
928.86394
927.35156
917.17479
906.66087
908.56003
911.40973
912.61692
912.10326
911.34854
910.36899
908.0136
907.75455
907.24732
906.68642
906.12715
903.88366
963.63362
962.94146
961.90106
960.38879
959.73654
952.34674
953.23322
954.177
953.82304
952.57974
932.86988
932.62485
931.10512
930.82068
930.92193
928.57963
918.85211
907.51307
908.14862
909.52075
910.1155
910.36798
910.43377
909.8379
908.25664
907.60492
906.8336
906.12443
904.96875
904.0907
964.11089
963.79973
963.38366
963.71833
960.47881
951.22488
950.58854
950.79214
950.32657
950.20353
933.10427
932.39931
931.29556
929.58599
928.6514
927.53427
920.88571
905.49498
906.51241
907.40192
908.03725
908.65348
909.01108
908.98163
907.84304
906.11346
904.48869
904.68142
904.25331
903.90922
969.77406
970.40949
968.35319
966.7976
963.40337
961.12371
957.17503
955.09644
957.83618
951.88921
931.84371
928.21906
927.79433
928.99465
926.32344
923.57844
923.39305
919.26639
918.90168
916.86653
914.36209
913.39833
909.51938
909.25764
904.62173
904.71852
905.24343
903.18737
899.06538
894.04722
962.84973
964.89874
963.35488
961.49314
958.92322
957.67694
957.21231
955.18377
955.58322
953.95921
932.81193
930.2074
930.77393
932.35896
926.72013
922.68454
918.70414
915.7292
916.32956
914.6651
912.78289
911.94444
910.92592
910.70545
908.3587
906.04453
906.02598
906.15328
906.1652
903.62098
962.62768
962.66862
960.42552
959.71055
956.40383
957.14919
957.56997
954.7675
952.29731
949.73543
932.69233
929.49712
928.84682
931.82652
928.82842
924.575
920.35539
915.50687
913.37493
915.8288
912.27179
911.48064
910.57379
909.9589
908.3689
906.19031
905.96093
906.04505
905.36797
903.86338
961.11282
960.09261
958.29361
958.58156
953.32913
952.06789
952.40187
950.49665
948.33816
946.2508
933.02057
930.52657
930.53682
932.36583
932.79613
931.34866
922.49467
914.7918
913.177
918.2361
910.6034
910.5665
910.39733
909.84095
908.54864
906.4021
905.56751
905.83394
904.79789
904.07549
961.98689
962.05808
962.03649
960.2592
951.37684
950.07158
949.48059
947.68186
945.91268
943.59887
933.563
932.98904
932.49335
931.5289
930.70045
927.75997
923.34217
919.49985
920.03226
919.76794
909.59332
908.60212
908.96648
908.84593
908.2092
906.84953
904.88975
904.19232
904.24149
903.86448
964.08383
964.81619
967.48528
969.76537
971.71742
970.91075
963.06109
958.47703
951.94452
945.37536
939.17327
938.58599
937.57952
936.44525
937.35368
938.2354
929.96768
921.26431
919.04928
916.65252
916.33474
914.58923
912.45361
909.07487
904.20333
905.1768
904.70872
902.82711
901.76128
896.98765
962.04265
962.96746
963.85796
964.88069
966.06399
966.42282
960.08618
959.1523
955.1295
941.59564
938.37216
937.37219
937.49644
936.73744
934.55281
932.05337
922.10221
918.29617
917.41236
917.03037
915.89276
914.62857
914.31354
913.24613
907.4354
906.46688
906.42622
905.15419
905.79637
904.4585
961.7561
962.84842
963.25044
964.31969
964.79509
964.97621
962.18639
958.43424
955.28307
942.7939
937.28607
936.23152
937.17702
935.71594
933.91044
932.33314
924.02732
918.85595
917.75639
917.23729
915.95229
913.83419
911.807
913.03323
908.3247
907.99107
906.47339
904.88249
905.82988
904.99884
960.40569
956.96251
954.87457
952.77613
950.87501
952.87932
954.97841
953.8493
952.20606
944.74658
939.90173
938.51776
938.36289
936.18886
932.27892
933.01458
926.25847
922.51038
921.34347
920.43752
917.91787
913.9983
911.77253
912.95552
908.48464
907.69673
905.94532
904.30158
905.7628
905.46551
960.77303
959.19585
957.05804
952.33305
949.9384
949.40945
949.05873
948.39767
945.73114
944.10942
938.19884
938.01317
936.92487
934.79013
930.86376
930.33761
926.16034
924.12722
922.73357
921.49284
920.61539
913.44499
909.48799
910.41035
908.00047
907.17475
905.82173
903.90255
903.93911
903.98251
)
;

boundaryField
{
    minX
    {
        type            zeroGradient;
    }
    maxX
    {
        type            zeroGradient;
    }
    minY
    {
        type            fixedValue;
        value           uniform 1073;
    }
    minZ
    {
        type            zeroGradient;
    }
    maxZ
    {
        type            zeroGradient;
    }
    bottomWater_to_rightSolid
    {
        type            compressible::turbulentTemperatureCoupledBaffleMixed;
        refValue        nonuniform List<scalar> 
130
(
747.90545
755.57866
763.55374
771.53361
779.20153
786.3092
792.69102
798.24338
802.90664
806.64642
809.45051
811.31815
812.25062
742.04146
751.04466
760.21371
769.15889
777.54795
785.1766
791.92265
797.72287
802.5492
806.39869
809.27361
811.18392
812.13829
730.29677
742.38951
754.09562
764.94763
774.69365
783.26776
790.65576
796.8815
801.98989
806.02421
809.0155
810.99526
811.9851
712.81097
730.68788
746.47731
760.03458
771.52553
781.22585
789.34973
796.04574
801.45405
805.67837
808.78918
810.83901
811.8602
692.27379
719.65934
740.25879
756.39318
769.34417
779.88951
788.51343
795.524
801.12902
805.4736
808.65867
810.75104
811.79082
692.34655
719.74539
740.35618
756.48576
769.43221
779.96755
788.57577
795.56943
801.15367
805.47654
808.65069
810.7373
811.77378
712.95812
730.85358
746.66775
760.23737
771.73658
781.40795
789.48446
796.14046
801.50318
805.68382
808.76958
810.80485
811.81597
730.49414
742.60338
754.37156
765.23913
774.97504
783.50794
790.84173
797.00825
802.05394
806.03069
808.98692
810.94434
811.91966
742.33612
751.40444
760.65237
769.57872
777.92044
785.48495
792.15876
797.88151
802.63248
806.41451
809.2448
811.13092
812.07334
748.23898
755.98502
764.06747
772.06967
779.66891
786.6793
792.97148
798.4278
803.00354
806.6706
809.42333
811.26545
812.18891
)
;
        refGradient     uniform 0;
        valueFraction   uniform 0.99248593;
        value           nonuniform List<scalar> 
130
(
749.25577
756.84485
764.64622
772.54449
780.15781
787.2149
793.55156
799.06485
803.69856
807.40955
810.18875
812.03826
812.95796
743.39785
752.29355
761.31116
770.19265
778.52193
786.09836
792.79687
798.5563
803.34235
807.16211
810.0114
811.90314
812.84818
731.71807
743.69932
755.24539
766.02082
775.68685
784.2081
791.54385
797.71716
802.78392
806.78919
809.75279
811.71453
812.70217
714.26604
732.01174
747.67135
761.14839
772.52913
782.15663
790.24451
796.88497
802.24778
806.43985
809.5235
811.55586
812.5717
693.77875
721.02001
741.48348
757.51755
770.37034
780.83283
789.39219
796.35204
801.91614
806.22943
809.39036
811.46678
812.5011
693.8712
721.13713
741.62422
757.63172
770.47702
780.92996
789.46972
796.41013
801.94475
806.22225
809.37482
811.44665
812.47704
714.38041
732.17379
747.86705
761.35502
772.77769
782.36423
790.3761
796.98285
802.29062
806.42647
809.49091
811.51192
812.51267
731.80917
743.83501
755.52145
766.31212
775.97951
784.45099
791.72944
797.84109
802.83588
806.77053
809.706
811.64549
812.61089
743.66739
752.67155
761.84799
770.6309
778.90241
786.41281
793.03557
798.71054
803.41559
807.15448
809.95827
811.83058
812.76308
749.56066
757.23801
765.25038
773.18586
780.6742
787.60208
793.85392
799.25115
803.78629
807.41562
810.13328
811.96183
812.87867
)
;
        Tnbr            T;
        thicknessLayers List<scalar> 0();
        kappaLayers     List<scalar> 0();
        kappaMethod     fluidThermo;
        kappa           none;
        alphaAni        none;
        alpha           none;
        field           T;
    }
    bottomWater_to_leftSolid
    {
        type            compressible::turbulentTemperatureCoupledBaffleMixed;
        refValue        nonuniform List<scalar> 
130
(
930.72778
930.69933
930.64268
930.54188
930.40136
930.20954
929.94948
929.64994
929.34271
929.0439
928.77168
928.54529
928.39026
930.72474
930.69619
930.63119
930.52063
930.37062
930.18345
929.95122
929.67541
929.37892
929.07466
928.78037
928.52409
928.35783
930.64771
930.62099
930.55493
930.43959
930.27992
930.09528
929.87886
929.62808
929.34785
929.04676
928.73047
928.43512
928.23252
930.50635
930.47092
930.39589
930.27454
930.10496
929.90436
929.68153
929.4284
929.14676
928.84162
928.52111
928.2038
927.92979
930.29929
930.25483
930.16336
930.02052
929.83656
929.62293
929.37982
929.10961
928.81612
928.50055
928.17604
927.87202
927.63203
930.08944
930.0429
929.94042
929.77692
929.56933
929.32927
929.06127
928.76741
928.44865
928.11463
927.78848
927.50277
927.30695
929.88421
929.83603
929.73047
929.56377
929.33516
929.04822
928.7451
928.42831
928.09307
927.73994
927.40513
927.1303
926.96267
929.68835
929.6343
929.51806
929.33398
929.07081
928.74808
928.43112
928.11119
927.77911
927.43219
927.06244
926.80333
926.65956
929.52143
929.46207
929.33388
929.12761
928.84193
928.54184
928.23543
927.91744
927.58946
927.25473
926.92226
926.68774
926.55965
929.41797
929.34697
929.20246
928.98295
928.71875
928.43774
928.14643
927.84405
927.52937
927.21824
926.92185
926.70848
926.58876
)
;
        refGradient     uniform 0;
        valueFraction   uniform 0.99248593;
        value           nonuniform List<scalar> 
130
(
931.04746
931.0038
930.9415
930.81788
930.67159
930.47895
930.18184
929.84764
929.52044
929.20361
928.91867
928.67784
928.46631
931.06298
931.02853
930.95259
930.81875
930.64718
930.45561
930.22082
929.92594
929.61505
929.28927
928.97016
928.67955
928.47154
930.97375
930.94735
930.87984
930.75074
930.56279
930.3791
930.16527
929.91616
929.63342
929.33098
928.98665
928.63276
928.38843
930.8295
930.78851
930.71094
930.58758
930.39845
930.18553
929.96802
929.71622
929.43377
929.12722
928.79961
928.45467
928.01135
930.60204
930.55022
930.45233
930.29535
930.09937
929.88547
929.63858
929.36556
929.07641
928.75849
928.41976
928.09798
927.76498
930.37523
930.32934
930.22296
930.03899
929.81753
929.57719
929.30788
929.01085
928.68081
928.33129
927.9901
927.68152
927.43682
930.15492
930.10826
930.00287
929.83725
929.60768
929.28521
928.96874
928.64369
928.29748
927.9114
927.55765
927.25447
927.0602
929.94704
929.89107
929.77257
929.59239
929.30685
928.91698
928.59758
928.28157
927.94847
927.60321
927.10785
926.84535
926.69435
929.76542
929.70704
929.57962
929.3616
929.01129
928.70363
928.39509
928.06599
927.72716
927.37754
926.97219
926.73511
926.60424
929.65358
929.57126
929.4118
929.15845
928.87822
928.59535
928.3036
927.99853
927.66619
927.34523
927.00665
926.79349
926.66647
)
;
        Tnbr            T;
        thicknessLayers List<scalar> 0();
        kappaLayers     List<scalar> 0();
        kappaMethod     fluidThermo;
        kappa           none;
        alphaAni        none;
        alpha           none;
        field           T;
    }
    bottomWater_to_heater
    {
        type            compressible::turbulentTemperatureCoupledBaffleMixed;
        refValue        nonuniform List<scalar> 
92
(
729.43363
731.4576
735.39966
741.01574
720.14765
722.51939
727.16785
733.84491
700.48866
703.54616
709.68775
718.86105
345.30377
342.51698
342.46846
345.11039
421.39623
417.9312
418.00008
421.42869
486.32231
483.41519
483.96129
487.52156
541.57179
539.76137
541.50107
545.7618
668.48064
587.30904
672.36405
587.38758
680.75297
591.82511
694.31696
599.1471
345.30377
345.11039
421.39623
421.42869
486.32231
487.52156
541.57179
545.7618
587.30904
599.1471
345.20196
345.20196
342.45021
342.43268
345.08514
345.08514
421.26518
421.26518
417.86844
417.9757
421.41278
421.41278
486.26996
486.26996
483.40304
483.95522
487.47619
487.47619
541.62659
541.62659
539.81302
541.51991
545.76028
545.76028
587.4301
587.4301
587.48992
591.87251
599.17097
599.17097
668.87899
672.72847
681.00703
694.48751
700.72553
703.81484
710.01247
719.13739
720.34242
722.73626
727.41868
734.11526
729.68897
731.7182
735.68239
741.31499
)
;
        refGradient     uniform 0;
        valueFraction   nonuniform List<scalar> 
92
(
0.99248593
0.99248593
0.99248593
0.99248593
0.99248593
0.99248593
0.99248593
0.99248593
0.99248593
0.99248593
0.99248593
0.99248593
0.99248593
0.99248593
0.99248593
0.99248593
0.99248593
0.99248593
0.99248593
0.99248593
0.99248593
0.99248593
0.99248593
0.99248593
0.99248593
0.99248593
0.99248593
0.99248593
0.99248593
0.99248593
0.99248593
0.99248593
0.99248593
0.99248593
0.99248593
0.99248593
0.99248593
0.99248593
0.99248593
0.99248593
0.99248593
0.99248593
0.99248593
0.99248593
0.99248593
0.99248593
0.99248593
0.99248593
0.99248593
0.99248593
0.99248593
0.99248593
0.99248593
0.99248593
0.99248593
0.99248593
0.99248593
0.99248593
0.99248593
0.99248593
0.99248593
0.99248593
0.99248593
0.99248593
0.99248593
0.99248593
0.99248593
0.99248593
0.99248593
0.99248593
0.99248593
0.99248593
0.99248593
0.99248593
0.99248593
0.99248593
0.99248593
0.99248593
0.99248593
0.99248593
0.99248593
0.99248593
0.99248593
0.99248593
0.99248593
0.99248593
0.99248593
0.99248593
0.99248593
0.99248593
0.99248593
0.99248593
)
;
        value           nonuniform List<scalar> 
92
(
730.96984
732.96896
736.86381
742.42929
721.79289
724.13584
728.71349
735.30328
702.28995
705.28085
711.21696
720.34434
349.83889
347.01184
346.82813
349.45733
425.30991
421.79345
421.73166
425.14943
489.67211
486.72402
487.16801
490.72207
544.38004
542.59085
544.2956
548.52417
670.29944
589.73776
674.12564
589.7877
682.47351
594.21386
695.94708
601.49233
349.75542
349.33915
425.3145
425.04408
489.68679
490.61297
544.55572
548.34189
589.99919
601.35183
349.64436
349.47705
346.76448
346.69916
349.32139
349.33716
425.12969
425.02264
421.6482
421.69516
425.04656
425.09856
489.6119
489.56007
486.71377
487.18736
490.50804
490.64771
544.60377
544.53501
542.73169
544.31013
548.34671
548.51248
590.11382
590.04172
590.06617
594.2646
601.39575
601.4615
670.8786
674.66423
682.72936
696.06183
702.44518
705.50427
711.64696
720.65337
721.92931
724.29897
728.92412
735.53716
731.23015
733.21464
737.14502
742.70399
)
;
        Tnbr            T;
        thicknessLayers List<scalar> 0();
        kappaLayers     List<scalar> 0();
        kappaMethod     fluidThermo;
        kappa           none;
        alphaAni        none;
        alpha           none;
        field           T;
    }
}


// ************************************************************************* //
