/*--------------------------------*- C++ -*----------------------------------*\
| =========                 |                                                 |
| \\      /  F ield         | OpenFOAM: The Open Source CFD Toolbox           |
|  \\    /   O peration     | Version:  v2012                                 |
|   \\  /    A nd           | Website:  www.openfoam.com                      |
|    \\/     M anipulation  |                                                 |
\*---------------------------------------------------------------------------*/
FoamFile
{
    version     2.0;
    format      ascii;
    class       volVectorField;
    location    "790/bottomWater";
    object      U;
}
// * * * * * * * * * * * * * * * * * * * * * * * * * * * * * * * * * * * * * //

dimensions      [0 1 -1 0 0 0 0];


internalField   nonuniform List<vector> 
1460
(
(-0.00045151346 -0.015640346 0.00035289707)
(-0.0031057364 -0.01584192 0.00096079023)
(-0.0036123813 -0.012784826 0.0012014096)
(-0.0012020279 -0.011151901 0.00058046993)
(0.0012265132 -0.020047042 -0.00040938807)
(-0.00060910693 -0.018675142 0.0015059568)
(-0.0028778745 -0.01618005 0.0021069749)
(-0.0020440835 -0.011227871 0.0021684341)
(-0.00028535036 -0.0123624 0.0019937146)
(0.0021413159 -0.010950178 0.0011981699)
(0.0026132823 -0.013192021 0.00084814735)
(0.00056999556 -0.015606868 0.00082731223)
(-0.0008951717 -0.01685753 -0.00013577259)
(-0.0022858764 -0.015964198 -0.00048799808)
(-0.0030397657 -0.017028874 -0.0012343777)
(-0.0028164394 -0.017674842 -0.00011293094)
(-0.0026665408 -0.014187257 0.0019251114)
(-0.0019202237 -0.013145418 0.001957736)
(-0.0017030113 -0.012254458 0.002372338)
(-0.00042373581 -0.012639314 0.0020110964)
(0.0021615723 -0.012532837 0.0012652563)
(0.0012728755 -0.016468675 -0.00029868452)
(0.0021418469 -0.013171621 0.001181346)
(0.0027831975 -0.014337801 0.00081114801)
(0.0010597627 -0.016288896 0.00028715125)
(-0.0019665862 -0.016789008 0.00085881727)
(-0.0038525126 -0.015324167 0.00055776464)
(-0.0027303427 -0.012295792 0.00078703698)
(0.00041067921 -0.010806517 0.0017024196)
(0.0018724328 -0.015966487 0.00098970855)
(-0.0037073714 0.017794076 0.0013240864)
(-0.0043888611 0.017661054 0.0016724695)
(-0.0019018653 0.0086680637 0.0013619985)
(0.0017361992 0.001661765 -0.00015608323)
(0.0059078895 0.01766353 -0.0031018009)
(-0.00021573066 0.020078761 -0.0012815478)
(-0.0057018108 0.01500823 0.001330222)
(-0.0013869972 0.0013464283 0.00074942192)
(-0.00018783772 0.00049143787 0.0008610228)
(0.0010565288 0.0013788743 -0.0013681302)
(0.0053242048 0.014630697 -0.00044502885)
(0.0032465256 0.017558908 -0.00051764937)
(-0.0016606022 0.018438209 -0.0021311646)
(-0.004438814 0.017687466 -0.0031618758)
(-0.0052687684 0.017462537 -0.0039411154)
(-0.0058275188 0.017592448 -0.0018866444)
(-0.0024654881 0.0079402667 0.00096890884)
(-0.0019740728 0.0066467686 0.0011527869)
(-0.001715695 0.0017760092 0.0016482723)
(-0.0010664243 -0.00086430181 0.0013705689)
(0.00085177721 0.0040798839 0.00057959423)
(0.0028301029 0.016307177 2.918286e-05)
(0.003049343 0.0056598972 0.0012319523)
(0.0059249073 0.01439875 0.0014518304)
(0.0052278082 0.01798456 0.0016418308)
(-0.0052666571 0.018811541 0.0011617979)
(-0.0071767394 0.015633814 0.00078143137)
(-0.0023087972 0.0023923771 0.00074344662)
(-0.001097886 -0.00098365125 0.00061362576)
(0.003871378 0.016729098 0.002948659)
(-0.00022746696 0.00061603851 0.00078428133)
(0.0015738514 -0.016725705 0.0008462873)
(0.0013685589 -0.015366141 0.00081850326)
(0.00035154367 -0.014355268 7.8822067e-05)
(-0.0020755041 -0.01068169 0.0020642397)
(-0.0020708222 0.004650329 -0.00060301909)
(0.0013105414 -0.014972013 0.0013484556)
(0.0022453939 -0.014481891 -0.0016548294)
(-0.00031272701 -0.014271561 -0.001934248)
(-0.0041926617 -0.014644663 -0.0035409313)
(-0.005291137 -0.0087253374 -0.00135549)
(-0.0017185953 0.0024959887 -0.0005286117)
(-0.0022055417 0.0033799345 -0.00010019217)
(-0.00094333052 -5.8001159e-05 0.00010116348)
(8.1055281e-05 -0.004339438 0.00070145717)
(0.0033076381 -0.013684304 0.0013464108)
(0.0025963001 -0.016073928 -0.0023047096)
(-0.00053063518 -0.013763948 -0.0032799741)
(-0.00050434547 -0.013462665 -0.00096595081)
(-0.0013461925 -0.014240963 -0.0009310251)
(-0.003073664 -0.013818883 2.5093987e-05)
(-9.0373749e-05 -0.015169025 0.0035430099)
(-0.00011988642 -0.016441938 -0.0017968449)
(-0.0050261642 -0.014956004 -0.0017791582)
(0.0031739439 0.00074356816 -0.00063073632)
(-0.0021269428 0.0059051832 0.0011448639)
(0.0050166528 -0.01350932 -0.00010122959)
(-0.00091155296 -0.015158258 -0.00056027677)
(-0.0042122642 -0.014225085 -0.001594273)
(-0.0043224754 -0.014147578 -0.00062043458)
(0.0030110655 0.0083188788 0.00075427071)
(0.0014166924 0.012532871 0.0010660412)
(-0.0010678779 -0.0011904602 -0.00049141951)
(-0.00096246673 0.00076279185 0.00077699274)
(-0.0041496747 0.011333193 0.0019449221)
(-0.0027261943 0.0071993573 0.0020817673)
(0.00017296033 -0.0014074102 -0.0014631199)
(-0.0029295023 -0.0012595088 -0.0011461948)
(-0.0018399743 0.0056663592 0.00078525023)
(-0.0037134986 0.01009965 -0.0001632137)
(-0.005525728 0.0092163591 -0.0010055837)
(-0.0034904345 0.0083163597 0.0001304392)
(-0.0011696989 0.009485425 0.0005705445)
(0.0010524998 0.0084978831 0.0015359168)
(0.0034865437 0.0083912464 0.0014964676)
(0.0049975536 0.011587576 -0.00066161162)
(0.0012434163 0.011691092 -0.0021704296)
(-0.0022881595 0.0064003252 -0.002960687)
(-0.00041738175 -0.0027201621 -0.00066064709)
(-0.0019215516 -0.0041371994 -0.0012828827)
(-0.0014548478 -0.0018871986 -0.0015262371)
(-0.001406051 0.0061963599 -0.00089726234)
(-0.0008308699 0.011392593 -0.00033961763)
(-0.0038932667 0.0098574601 -0.0023522023)
(-0.00055469352 0.0073273659 -0.00097309789)
(0.0019631593 0.0087609109 0.00075771514)
(0.0055403181 0.011207639 0.00013938267)
(-0.0028658751 0.0097739082 -0.0010881946)
(0.002026867 -0.0026596253 -0.001223793)
(-0.0016524338 -5.2669656e-06 -0.002257341)
(0.0014867889 -0.0033542455 -0.0013169964)
(0.0035405562 -0.011039143 -0.0020239332)
(0.0033387154 -0.010773667 -0.0027887564)
(-0.0033913964 -0.009235158 -0.0010689032)
(-0.0029813343 -0.0071256179 -0.00099528718)
(0.00065932972 -0.0071218894 -0.0024310953)
(-0.0014241227 -0.011228925 -0.0041662097)
(-0.0053350578 -0.009524013 -0.0031189336)
(-0.0061963747 -0.009401455 -0.0021578139)
(-0.0055130907 -0.007857197 -0.00026968351)
(-0.0041998263 -0.0042789707 0.00063874781)
(-0.0024584508 -0.00032541859 0.00093286418)
(3.0626747e-05 0.0021672598 0.0017101801)
(0.0030773159 -0.0018937063 0.001483722)
(0.0023271201 -0.008507961 0.001071797)
(0.0017832737 -0.0063419086 0.0016542438)
(0.0034452042 -0.0034459592 0.0013383579)
(0.0055890504 -0.0070037581 0.00086129769)
(0.0039905505 -0.0091832277 -0.0012235819)
(-0.0016596048 -0.0099616186 -0.0027264243)
(-0.0053182422 -0.010314896 -0.0036404203)
(-0.0067074669 -0.010937502 -0.0032065808)
(-0.0055081658 -0.010219409 -0.0024022092)
(-0.0033880141 -0.0078699605 -0.0022774625)
(-0.0012840665 -0.0032420979 -0.0023662309)
(0.0015295051 5.1559628e-05 0.00049033993)
(0.0045817645 -0.0030553804 0.00024805964)
(0.0068830585 -0.0071149638 -3.7451445e-05)
(0.0061519573 -0.0095591988 -0.0013960742)
(6.2344325e-05 -0.0096600952 -0.0025261609)
(-0.0005590511 -0.015893351 -0.0015491697)
(-0.0029219956 -0.016117076 -0.0011054778)
(-0.0040676144 -0.014539115 -0.0012079956)
(-0.002812233 -0.011881322 -0.00015429631)
(0.0010623255 -0.012548976 0.00020473987)
(0.0028602552 -0.015449077 -0.00058608625)
(0.0024822281 -0.018029557 -8.484906e-05)
(0.00074523096 -0.01587068 0.0013719446)
(0.00084776564 -0.017015151 0.0021075377)
(0.0017509506 -0.016284458 0.0014665374)
(-5.7264968e-06 -0.01386082 -0.0027314477)
(-0.00027862902 -0.015336076 -0.0017919339)
(-0.001040488 -0.016149795 -0.001244807)
(-0.0036421415 -0.013547499 -0.0013365454)
(-0.0027263977 -0.011967809 -0.0011385197)
(0.0013182683 -0.012692786 -0.001598101)
(0.0026920484 -0.016631043 0.00072351763)
(0.00089797677 -0.017568054 0.0023034339)
(-0.0012658458 -0.01652568 0.0040751116)
(-0.0016239247 -0.013935666 0.0042739625)
(-0.0013126793 -0.01259726 0.0026019241)
(0.0019417595 -0.012288081 6.5317803e-05)
(0.0032341982 -0.014003335 0.00094915954)
(0.0013937923 -0.014715041 0.00024787435)
(-0.0010456158 -0.018371327 0.00064122827)
(-0.0023694176 -0.016423324 0.00018754579)
(-0.0038744416 -0.015519893 -0.0010552139)
(-0.0011088124 -0.011544669 0.00013645779)
(0.0023649872 -0.014314589 0.0013167759)
(-0.00046779162 -0.017303884 -0.0011488165)
(-0.0040820094 0.017991933 -0.00035467049)
(-0.0052480621 0.018092086 6.8234739e-05)
(-0.0044243501 0.013901621 -0.00056124441)
(-0.00050255257 0.0026649643 -0.00027325286)
(0.001692344 0.00065456883 0.00042160846)
(0.0042314478 0.013402816 -0.00056102306)
(0.0040731217 0.019197787 0.001430085)
(0.0017021137 0.017449169 0.0043304025)
(-0.00060196888 0.014891602 0.0057434764)
(0.0029211571 0.017519178 0.0057192384)
(0.0017820661 0.016343537 -0.0013711416)
(0.0003941312 0.017165378 -0.003725259)
(-0.0022278671 0.018144007 -0.0030686742)
(-0.0050636821 0.014127844 -0.0023265461)
(-0.00014226574 -0.0018345816 -0.0024387364)
(-0.00027869295 0.0013503456 -0.0019544515)
(0.0056151226 0.01656923 0.001100462)
(0.0012663253 0.018591754 0.0050282349)
(-0.0028548853 0.016773313 0.0072514864)
(-0.0021368637 0.0099754832 0.0053898582)
(0.00033651072 0.0043716796 0.0025765934)
(0.0024591542 -0.00049848838 0.00022354003)
(0.0070220504 0.013155247 0.0030303288)
(0.0057441598 0.017048913 0.0022473069)
(0.0014331569 0.019561969 0.0010309507)
(-0.0057407944 0.018532756 -0.001864413)
(-0.005171443 0.01482036 -0.0022583766)
(-0.0011624002 -0.00015569486 0.00028482128)
(0.0040513021 0.014513045 0.0041092885)
(0.0025772617 0.018835389 0.0033477439)
(-0.00097430264 0.0033776488 0.00053399649)
(0.0024455401 -0.011780682 0.0019419878)
(0.0026815045 -0.015637124 0.0043731734)
(0.0030589881 -0.01409581 0.00094402667)
(-0.00051011342 -0.015052703 0.0030152414)
(-0.0044486596 -0.014988824 0.0046114147)
(-0.0014275622 -0.012527015 0.0052517388)
(0.0020013379 -0.0047448287 0.0016416661)
(0.00067271289 -0.017157215 -0.0031434184)
(-0.0017887306 -0.015491166 -0.0039869302)
(-0.00019774614 -0.0024498691 0.0004932086)
(-0.00050510785 -2.1790985e-05 -0.00082068391)
(0.0011472106 -0.0020983963 -0.00042710731)
(0.0054250203 -0.01417051 -8.4881383e-05)
(0.0033721375 -0.015844527 -0.0021882945)
(-0.0039105203 -0.013907457 -0.0014967093)
(-0.00060736058 -0.011084672 -0.00081776798)
(0.0029801123 -0.0011709406 0.0020052659)
(0.0036847657 -0.012790787 0.00052472516)
(0.0037696519 -0.015060554 0.00013152079)
(0.0037598945 -0.014503927 0.00027742822)
(-0.0016206311 -0.015960518 -0.00099136362)
(-0.0037711688 -0.012611523 -0.0034713777)
(-0.001286205 0.00095491592 -0.0016188193)
(0.001053361 0.0069973911 0.00087328182)
(-0.0013300861 0.0039651085 -0.00046602863)
(0.0059060923 -0.014888551 0.00056965723)
(-0.0024828784 -0.015483354 -1.6442481e-05)
(-0.0049700586 -0.013756521 0.000681034)
(0.0012059344 -0.0010284322 0.0028026802)
(0.0023939678 0.0088621684 0.00054276329)
(0.0041920773 0.011668194 0.0014237287)
(0.00095269197 0.0080348894 0.002296522)
(0.00025237442 -0.0016399941 0.0001131168)
(0.0017444583 0.008926638 0.0011795666)
(-0.0002431963 0.010900596 0.0061562558)
(-0.0024151419 0.0090366873 0.0035417654)
(0.00099081673 0.0072994952 0.00093114361)
(0.00043081047 0.013232315 -0.0019019655)
(-0.005232753 0.011823167 -0.001768863)
(-0.0029905256 0.0076346067 -0.0005386558)
(-0.0010917256 0.0082183265 0.00028872082)
(0.0027198161 0.0080522656 0.00014459805)
(0.0033851625 0.011058194 -0.0012366633)
(0.0014580143 0.011113685 -0.00083810165)
(0.0020290052 0.0047823736 -0.001281016)
(0.00084391155 0.0018080833 0.00053876997)
(0.0016340891 0.0057544713 -0.00031956493)
(0.0037545395 0.011606753 -1.1600792e-05)
(0.0011266978 0.0035053891 0.00042146879)
(8.7075457e-05 0.005569599 0.00053433262)
(-0.0026138124 0.011171927 -0.0010542443)
(-0.004700583 0.0093337182 -0.002882438)
(-0.0040372965 0.0073795944 -0.0026643375)
(-1.7510548e-05 0.010872628 0.00049641282)
(0.0027273455 0.0080296645 0.0011760177)
(0.0048828906 0.011434735 -0.0010374589)
(-0.0017698851 0.0079668926 -0.0018282242)
(-0.00062152929 0.00030453498 -0.0010519119)
(-0.002258499 0.007632236 0.0020519772)
(0.0019327955 -0.00047340685 -0.00051128427)
(0.0039849156 -0.0043066122 -0.00051713336)
(0.0055745976 -0.0093786657 -0.0021087238)
(0.00084906621 -0.010789524 -0.001721329)
(-0.0038298431 -0.010207133 -0.00037162338)
(-0.00099330017 -0.0064649173 -0.00051741764)
(-0.0009848685 -0.010730252 -0.0048626271)
(-0.0034106447 -0.0079990916 -0.0036705969)
(-0.0021222983 -0.0054525474 -0.0028867885)
(-0.0011796702 -0.0091571368 -0.0013627247)
(-0.0013590233 -0.006559729 -3.6016848e-05)
(-0.00074383398 -0.0014209869 0.0011918408)
(0.0018267943 -0.0026715712 0.002130136)
(0.0032516146 -0.0048874899 0.0016382457)
(0.0047172944 -0.010067424 0.0014408326)
(0.0041451726 -0.011236677 0.0014800736)
(0.0026985104 -0.01113328 5.9269346e-05)
(-0.00057292406 -0.0077697206 -0.0022035615)
(0.0015900047 -0.011587788 -0.0039753361)
(-0.0019577625 -0.01117653 -0.0037004121)
(-0.0052194562 -0.0096096635 -0.0044119066)
(-0.0056018683 -0.0082804689 -0.0034360637)
(-0.0049831038 -0.0055583661 -0.0026441571)
(-0.0040331312 -0.0013566856 -0.0022450578)
(-0.00035834926 0.0037928826 -0.00036673786)
(0.0030575293 -0.00042565556 0.00050355151)
(0.0048742249 -0.003872121 -0.00033258172)
(0.0064814164 -0.0087762623 -0.0011290242)
(0.0032011078 -0.011307817 -0.0032898941)
(-0.0032302743 -0.0048711108 -0.0030253359)
(-0.00093952156 -0.015597415 -0.00071551369)
(-0.0041084261 -0.013968088 0.00019455508)
(-0.0033679864 -0.012360911 0.00090585637)
(-0.0012652911 -0.01357554 0.00051488389)
(0.0013989002 -0.013469025 0.0008771711)
(0.003449349 -0.013558666 0.00093331956)
(0.0045196339 -0.016426726 0.00067337892)
(0.0033577104 -0.016749904 0.00046236401)
(0.0016710843 -0.018151893 0.0012549805)
(0.00017834737 -0.017907319 -0.00088994724)
(0.000997716 -0.011714347 -0.0024611023)
(0.0028297786 -0.013479655 -0.0030594882)
(0.0019188535 -0.015681687 -0.0021837995)
(0.00085059982 -0.017053263 0.00075761117)
(-0.0021538178 -0.013282069 0.0024272283)
(-0.00040334842 -0.010562695 0.00044509559)
(0.0027550279 -0.014448013 0.0015672875)
(0.0010736146 -0.016094139 0.0029902412)
(-0.0007851666 -0.016400509 0.004075121)
(-0.0023304046 -0.015035782 0.0042341512)
(-0.0021105964 -0.01406421 0.0027167431)
(-0.00039300506 -0.016014118 0.0029095413)
(-0.0012878851 -0.016142914 0.0015803586)
(-0.0024869097 -0.0170713 0.00062788661)
(-0.0034556989 -0.015784694 0.00017493056)
(-0.0047464307 -0.014696191 -0.0010089815)
(-0.0033922204 -0.012926047 -0.0016370247)
(0.00038709646 -0.012853624 0.00021234092)
(0.0024189308 -0.016631319 -0.00083035097)
(0.00050543422 -0.017913378 -0.0017814727)
(-0.0043575059 0.017720986 0.00088545423)
(-0.0062717193 0.015104522 0.0020158828)
(-0.0018612716 0.0022817499 0.0018650306)
(-0.00065647877 0.0047381599 0.0015993619)
(0.002994816 0.0046168623 0.00041651738)
(0.0039539543 0.0047583089 0.00096579258)
(0.0076428759 0.016147435 0.0025328639)
(0.0062279551 0.018799902 0.0028003179)
(0.0019419261 0.019665269 0.0035755344)
(-0.0042154003 0.018053477 -0.0011707153)
(-0.0019651641 0.003167815 -0.0021806492)
(0.0018117803 0.012012421 -0.0052641077)
(0.0024387798 0.016908254 -0.0044597179)
(-0.0012030118 0.018665477 -0.00012980041)
(-0.0036020203 0.013977933 0.002221809)
(0.00062132178 -0.0029777284 -0.0019620734)
(0.0032946772 0.01137558 -0.0014407526)
(0.0039447208 0.017618897 0.0014578294)
(-0.0024604358 0.018381898 0.0061622345)
(-0.003518767 0.016647451 0.0055977315)
(0.00062891991 0.008530675 0.0031135231)
(0.0032875205 0.014925122 0.0021217919)
(0.0039837926 0.018180902 0.0015456847)
(-0.00145454 0.01892917 -0.0016442324)
(-0.0053624027 0.018142304 -0.0036007812)
(-0.0066447647 0.015968241 -0.0037114024)
(-0.00040638892 0.003187329 -0.0021965532)
(0.0012072048 0.0034854626 4.9802516e-05)
(0.0065060427 0.017163486 0.00068676899)
(0.0039706447 0.019405482 0.00072303346)
(-0.0012952662 0.003220061 4.3192211e-06)
(0.0050169138 -0.013017081 0.00052412247)
(0.0030988456 -0.015734744 0.0017354465)
(0.00039748778 -0.013584337 0.0021571121)
(0.0015065171 -0.013229776 -0.0017301368)
(-0.0015292794 -0.016195626 -0.00019401558)
(-0.0035697588 -0.016630955 -0.00027208913)
(0.0032307596 0.0014159198 0.0010229746)
(0.0021138421 0.0055146292 0.0023234673)
(0.0016670162 0.00066221095 0.00028964757)
(-8.2972518e-05 -0.014697492 0.00098856938)
(-0.0064323116 -0.015445913 -0.00043375664)
(-0.0030239093 -0.0076279375 -0.0029114946)
(-0.0024234736 -0.0031377404 -0.0028366055)
(0.0026283916 -0.013209911 -0.0055545552)
(0.0016351007 -0.014368432 -0.003736852)
(-0.0036537701 -0.015171404 -0.0014153747)
(0.0016911511 0.0011106832 -0.00039067284)
(0.00017548694 0.0018277961 0.0020636894)
(0.0036250811 -0.012243243 0.00072470568)
(0.0032446681 -0.017165876 6.1513814e-05)
(-0.0027994902 -0.016343352 -0.0045738674)
(-0.00025863097 0.0025779576 -0.0010850497)
(-0.001482879 0.0056379012 -0.0027135575)
(-0.00073894084 0.0030136145 -0.0014879009)
(0.0044631692 -0.013804553 -0.00083306026)
(0.004448496 -0.016195054 0.00061610444)
(-0.003898881 -0.014728118 0.00082428905)
(-0.0042157277 -0.0081983098 0.0031408534)
(0.00082530567 0.0054009992 0.0012041051)
(0.0025162501 0.0079788654 -0.0002469712)
(0.0051794344 0.010152795 -0.0016434492)
(0.0017299589 0.010681088 0.00059091135)
(0.0021119446 0.0030329799 -0.00022617244)
(0.0012368605 0.0028805369 -0.0010903254)
(0.0022551875 0.010194767 0.0014577449)
(-0.0039345062 0.011031849 -0.0020433388)
(-0.002052547 0.0075578022 0.00018533234)
(0.0019519617 0.009169749 0.0005984185)
(0.003622623 0.0077074491 0.00015467774)
(0.0040145433 0.0087858009 -0.00022517759)
(-0.0030652917 0.011282775 -0.0018904937)
(-0.0021852148 0.0088817285 -0.0027212772)
(-0.00013465561 0.0078960665 -0.0035485253)
(0.0028546973 0.0028777348 -0.001244095)
(0.001830222 0.00031533214 -0.00080333313)
(-0.0017987593 0.01023356 0.0032433441)
(-0.0022905054 0.0082691723 0.0015164068)
(0.0012303781 0.0084207282 0.0017090094)
(0.0031615036 0.0095280003 0.0020128366)
(0.0013492669 0.011746426 0.0022716197)
(-0.0049680948 0.011152452 -0.0015994234)
(-0.003394736 0.0077062067 -0.002190218)
(-0.0019158302 0.0099335999 -0.0024475435)
(0.0016253752 0.0081196499 -0.00072463826)
(0.004326682 0.010405131 0.0014610277)
(0.00050888515 0.010812279 -0.0011726528)
(-0.002919262 0.0098999274 0.00029945623)
(-0.0043153223 0.0090155326 0.0025186294)
(-0.0018835894 0.0095003149 0.0013674253)
(0.0015460054 -0.0021857722 -0.0012456351)
(0.0032020461 -0.0062800926 -0.001100184)
(0.0041975422 -0.0076535019 -0.001163896)
(0.0030640805 -0.010336525 -0.0024117265)
(-0.0043168912 -0.009253393 -0.001396896)
(-0.0027469339 -0.0047078349 -0.0019985499)
(-0.0012838793 -0.0026903302 -0.003365562)
(-3.9543058e-05 -0.0028704546 -0.0020450514)
(0.00074663543 -0.0016634996 0.00068404026)
(0.0026756553 -0.0040005924 0.0010986815)
(0.0025403074 -0.0067277466 0.0018631459)
(0.0021924432 -0.0069262253 0.002864745)
(0.0031045682 -0.0086557744 0.0024159839)
(0.0029501456 -0.0089352756 0.0019976572)
(0.0027066459 -0.011533754 0.00076240394)
(-0.0038936605 -0.0082309528 -0.0044185881)
(-0.0024833186 -0.0055398858 -0.0038493002)
(-0.0010147954 0.00058959859 -0.00021068779)
(0.0023151547 -0.0025479881 0.00035416432)
(-0.0015047736 -0.011107527 -0.0028614239)
(-0.0025305196 -0.0067525126 -0.0026353618)
(-0.002954367 -0.0092266477 -0.0019502625)
(-0.0037268381 -0.0022273026 -0.00075387033)
(-0.0020866199 0.0024208951 -0.0016819442)
(0.0014830552 0.00038897938 0.0014706048)
(0.0019344891 -0.005540162 0.0022098413)
(0.0016945073 -0.0042314174 0.0015542492)
(0.0017679608 -0.010661883 0.0011107491)
(-0.0030168485 -0.0086158023 -0.0016369053)
(-0.0025084264 0.0030851721 0.00035543429)
(-0.00048660202 -0.016282023 -0.0009242433)
(-0.002381275 -0.01539611 -8.1669799e-05)
(-0.0036749698 -0.014527872 0.0012842565)
(-0.0012468177 -0.012165311 0.00051234706)
(0.0028466461 -0.012750088 0.00071096945)
(0.0034020303 -0.015443275 0.00033301063)
(0.002427781 -0.016573588 -0.0010195911)
(0.0012937824 -0.017053114 -0.001006941)
(-6.5827997e-05 -0.014629411 0.00089006933)
(-0.0017477862 -0.012057408 -0.00059427732)
(-0.0013771013 -0.011191805 -0.0010320097)
(0.0018377103 -0.011292267 -0.0023858758)
(0.0037921338 -0.011966314 -0.0026900469)
(0.0039483084 -0.013649499 -0.0015599816)
(0.0014201141 -0.015613666 -0.0011923227)
(0.00036308727 -0.017580196 0.0019418862)
(-6.9027229e-06 -0.017483268 0.0012666529)
(-0.0013886318 -0.016686358 0.0022060002)
(-0.0013407355 -0.01656992 0.002620248)
(-0.0027659418 -0.014583423 0.0025575578)
(-0.001780811 -0.012881952 0.0029916804)
(0.001173207 -0.01868924 -0.00046421902)
(-0.00095991529 -0.015954917 -0.0024139905)
(-0.0016008322 -0.016260657 -0.0025623246)
(-0.0031205771 -0.015313888 -0.002951407)
(-0.0040496572 -0.013914439 -0.0030585775)
(-0.0027814887 -0.012260406 -0.0020384083)
(0.0018241236 -0.012615812 -0.0010849798)
(0.0027175739 -0.015049617 -0.0020985805)
(0.00083834225 -0.016823322 -0.0026272391)
(-0.0029850113 0.017963599 -7.0138754e-05)
(-0.0056326655 0.017667499 0.00087860503)
(-0.0062428171 0.01484664 0.0021949703)
(0.00084118029 -4.7554186e-05 -0.00026902237)
(0.0030373761 0.0049125387 0.001397054)
(0.0073956748 0.015388139 0.0022968294)
(0.0063687609 0.018074024 0.0023085731)
(0.00077552496 0.018643627 0.00045952054)
(-0.003081156 0.016693517 0.00029111938)
(-0.0035919777 0.012347179 -0.0015942241)
(-0.00095746132 0.0020161834 -0.00073888367)
(0.001435199 -0.0020835869 -0.0011505274)
(0.0026853731 0.005261041 -0.0025630889)
(0.0045000235 0.014741619 -0.0024049648)
(0.00054720712 0.01756907 -0.00035335022)
(-0.00070386556 0.019059503 0.0027588427)
(0.0017671408 0.019176232 0.0013082689)
(0.00055751065 0.018528513 0.0017937398)
(-0.0020457824 0.018126053 0.0041461955)
(-0.0033104614 0.016933751 0.0038493891)
(0.0017569926 0.0049835108 0.0030739649)
(0.0037477984 0.017636278 0.00027311073)
(0.0040387686 0.017836884 -0.0036033773)
(0.00099053789 0.018399741 -0.004144174)
(-0.0041652703 0.017759113 -0.0057060455)
(-0.0051939188 0.014815849 -0.004874256)
(0.00038260108 0.0015418256 -0.0028806689)
(0.0019451132 0.0028137086 -0.0011444326)
(0.0068116868 0.015847837 -0.0022612926)
(0.0050669227 0.018669556 -0.0020692083)
(0.00063208523 0.0035634027 -0.0014687037)
(0.00037481979 0.00090121731 -0.00056847)
(0.0057036679 -0.013871716 -0.0036931664)
(0.0029516959 -0.01545978 -0.0019128953)
(-0.0032858992 -0.013886211 0.00089606746)
(-0.00092192056 -0.012456711 8.6048561e-06)
(0.0019327169 0.003525598 0.00069095007)
(0.001457906 0.0043767528 0.00021729069)
(0.0030217039 -0.0013813632 0.0021019902)
(0.005532872 -0.011996396 0.0038429809)
(0.0030703638 -0.01357666 0.0013700653)
(-0.00038776338 -0.01401465 0.00024414244)
(-0.0029217418 -0.013916021 -0.0029458475)
(-0.001357082 -0.0089015163 -0.0020699646)
(-0.00089201523 -0.001546302 -0.00089312588)
(-0.0013186725 -0.014375416 -0.0033053481)
(-0.0025464349 -0.014543842 -0.0032688847)
(-0.00183587 -0.0030136927 -0.00075567436)
(0.00076575409 -0.0025299415 0.0015992472)
(0.006310522 -0.011638988 0.00082057637)
(0.0048806274 -0.016520272 0.00092499)
(-0.0028368096 -0.018411656 0.0034685847)
(0.0020121223 -0.005329377 0.00050501053)
(0.0023252633 0.0016077039 -0.0020012359)
(0.00066738868 -5.9425153e-05 -0.0036026285)
(0.0052867284 -0.013904658 -0.0034838778)
(0.0035829221 -0.015176548 -0.0032720892)
(-0.0027103247 -0.014764664 -0.0011455812)
(-0.0042132299 -0.013439297 0.00054747476)
(0.0018746393 0.0044337605 -0.0010779885)
(0.001704868 0.0092465416 -0.0010705222)
(0.0035315769 0.0074101986 -0.00088334482)
(0.0049276933 0.0096665124 -0.0016582175)
(0.0026432492 0.0098084796 -0.00026679532)
(0.0015758177 0.0033760301 0.00060683841)
(-0.00058344265 0.0099485061 0.0014667737)
(-0.0012791272 0.0092541051 -0.0014341369)
(0.0015413127 0.0095988885 0.00018219877)
(0.0048070322 0.0082335015 0.0029118731)
(0.0047237685 0.010449076 0.0036385775)
(0.0027433793 0.0044340321 0.0027291181)
(0.0019859544 -0.0015816249 0.0020372419)
(0.00091812235 0.0013815052 -0.0008618182)
(0.00054749455 0.0043515454 -0.00020878071)
(0.0027419833 0.0073218658 -0.00070320512)
(0.0051847169 0.011920508 0.0015260106)
(-0.0044848704 0.012931634 -3.2669762e-05)
(-0.0040680647 0.0088985659 -0.0006502515)
(0.0022525473 0.0022983099 0.0014585086)
(0.0046237878 0.0080166301 0.0011687575)
(0.0022366186 0.011983565 0.0018974663)
(-0.00447599 0.01235805 0.00084876881)
(-0.0024998012 0.0047653243 0.0017095459)
(0.00089165369 0.0082331467 -0.00058462801)
(0.0019770895 0.0073166979 -0.0018330042)
(0.0040395291 0.0085329449 -0.002831088)
(0.0012057135 0.0082830687 -0.0026799521)
(0.00083376781 0.0048836072 0.00090072387)
(-0.0030254558 0.010468805 0.0016336867)
(-0.0016521172 0.0087138699 0.00027820918)
(0.0023878078 0.0014152802 -0.00099462356)
(0.003888848 -0.004131517 -0.00044386786)
(0.0040305426 -0.009238226 0.00039481188)
(0.0040153099 -0.010828659 0.00079638161)
(-0.0010311941 -0.010187987 -0.00011430073)
(-0.0040121455 -0.0052788123 -0.00035787313)
(-0.001077153 0.0027424432 -0.0010846169)
(0.0022477043 0.0010580594 -0.00096171778)
(0.0042831429 -0.0031469086 0.00029719384)
(0.006069193 -0.0075624266 0.00049959505)
(0.0065391206 -0.0095172876 0.0017505211)
(0.0041997292 -0.0098118887 0.0033496428)
(5.5386684e-05 -0.011038224 0.0015444626)
(-0.0023885914 -0.010560334 0.00035318645)
(-0.0050040974 -0.0073627711 -0.00080251016)
(-0.0018832704 -0.0012542998 -0.0010203062)
(-0.0014402375 0.002234652 -0.001222163)
(0.0043269796 -0.006864732 0.00055078985)
(0.0028968704 -0.010848236 0.0019047058)
(-0.003265553 -0.009599758 0.001471077)
(0.00016793016 0.0014418514 0.0013561285)
(0.0041325326 -0.010376414 0.0001131497)
(0.0002248753 -0.011628241 0.0015990477)
(-0.0010316255 -0.0019490608 0.0025351195)
(0.0025698917 -0.002732321 0.0032106032)
(0.0027159156 -0.0088272661 0.0048987526)
(0.0025380227 -0.0099022888 0.0054982915)
(-0.00065578227 -0.010474764 0.0045624408)
(-0.0043198541 -0.0071041865 0.0031108194)
(-0.0022446545 0.0020363715 0.0017646964)
(-0.00073726732 -0.016002857 -0.002001273)
(-0.0025240962 -0.016133783 -0.0020547137)
(-0.0028989474 -0.014334257 -0.0018667348)
(-0.001990982 -0.011248788 0.00034214423)
(0.00064566028 -0.012046192 0.00055378855)
(0.002122368 -0.015870429 0.00010689509)
(0.00078476622 -0.018215899 -0.00057165752)
(-0.00059536665 -0.017442757 -0.00079738894)
(-0.003094601 -0.013951782 -0.00021293739)
(-0.0024956881 -0.011431914 4.2418328e-05)
(-0.00038320731 -0.013057463 2.4116153e-05)
(0.0017410959 -0.011354662 0.0013736632)
(0.0019680413 -0.018151472 -0.00019630436)
(-8.2482093e-05 -0.016366359 0.00037817218)
(-0.00075391838 -0.017424046 1.4956002e-06)
(-0.00041530762 -0.015809612 0.00015165419)
(-0.0023539679 -0.013039532 0.0015106493)
(-0.0011032845 -0.010996552 0.00077709969)
(0.0010860061 -0.011754294 0.00053571594)
(0.0021535278 -0.017493312 -0.0022777429)
(-0.0020761503 -0.016060582 -0.0039580405)
(-0.0025482902 -0.013180074 -0.0038282674)
(-0.0017024931 -0.012337527 -0.0019022144)
(0.0018338623 -0.01240972 -0.00073892815)
(0.00268365 -0.01352955 -0.0018989969)
(0.0017026557 -0.016728165 -0.0025568529)
(-0.0038325407 0.017896332 -0.0027072791)
(-0.0045808586 0.017971023 -0.0036828282)
(-0.003835317 0.014526915 -0.0033857136)
(0.00065475576 0.0029597516 -0.00027417981)
(0.0028207338 0.0019130316 -0.00020929878)
(0.0059144243 0.010791294 -0.0022066594)
(0.0058496357 0.018829949 -0.0033243591)
(-0.0016579749 0.019264108 -0.0017314726)
(-0.0056541649 0.015101003 0.00064354894)
(-0.002004875 0.0018457952 0.000272347)
(-0.00070274757 0.0028820023 0.0015055354)
(0.0016386158 0.00028418799 0.0011308301)
(0.0043414627 0.017483526 0.0013035805)
(0.00093448254 0.017873585 -0.0016790752)
(-0.00068627528 0.01895747 0.0010310174)
(-0.001819645 0.018112398 0.0032284105)
(-0.0038237774 0.015190539 0.0041195626)
(0.0021714121 0.0020944055 0.0018991649)
(0.0013379926 0.00057531778 0.0017812598)
(0.0046348332 0.017114538 -0.0023341825)
(-0.001487639 0.017460134 -0.0054914693)
(-0.001129348 0.009023558 -0.0042481781)
(0.0009219525 0.0035633306 -0.0011898402)
(0.0044226773 0.0023136812 0.00092386494)
(0.0054221145 0.0095274491 0.00087713554)
(0.0056143692 0.017494119 0.00049333166)
(-0.00052831147 0.0032267932 -0.00094532154)
(0.00096593141 -0.0092872859 -0.00099505322)
(0.0030708437 -0.01448492 -0.00027893719)
(0.0032021473 -0.013856854 -0.0010937965)
(0.0021238674 -0.014412968 -0.0020743113)
(-0.0022107384 -0.016277761 -0.0037390847)
(0.0025187504 0.0035004211 -0.0022625261)
(0.00021418601 0.0064712516 -0.00079422029)
(0.0041875953 -0.0090143893 -0.00010938566)
(0.0035775576 -0.014889929 -0.00050954479)
(-0.00059225504 -0.013641302 0.00070528998)
(-0.0024119295 -0.014156251 -0.0011971631)
(-0.0028959896 -0.01108923 -0.0019015274)
(0.0016245228 -0.0057813833 -2.6220457e-05)
(0.0023231037 -0.00019263099 0.0019022122)
(0.0042074825 -0.0020900461 0.0014187038)
(0.0070758802 -0.011633709 -0.00031112359)
(0.0064038071 -0.015370447 0.00054776893)
(-0.001089273 -0.015723327 0.0025408745)
(-0.0026264317 -0.013587323 0.002845015)
(0.0022341176 -0.01053736 0.00018136415)
(0.0032737512 -0.014156531 -0.001138125)
(0.0026991089 -0.014127919 -0.00097753784)
(0.0024367458 -0.014428469 0.0015319549)
(-0.0025943692 -0.014038864 0.0020185929)
(0.0018978397 -0.0014440011 0.00020256547)
(0.0022634611 0.0090934627 -0.00025311757)
(0.0030748105 0.010254219 0.0023186593)
(0.0029983579 0.0022243467 -0.0001088439)
(0.00075906757 -0.0020423413 0.00098331546)
(0.0035825772 0.0068701777 0.0017429945)
(-0.001386466 0.010593725 0.00055590323)
(-0.0009560483 0.008521709 0.00047080335)
(0.0020111434 0.0096211329 0.00069203461)
(0.00515599 0.0097408661 0.0010269139)
(0.0030391414 0.010557825 0.0023827022)
(0.0013338608 0.0058186723 0.0014809287)