/*--------------------------------*- C++ -*----------------------------------*\
| =========                 |                                                 |
| \\      /  F ield         | OpenFOAM: The Open Source CFD Toolbox           |
|  \\    /   O peration     | Version:  v2012                                 |
|   \\  /    A nd           | Website:  www.openfoam.com                      |
|    \\/     M anipulation  |                                                 |
\*---------------------------------------------------------------------------*/
FoamFile
{
    version     2.0;
    format      ascii;
    class       volScalarField;
    location    "350/topAir";
    object      rho;
}
// * * * * * * * * * * * * * * * * * * * * * * * * * * * * * * * * * * * * * //

dimensions      [1 -3 0 0 0 0 0];


internalField   nonuniform List<scalar> 
1200
(
1.0760527
1.0094687
0.95593994
0.91134596
0.87299587
0.83927438
0.80925674
0.78259462
0.75938235
0.73920075
0.72182671
0.70720969
0.69562623
0.69389263
0.69512407
0.69947344
0.70642984
0.71488493
0.72360567
0.73163594
0.73842883
0.74375869
0.74759016
0.74995898
0.75090099
0.75041055
0.74837261
0.74443137
0.73777532
0.72735458
1.1567083
1.153115
1.1482287
1.1422934
1.1354899
1.1279611
1.1198363
1.1107692
1.0984275
1.0823011
1.0602541
1.0314793
0.99631988
0.96010284
0.92670536
0.8989817
0.87761234
0.86197735
0.85121698
0.84458456
0.84119253
0.8399484
0.83976793
0.83968414
0.83885647
0.83649253
0.83166602
0.82302135
0.80828699
0.785748
1.1585775
1.1584571
1.1582337
1.1578856
1.1573944
1.1567445
1.1559237
1.1549103
1.1536254
1.1519788
1.1497122
1.1427057
1.1243313
1.0930731
1.0534245
1.0114356
0.97207802
0.9385738
0.91152759
0.89074241
0.87556636
0.86500187
0.85789003
0.85308673
0.84956285
0.84641168
0.84275346
0.83752076
0.82892517
0.81448911
1.158618
1.158614
1.1586044
1.1585856
1.1585531
1.1585014
1.158424
1.1583131
1.1581568
1.1579376
1.1576132
1.1569197
1.1547207
1.1420235
1.1098984
1.0675587
1.026084
0.98921192
0.95755845
0.93121508
0.91006552
0.89368964
0.8813457
0.872138
0.86518212
0.85967765
0.85489939
0.85005655
0.84394344
0.83469686
1.0760852
1.0101803
0.95777055
0.9146186
0.87802723
0.84642786
0.81894065
0.7950678
0.77463291
0.75767385
0.74443189
0.73525463
0.73066723
0.73920916
0.75187796
0.76735086
0.78311568
0.79658258
0.8065284
0.81314451
0.81731326
0.81981281
0.82109437
0.82127604
0.82028605
0.81797955
0.8140454
0.80770004
0.79721848
0.78104779
1.1567112
1.1531856
1.1484844
1.1428859
1.1366043
1.129818
1.1227023
1.1154464
1.1082619
1.1014054
1.0952035
1.0900404
1.0863396
1.0848016
1.0851144
1.0858437
1.0848508
1.0808655
1.0744009
1.0666097
1.0582819
1.0495502
1.0403346
1.0304037
1.0194808
1.0073235
0.99383973
0.97910822
0.96293469
0.93906746
1.1585776
1.1584605
1.1582487
1.1579274
1.1574862
1.1569191
1.1562249
1.1554084
1.154481
1.1534655
1.1523984
1.1512527
1.1499999
1.1487127
1.1459552
1.1391068
1.125203
1.1040027
1.0800839
1.057495
1.0381721
1.0196289
1.0019469
0.98484692
0.96857229
0.95316046
0.93708106
0.91987959
0.90178426
0.88271597
1.158618
1.1586142
1.1586052
1.1585883
1.1585599
1.1585164
1.1584537
1.1583675
1.1582535
1.1581067
1.1579193
1.1576581
1.1571256
1.1548278
1.1459214
1.1239411
1.0887008
1.0485137
1.0101211
0.97638721
0.94872578
0.92848724
0.91281097
0.90017662
0.88950665
0.88001972
0.87234969
0.86572813
0.85926789
0.8523171
1.0761201
1.0101193
0.95758796
0.91430099
0.87754995
0.84574894
0.81793263
0.79347917
0.77202584
0.75342406
0.73772454
0.72518898
0.7165832
0.72221649
0.73329308
0.74937897
0.76795934
0.78648486
0.80336264
0.81781074
0.82969778
0.83914666
0.84615764
0.85053071
0.85206492
0.85080407
0.84699849
0.84066457
0.83028823
0.81072042
1.1567117
1.1531757
1.1484548
1.1428309
1.1365165
1.1296821
1.1224807
1.1150638
1.1076035
1.1003138
1.0934807
1.0875219
1.0830721
1.0813304
1.0824976
1.0847371
1.0853447
1.0835928
1.0794763
1.0733143
1.0655111
1.056138
1.0448863
1.0313996
1.0155957
0.99768612
0.9778211
0.95616637
0.9326379
0.90539952
1.1585776
1.15846
1.1582472
1.1579243
1.1574817
1.1569133
1.1562175
1.1553975
1.154463
1.1534344
1.1523507
1.1512808
1.1503426
1.1496151
1.1478259
1.1406781
1.1269904
1.1122006
1.097006
1.081606
1.0662321
1.0497024
1.0304454
1.0080311
0.9833702
0.95852187
0.93504171
0.91321472
0.89213493
0.86777154
1.158618
1.1586142
1.1586052
1.1585881
1.1585598
1.1585164
1.1584542
1.1583692
1.1582574
1.1581153
1.1579397
1.1577259
1.1574352
1.1565273
1.1497386
1.1255584
1.0885125
1.0662243
1.040016
1.0073111
0.9767418
0.9524891
0.93360378
0.9184597
0.90574088
0.8945363
0.88478009
0.87609793
0.86500875
0.84094518
1.0761568
1.0101409
0.95754052
0.91413112
0.87718206
0.84506031
0.81674031
0.7915208
0.76890798
0.74857213
0.73034586
0.71428168
0.7011011
0.70203254
0.70580375
0.70955295
0.71096533
0.71042811
0.70952719
0.70937172
0.7105953
0.71348256
0.71792041
0.72350212
0.72968003
0.73530681
0.73794239
0.73389491
0.72295493
0.70773764
1.1567125
1.1531736
1.1484406
1.1427901
1.1364268
1.1295066
1.1221579
1.114496
1.1066376
1.0987265
1.0909866
1.0838267
1.0780212
1.0750084
1.0739041
1.0717006
1.0677054
1.0628618
1.0576243
1.051868
1.0451799
1.0369841
1.0266352
1.013715
0.99810936
0.97975055
0.95924034
0.93837351
0.90332382
0.83844603
1.1585776
1.1584599
1.1582463
1.1579215
1.1574748
1.1568989
1.1561895
1.155346
1.1543725
1.1532816
1.1521051
1.150919
1.149873
1.1487964
1.1431204
1.1284645
1.1137332
1.1030479
1.0932095
1.0821315
1.0678654
1.0488799
1.0246536
0.99661511
0.9666889
0.93446216
0.90476
0.88507111
0.8684596
0.83770086
1.158618
1.1586142
1.1586051
1.1585879
1.1585593
1.1585153
1.1584518
1.1583645
1.1582486
1.1580995
1.157912
1.1576748
1.1572552
1.1545754
1.1299713
1.0728721
1.0162664
1.0118712
1.0170126
1.0046679
0.98076895
0.95847047
0.94117842
0.9259426
0.91147792
0.89432046
0.87422612
0.85819726
0.83823853
0.82240047
1.0762016
1.0102015
0.95759542
0.91416769
0.8771921
0.84503478
0.81666475
0.79138209
0.76870187
0.74832009
0.73013361
0.71435954
0.70205899
0.70671958
0.71189475
0.7136255
0.7109467
0.70527566
0.69893364
0.69240964
0.68610978
0.68040935
0.67564988
0.6720999
0.66987079
0.66875325
0.6679971
0.66619997
0.66154274
0.65189748
1.1567136
1.1531748
1.1484383
1.1427792
1.1364007
1.1294566
1.1220731
1.1143626
1.1064423
1.09847
1.0907214
1.0837416
1.0785367
1.0763119
1.0734735
1.0686214
1.0626195
1.0537552
1.0414822
1.0278669
1.0141975
0.99983197
0.98242465
0.95947706
0.93039202
0.89729339
0.86148476
0.82359672
0.78274511
0.73621538
1.1585777
1.1584599
1.1582459
1.1579203
1.1574718
1.1568927
1.156178
1.1553262
1.1543406
1.153235
1.1520492
1.1508862
1.1499042
1.1477671
1.1329898
1.1182099
1.1087735
1.1033859
1.0980869
1.0896663
1.0753401
1.0527499
1.0228088
0.98979335
0.96016108
0.9356803
0.91289961
0.88199133
0.84067543
0.78754632
1.158618
1.1586141
1.1586051
1.1585879
1.158559
1.1585146
1.1584505
1.1583618
1.1582437
1.1580904
1.1578951
1.1576312
1.1568698
1.148718
1.0766699
0.99865756
0.98450966
0.97830569
0.97315816
0.96789969
0.95773587
0.94401663
0.92981717
0.9156964
0.90213132
0.88950258
0.88043146
0.87060617
0.84031523
0.80427395
1.0762522
1.0102857
0.95770249
0.91429227
0.87733157
0.84518766
0.81683771
0.79159058
0.76897975
0.74873825
0.7308559
0.71575828
0.70468617
0.70992602
0.71319835
0.71212815
0.70835219
0.70310067
0.69710451
0.69089837
0.68494127
0.67962692
0.67523599
0.67192147
0.66968861
0.66829309
0.66699277
0.66446734
0.65909997
0.64877536
1.1567148
1.1531783
1.1484447
1.142789
1.1364142
1.1294744
1.122097
1.1143986
1.1065068
1.0986086
1.091053
1.0845439
1.0801956
1.0776733
1.0730308
1.0670567
1.058192
1.0442978
1.0272461
1.0083839
0.98838837
0.96706768
0.94275298
0.91526961
0.8855459
0.85485529
0.82391454
0.79246031
0.7589313
0.71995954
1.1585777
1.15846
1.1582462
1.1579207
1.1574725
1.1568935
1.156179
1.1553276
1.1543435
1.1532445
1.1520825
1.1509899
1.14992
1.1426022
1.1264051
1.1162638
1.1109241
1.1050779
1.0978768
1.0886111
1.0730201
1.0480421
1.0143178
0.97853898
0.94823975
0.92211045
0.8935649
0.86038333
0.82013948
0.77053032
1.158618
1.1586142
1.1586051
1.1585879
1.158559
1.1585147
1.1584504
1.1583616
1.1582429
1.1580884
1.1578886
1.1575685
1.1555468
1.122069
1.0020007
0.97961957
0.97247011
0.96749615
0.95961211
0.95089436
0.9419915
0.93144027
0.92032706
0.90993606
0.90060315
0.89210564
0.88535701
0.86327166
0.82990388
0.79200208
1.0763082
1.0103944
0.95786445
0.91450878
0.87760692
0.8455324
0.81726609
0.79211124
0.76959404
0.74942851
0.73151234
0.71606301
0.7040549
0.7067049
0.71090601
0.71293202
0.71202878
0.70977394
0.70788811
0.7075248
0.70926709
0.71295284
0.71779753
0.72304027
0.72824471
0.73260727
0.73357415
0.72788907
0.71800938
0.70302507
1.1567163
1.1531842
1.14846
1.1428197
1.1364677
1.1295604
1.1222279
1.1145881
1.1067669
1.0989331
1.0913697
1.0846093
1.079604
1.0774905
1.0754574
1.0713491
1.0661044
1.0604723
1.0546426
1.0483433
1.0408473
1.0312239
1.0188333
1.0038904
0.98703623
0.96841996
0.94837295
0.92744353
0.88613528
0.82195084
1.1585777
1.1584602
1.1582469
1.1579227
1.1574767
1.1569015
1.1561929
1.1553504
1.1543788
1.1532937
1.1521363
1.1510067
1.1500497
1.1480164
1.1358843
1.1199346
1.1089758
1.1007472
1.0914657
1.0789119
1.0613152
1.0379471
1.0096057
0.97952537
0.95106129
0.92391739
0.90003027
0.88196203
0.86348451
0.82834601
1.158618
1.1586142
1.1586051
1.158588
1.1585593
1.1585153
1.1584518
1.1583643
1.1582479
1.1580975
1.1579071
1.1576523
1.1569201
1.1489832
1.0956089
1.0145168
1.0022081
1.0024748
1.0026117
0.98868726
0.97041093
0.95285738
0.93597445
0.92244374
0.91005993
0.89294731
0.87234391
0.85484039
0.83619826
0.8156214
1.0763542
1.0105129
0.9580935
0.91489249
0.87821435
0.8464808
0.81874226
0.79437411
0.77301827
0.75454729
0.73907863
0.72699335
0.71927369
0.72648325
0.7393
0.7556295
0.77276248
0.78917408
0.80416152
0.81740369
0.82873008
0.83786411
0.84435461
0.84782826
0.84824594
0.84591984
0.84119827
0.83402792
0.82239452
0.80107021
1.1567176
1.1531921
1.148485
1.1428771
1.1365803
1.129765
1.1225852
1.115195
1.1077707
1.1005452
1.0938433
1.08816
1.0842597
1.0833688
1.084804
1.0855084
1.0841084
1.0808457
1.0758328
1.0691451
1.0607497
1.0503264
1.0374958
1.0222537
1.00504
0.98637808
0.96655576
0.94622805
0.92431046
0.89748367
1.1585778
1.1584605
1.1582482
1.1579263
1.1574846
1.1569173
1.1562226
1.1554036
1.1544707
1.1534458
1.1523738
1.1513386
1.1504758
1.149636
1.1453673
1.1325834
1.1169116
1.1029467
1.0891452
1.0746466
1.0586378
1.0397122
1.017374
0.99284406
0.96816153
0.94512267
0.92427195
0.90632181
0.88859928
0.86548885
1.158618
1.1586142
1.1586052
1.1585882
1.1585599
1.1585165
1.1584542
1.1583689
1.1582565
1.1581131
1.1579352
1.1577146
1.1573479
1.1552286
1.1382374
1.0933159
1.0607386
1.049774
1.0268291
0.99712299
0.96994395
0.94824151
0.93093332
0.9167182
0.90481209
0.89480259
0.8862262
0.87867558
0.86674304
0.8417725
1.0763769
1.0106715
0.95840374
0.91536357
0.87887009
0.84736195
0.81994332
0.79612951
0.77573991
0.75883695
0.74567785
0.73667326
0.73248384
0.74188932
0.75594624
0.77285509
0.78946588
0.80309387
0.81276522
0.81897666
0.8227743
0.82492997
0.82578109
0.82535252
0.82357432
0.82035467
0.8154686
0.80823616
0.79683513
0.7795562
1.1567185
1.153206
1.148522
1.1429432
1.1366831
1.1299191
1.122824
1.1155879
1.1084229
1.1015982
1.0954503
1.0904018
1.0869473
1.0858741
1.086754
1.0876359
1.0860773
1.0811768
1.0737956
1.0652094
1.0561337
1.0465892
1.036398
1.025352
1.0133189
1.0002597
0.98625808
0.97158634
0.95597347
0.93380085
1.1585778
1.1584611
1.15825
1.1579297
1.1574898
1.1569238
1.1562303
1.1554138
1.1544857
1.1534691
1.1524031
1.1512815
1.1500881
1.1489038
1.1460085
1.1382036
1.1224782
1.1001076
1.0758156
1.0536563
1.034992
1.0173632
1.0005455
0.98428243
0.9684025
0.95227852
0.93566165
0.91889249
0.90177495
0.88389519
1.158618
1.1586142
1.1586053
1.1585884
1.15856
1.1585165
1.1584537
1.1583671
1.1582521
1.1581038
1.1579143
1.157654
1.1571477
1.1550839
1.1461447
1.1229486
1.0888093
1.0484166
1.009379
0.97537715
0.94798463
0.92776854
0.91203491
0.89918944
0.88858972
0.88024881
0.87337474
0.86729629
0.86125589
0.85465303
1.0763743
1.0100101
0.95663857
0.91216847
0.87392186
0.84028578
0.81032447
0.78363996
0.76039808
0.7401872
0.72279171
0.7081745
0.6966411
0.69506183
0.696606
0.70139328
0.70878415
0.71757976
0.72652748
0.73468866
0.74153333
0.7468356
0.75053777
0.75265044
0.75320816
0.75223054
0.74964614
0.74515782
0.73798642
0.72708861
1.1567163
1.1531377
1.1482707
1.1423579
1.1355789
1.1280744
1.1199745
1.111106
1.0990737
1.0833434
1.0619758
1.0337412
0.99909438
0.96319607
0.92982735
0.90173247
0.87964188
0.86324387
0.85197347
0.84516088
0.84182406
0.84069269
0.840515
0.84024852
0.83909472
0.83636907
0.83127048
0.82257418
0.80808597
0.78573753
1.1585777
1.1584577
1.1582352
1.1578883
1.1573985
1.1567501
1.1559304
1.1549221
1.1536485
1.1520221
1.1498164
1.1436787
1.1269524
1.097014
1.058258
1.0163207
0.97662659
0.94227584
0.91430798
0.89281142
0.87721864
0.86646268
0.85925688
0.85435273
0.85067617
0.84732971
0.84348622
0.83814624
0.82956675
0.81515697
1.158618
1.1586141
1.1586045
1.1585858
1.1585533
1.1585016
1.1584241
1.1583128
1.1581559
1.1579359
1.1576125
1.1569527
1.1549095
1.1439774
1.1134794
1.0716012
1.0302298
0.99274032
0.96020224
0.93313064
0.91157831
0.89506989
0.88273345
0.87356663
0.86663317
0.86112748
0.85633217
0.85147959
0.84538423
0.83613914
)
;

boundaryField
{
    maxY
    {
        type            calculated;
        value           nonuniform List<scalar> 
300
(
1.1586175
1.1586175
1.1586175
1.1586175
1.1586175
1.1586175
1.1586175
1.1586175
1.1586175
1.1586175
1.1586135
1.1586137
1.1586136
1.1586136
1.1586136
1.1586136
1.1586136
1.1586136
1.1586137
1.1586135
1.1586039
1.1586047
1.1586046
1.1586046
1.1586046
1.1586046
1.1586046
1.1586047
1.1586047
1.158604
1.1585851
1.1585877
1.1585876
1.1585874
1.1585873
1.1585873
1.1585875
1.1585877
1.1585878
1.1585852
1.1585526
1.1585594
1.1585592
1.1585587
1.1585585
1.1585585
1.1585588
1.1585593
1.1585595
1.1585528
1.1585009
1.1585159
1.1585159
1.1585147
1.1585141
1.1585141
1.1585148
1.158516
1.158516
1.1585011
1.1584235
1.1584532
1.1584537
1.1584513
1.1584499
1.1584499
1.1584513
1.1584537
1.1584531
1.1584235
1.1583125
1.158367
1.1583686
1.1583639
1.1583613
1.1583611
1.1583637
1.1583684
1.1583665
1.1583122
1.1581563
1.158253
1.1582569
1.1582481
1.1582431
1.1582424
1.1582473
1.158256
1.1582516
1.1581554
1.157937
1.1581061
1.1581148
1.158099
1.1580899
1.1580879
1.158097
1.1581126
1.1581032
1.1579354
1.1576127
1.1579188
1.1579392
1.1579114
1.1578946
1.157888
1.1579066
1.1579346
1.1579138
1.157612
1.1569192
1.1576576
1.1577253
1.1576743
1.1576307
1.157568
1.1576518
1.1577141
1.1576535
1.1569522
1.1547202
1.1571251
1.1574346
1.1572547
1.1568693
1.1555462
1.1569195
1.1573474
1.1571472
1.154909
1.142023
1.1548273
1.1565268
1.1545749
1.1487175
1.1220685
1.1489827
1.155228
1.1550834
1.1439769
1.1098979
1.1459209
1.1497381
1.1299708
1.0766694
1.0020003
1.0956084
1.1382369
1.1461442
1.1134789
1.0675583
1.1239406
1.1255579
1.0728717
0.99865717
0.97961919
1.0145164
1.0933154
1.1229481
1.0716007
1.0260836
1.0887003
1.0885121
1.016266
0.98450928
0.97246974
1.0022078
1.0607381
1.0888088
1.0302294
0.98921154
1.0485133
1.0662238
1.0118708
0.97830532
0.96749578
1.0024744
1.0497735
1.0484161
0.99273994
0.95755809
1.0101207
1.0400156
1.0170122
0.97315779
0.95961175
1.0026113
1.0268287
1.0093786
0.96020188
0.93121473
0.97638683
1.0073107
1.0046675
0.96789932
0.95089401
0.98868688
0.9971226
0.97537677
0.9331303
0.9100652
0.94872543
0.97674142
0.98076857
0.95773551
0.94199115
0.97041056
0.96994359
0.94798428
0.91157799
0.89368932
0.9284869
0.95248874
0.95847011
0.94401628
0.93143993
0.95285702
0.94824116
0.9277682
0.89506957
0.8813454
0.91281065
0.93360343
0.94117807
0.92981683
0.92032672
0.9359741
0.93093298
0.91203459
0.88273315
0.8721377
0.9001763
0.91845936
0.92594227
0.91569607
0.90993573
0.9224434
0.91671787
0.89918912
0.87356633
0.86518183
0.88950633
0.90574055
0.9114776
0.902131
0.90060283
0.91005961
0.90481177
0.88858941
0.86663287
0.85967736
0.88001942
0.89453599
0.89432015
0.88950227
0.89210533
0.892947
0.89480227
0.88024851
0.86112719
0.8548991
0.87234939
0.88477978
0.87422582
0.88043115
0.88535671
0.87234361
0.8862259
0.87337444
0.85633189
0.85005627
0.86572783
0.87609763
0.85819697
0.87060588
0.86327137
0.8548401
0.87867528
0.86729599
0.8514793
0.84394316
0.8592676
0.86500846
0.83823826
0.84031495
0.82990361
0.83619799
0.86674275
0.8612556
0.84538395
0.83469659
0.85231682
0.8409449
0.8224002
0.8042737
0.79200183
0.81562114
0.84177222
0.85465274
0.83613886
)
;
    }
    minX
    {
        type            calculated;
        value           nonuniform List<scalar> 
40
(
1.1586221
1.1586211
1.1586201
1.158619
1.1586221
1.1586211
1.1586201
1.158619
1.1586221
1.1586211
1.1586201
1.158619
1.1586221
1.1586211
1.1586201
1.158619
1.1586221
1.1586211
1.1586201
1.158619
1.1586221
1.1586211
1.1586201
1.158619
1.1586221
1.1586211
1.1586201
1.158619
1.1586221
1.1586211
1.1586201
1.158619
1.1586221
1.1586211
1.1586201
1.158619
1.1586221
1.1586211
1.1586201
1.158619
)
;
    }
    maxX
    {
        type            calculated;
        value           nonuniform List<scalar> 
40
(
0.72740676
0.78580297
0.81450003
0.83467739
0.78117456
0.93897991
0.88265455
0.85229637
0.81072123
0.90523962
0.86729506
0.83997255
0.70775373
0.83849032
0.83739836
0.82178369
0.65185367
0.73614819
0.78757077
0.80427517
0.64882613
0.72047139
0.77124466
0.79279081
0.70314355
0.82247093
0.82853261
0.81490633
0.80103723
0.89751363
0.86543533
0.84106809
0.77968442
0.93385437
0.88395921
0.85468784
0.72717156
0.78585195
0.81522131
0.83616944
)
;
    }
    minZ
    {
        type            calculated;
        value           nonuniform List<scalar> 
120
(
1.0760527
1.1567083
1.1585775
1.158618
1.0094687
1.153115
1.1584571
1.158614
0.95593994
1.1482287
1.1582337
1.1586044
0.91134596
1.1422934
1.1578856
1.1585856
0.87299587
1.1354899
1.1573944
1.1585531
0.83927438
1.1279611
1.1567445
1.1585014
0.80925674
1.1198363
1.1559237
1.158424
0.78259462
1.1107692
1.1549103
1.1583131
0.75938235
1.0984275
1.1536254
1.1581568
0.73920075
1.0823011
1.1519788
1.1579376
0.72182671
1.0602541
1.1497122
1.1576132
0.70720969
1.0314793
1.1427057
1.1569197
0.69562623
0.99631988
1.1243313
1.1547207
0.69389263
0.96010284
1.0930731
1.1420235
0.69512407
0.92670536
1.0534245
1.1098984
0.69947344
0.8989817
1.0114356
1.0675587
0.70642984
0.87761234
0.97207802
1.026084
0.71488493
0.86197735
0.9385738
0.98921192
0.72360567
0.85121698
0.91152759
0.95755845
0.73163594
0.84458456
0.89074241
0.93121508
0.73842883
0.84119253
0.87556636
0.91006552
0.74375869
0.8399484
0.86500187
0.89368964
0.74759016
0.83976793
0.85789003
0.8813457
0.74995898
0.83968414
0.85308673
0.872138
0.75090099
0.83885647
0.84956285
0.86518212
0.75041055
0.83649253
0.84641168
0.85967765
0.74837261
0.83166602
0.84275346
0.85489939
0.74443137
0.82302135
0.83752076
0.85005655
0.73777532
0.80828699
0.82892517
0.84394344
0.72735458
0.785748
0.81448911
0.83469686
)
;
    }
    maxZ
    {
        type            calculated;
        value           nonuniform List<scalar> 
120
(
1.0763743
1.1567163
1.1585777
1.158618
1.0100101
1.1531377
1.1584577
1.1586141
0.95663857
1.1482707
1.1582352
1.1586045
0.91216847
1.1423579
1.1578883
1.1585858
0.87392186
1.1355789
1.1573985
1.1585533
0.84028578
1.1280744
1.1567501
1.1585016
0.81032447
1.1199745
1.1559304
1.1584241
0.78363996
1.111106
1.1549221
1.1583128
0.76039808
1.0990737
1.1536485
1.1581559
0.7401872
1.0833434
1.1520221
1.1579359
0.72279171
1.0619758
1.1498164
1.1576125
0.7081745
1.0337412
1.1436787
1.1569527
0.6966411
0.99909438
1.1269524
1.1549095
0.69506183
0.96319607
1.097014
1.1439774
0.696606
0.92982735
1.058258
1.1134794
0.70139328
0.90173247
1.0163207
1.0716012
0.70878415
0.87964188
0.97662659
1.0302298
0.71757976
0.86324387
0.94227584
0.99274032
0.72652748
0.85197347
0.91430798
0.96020224
0.73468866
0.84516088
0.89281142
0.93313064
0.74153333
0.84182406
0.87721864
0.91157831
0.7468356
0.84069269
0.86646268
0.89506989
0.75053777
0.840515
0.85925688
0.88273345
0.75265044
0.84024852
0.85435273
0.87356663
0.75320816
0.83909472
0.85067617
0.86663317
0.75223054
0.83636907
0.84732971
0.86112748
0.74964614
0.83127048
0.84348622
0.85633217
0.74515782
0.82257418
0.83814624
0.85147959
0.73798642
0.80808597
0.82956675
0.84538423
0.72708861
0.78573753
0.81515697
0.83613914
)
;
    }
    topAir_to_rightSolid
    {
        type            calculated;
        value           nonuniform List<scalar> 
130
(
0.46765495
0.46283892
0.45791237
0.45313538
0.44867237
0.44462921
0.44105816
0.43797948
0.43539635
0.43332742
0.43177678
0.4307429
0.43022494
0.47127989
0.46557661
0.45990019
0.4545373
0.44964467
0.44529746
0.44151876
0.43830035
0.43562913
0.43350504
0.43191803
0.43086127
0.43033234
0.47874412
0.4709393
0.46361429
0.45705376
0.45132964
0.446425
0.44227916
0.43882298
0.43600403
0.43378738
0.43214193
0.43104809
0.43050022
0.4903343
0.47839961
0.46834316
0.46005343
0.45324546
0.44765541
0.44308328
0.43936639
0.43638975
0.43407737
0.43237359
0.43124294
0.4306774
0.50480668
0.48577549
0.47239216
0.46241421
0.45468805
0.44856892
0.44368748
0.43978795
0.43670304
0.43432443
0.43257804
0.43142347
0.43084955
0.50505505
0.48600949
0.47260241
0.46259998
0.45484825
0.44872121
0.44383422
0.43993433
0.43685235
0.43447534
0.43272748
0.43157167
0.43099988
0.49100423
0.47902151
0.46891047
0.46056481
0.45370054
0.44807242
0.44348127
0.43976322
0.43679773
0.43449558
0.43279605
0.43167258
0.431116
0.47967112
0.47179437
0.46439988
0.45777306
0.45198736
0.4470386
0.44286693
0.43941219
0.43660959
0.43441325
0.43279291
0.43172251
0.43118857
0.4723519
0.46655841
0.46080061
0.45536275
0.45040878
0.4460269
0.44222936
0.43901117
0.43636291
0.43427452
0.43272594
0.43170049
0.4311881
0.46876187
0.46385214
0.45884644
0.45399436
0.44947312
0.4453995
0.44181666
0.43874159
0.43619228
0.434169
0.43266284
0.43166314
0.431163
)
;
    }
    topAir_to_heater
    {
        type            calculated;
        value           nonuniform List<scalar> 
40
(
0.47945763
0.47814141
0.47559549
0.47202388
0.48562698
0.4840392
0.48094696
0.47657646
0.4991223
0.49694167
0.49262199
0.48635207
0.52280338
0.51976241
0.51337179
0.50336339
0.5615156
0.55834247
0.5501689
0.53437864
0.56171112
0.55854574
0.55037949
0.53460495
0.52345304
0.52044063
0.51404456
0.50403789
0.50024429
0.49803941
0.4936644
0.48733939
0.48698909
0.48536972
0.48221396
0.47774694
0.4809123
0.4795662
0.47695612
0.47325477
)
;
    }
    topAir_to_leftSolid
    {
        type            calculated;
        value           nonuniform List<scalar> 
130
(
0.40172039
0.40175905
0.40182497
0.40191011
0.40200811
0.40210378
0.40219377
0.40228069
0.40235585
0.40241312
0.40245343
0.40247883
0.40249825
0.4017698
0.40180671
0.40187587
0.40196955
0.40206913
0.40216554
0.40226324
0.40236147
0.40245127
0.40252476
0.40258337
0.40262286
0.40264739
0.40185974
0.40189697
0.40197235
0.40207237
0.40217672
0.40228528
0.40239904
0.40251592
0.40262881
0.40273522
0.40283117
0.40289867
0.40293638
0.40198529
0.402025
0.40210087
0.40219951
0.40231567
0.40244368
0.40258371
0.40272248
0.40286477
0.40301596
0.403184
0.40328921
0.40334301
0.40213274
0.40216876
0.40223866
0.402338
0.40247137
0.40261727
0.4027706
0.40292899
0.40309739
0.40328173
0.40346217
0.40358001
0.40364586
0.40230739
0.40233857
0.4024025
0.40250074
0.40263502
0.40277963
0.40294711
0.40311874
0.4033022
0.40350658
0.40368
0.40379873
0.40386524
0.40250836
0.40253707
0.40259657
0.40268582
0.40280525
0.40294361
0.40311531
0.40328391
0.4034618
0.40365667
0.40380801
0.40391229
0.40396828
0.40266855
0.40269581
0.40275535
0.40284746
0.40295823
0.40308521
0.40323324
0.40338523
0.40354377
0.40371359
0.40385327
0.40394643
0.40399529
0.40277776
0.40280473
0.4028636
0.40295682
0.40306298
0.40317732
0.40330291
0.40343663
0.40357154
0.40370879
0.40383592
0.40392822
0.40397689
0.40283226
0.40285754
0.40291463
0.40300515
0.4031145
0.40322469
0.40333944
0.40345765
0.4035739
0.40368747
0.40378967
0.4038697
0.4039147
)
;
    }
}


// ************************************************************************* //
