/*--------------------------------*- C++ -*----------------------------------*\
| =========                 |                                                 |
| \\      /  F ield         | OpenFOAM: The Open Source CFD Toolbox           |
|  \\    /   O peration     | Version:  v2012                                 |
|   \\  /    A nd           | Website:  www.openfoam.com                      |
|    \\/     M anipulation  |                                                 |
\*---------------------------------------------------------------------------*/
FoamFile
{
    version     2.0;
    format      ascii;
    class       volScalarField;
    location    "350/topAir";
    object      T;
}
// * * * * * * * * * * * * * * * * * * * * * * * * * * * * * * * * * * * * * //

dimensions      [0 0 0 1 0 0 0];


internalField   nonuniform List<scalar> 
1200
(
323.0201
344.32631
363.60718
381.3992
398.15379
414.15134
429.51338
444.14641
457.72276
470.21946
481.53742
491.4901
499.6743
500.92266
500.03524
496.92598
492.03262
486.21324
480.35349
475.08123
470.71091
467.33773
464.94258
463.47401
462.89257
463.19509
464.45644
466.91541
471.12782
477.87762
300.49611
301.4325
302.71525
304.28815
306.11134
308.15454
310.39031
312.924
316.43995
321.15494
327.83305
336.97848
348.8702
362.03029
375.07747
386.64445
396.05902
403.24293
408.34038
411.54703
413.20655
413.81859
413.90752
413.94882
414.35724
415.52822
417.9397
422.32956
430.02826
442.36352
300.01103
300.04221
300.10008
300.1903
300.31771
300.48643
300.6998
300.96364
301.29886
301.72953
302.32438
304.17807
309.1491
317.98973
329.95815
343.65608
357.57007
370.33423
381.32253
390.22056
396.98419
401.83266
405.16382
407.4451
409.13513
410.65833
412.44091
415.01778
419.32133
426.75341
300.00027
300.00129
300.00378
300.00864
300.01706
300.03045
300.05049
300.07924
300.11973
300.17655
300.26066
300.44065
301.01279
304.3595
313.16894
325.58933
338.74977
351.37641
362.99168
373.26045
381.93488
388.93342
394.38075
398.54447
401.74868
404.32106
406.58092
408.89725
411.8591
416.42158
323.01032
344.08376
362.91221
380.0345
395.87224
410.65118
424.43442
437.17856
448.71136
458.75488
466.91521
472.74312
475.71117
470.21408
462.29119
452.96952
443.85083
436.34715
430.96626
427.45972
425.27944
423.98279
423.32103
423.22738
423.73816
424.93299
426.98661
430.34104
435.99902
445.02586
300.49534
301.41406
302.64786
304.13039
305.81121
307.64807
309.59796
311.61186
313.63195
315.58436
317.37145
318.87471
319.96101
320.41463
320.32227
320.10712
320.40008
321.58143
323.51638
325.87954
328.44393
331.1764
334.11008
337.33018
340.94439
345.05921
349.74073
355.00287
360.96552
370.13975
300.01099
300.04133
300.09619
300.17947
300.29388
300.44107
300.62146
300.83392
301.07556
301.34064
301.61966
301.91983
302.24873
302.58742
303.31553
305.13909
308.90957
314.84161
321.81388
328.68806
334.80574
340.8946
346.91057
352.93401
358.86425
364.6668
370.92412
377.86029
385.44249
393.76875
300.00027
300.00126
300.00357
300.00797
300.01531
300.02657
300.04281
300.06513
300.09468
300.13272
300.18128
300.24902
300.38719
300.98487
303.3242
309.25615
319.26652
331.50324
344.10299
355.99167
366.37111
374.35703
380.7861
386.13059
390.76239
394.97495
398.44772
401.49527
404.51384
407.81272
322.99986
344.10454
362.98141
380.16651
396.08755
410.98084
424.95749
438.05384
450.22662
461.34256
471.16038
479.30482
485.061
481.27752
474.00769
463.83281
452.61062
441.94944
432.66456
425.02075
418.9315
414.21428
410.78223
408.67015
407.9343
408.53883
410.3744
413.46632
418.63351
428.73777
300.49521
301.41664
302.65565
304.14503
305.83483
307.68508
309.65909
311.71878
313.81836
315.89745
317.87147
319.61316
320.92631
321.44321
321.09661
320.43367
320.25429
320.77206
321.9953
323.84388
326.21553
329.11067
332.65464
337.00446
342.24866
348.39239
355.47018
363.52067
372.69151
383.90368
300.01099
300.04145
300.09659
300.18026
300.29505
300.44258
300.62339
300.83675
301.08027
301.34876
301.63216
301.91245
302.1587
302.3499
302.8212
304.71875
308.41968
312.52097
316.84966
321.361
325.99467
331.12814
337.31625
344.81675
353.46402
362.62708
371.73314
380.61804
389.61146
400.55011
300.00027
300.00126
300.00359
300.008
300.01535
300.02657
300.04269
300.06471
300.09366
300.13048
300.17599
300.23145
300.30685
300.54259
302.31715
308.81179
319.32173
325.99681
334.21188
345.06291
355.86243
364.92357
372.3054
378.44419
383.75848
388.56527
392.84988
396.74304
401.82919
413.3275
322.98885
344.09718
362.99939
380.23716
396.25367
411.31574
425.57787
439.13766
452.05225
464.33279
475.92051
486.62395
495.77239
495.1146
492.46912
489.86697
488.8938
489.26349
489.88472
489.99208
489.14835
487.1689
484.15744
480.42223
476.35468
472.70947
471.02116
473.61887
480.78581
491.12335
300.49501
301.41717
302.6594
304.15588
305.85897
307.7329
309.74816
311.8776
314.09228
316.35382
318.59815
320.70287
322.42996
323.33359
323.66605
324.33155
325.54512
327.02868
328.64817
330.44668
332.56121
335.1896
338.56842
342.88362
348.24467
354.77015
362.35574
370.41353
384.78587
414.56005
300.01099
300.04149
300.09682
300.18099
300.29683
300.44633
300.63067
300.85016
301.10387
301.38869
301.69646
302.00738
302.28209
302.56539
304.06772
308.01678
312.0909
315.11415
317.95002
321.20494
325.49609
331.3878
339.22293
348.76653
359.56345
371.96369
384.1748
392.72098
400.23277
414.92854
300.00027
300.00126
300.0036
300.00805
300.01547
300.02687
300.0433
300.06593
300.09593
300.13458
300.18319
300.24467
300.35355
301.05067
307.60578
323.97683
342.02224
343.50786
341.7713
345.97077
354.40123
362.64626
369.30908
375.38584
381.34302
388.65906
397.59251
405.0185
414.66213
422.64785
322.9754
344.07654
362.97858
380.22195
396.24913
411.32816
425.61724
439.21463
452.17346
464.48918
476.05887
486.57091
495.09595
491.83094
488.25554
487.07137
488.90661
492.83785
497.30977
501.9955
506.60482
510.84911
514.44767
517.16493
518.88587
519.75296
520.34129
521.74496
525.41802
533.19196
300.49474
301.41687
302.66
304.15879
305.86601
307.74653
309.77155
311.91492
314.14773
316.42769
318.67562
320.72805
322.27583
322.94199
323.79588
325.26609
327.10325
329.85487
333.74195
338.16275
342.7205
347.6447
353.80451
362.26637
373.59119
387.37191
403.47348
422.03453
444.0606
472.12579
300.01098
300.04149
300.09691
300.1813
300.2976
300.44794
300.63367
300.85531
301.11218
301.40085
301.7111
302.01599
302.2739
302.83671
306.78652
310.84147
313.48694
315.01763
316.53779
318.9839
323.23354
330.16958
339.83478
351.17027
362.00801
371.47945
380.74942
394.09231
413.46042
441.35313
300.00027
300.00126
300.00361
300.00807
300.01554
300.02703
300.04365
300.06661
300.09723
300.13694
300.18755
300.256
300.45362
302.58576
322.83407
348.05295
353.05465
355.29356
357.17289
359.11337
362.92441
368.19874
373.8216
379.58623
385.29396
390.76419
394.79026
399.2457
413.63738
432.17341
322.96023
344.04786
362.938
380.17014
396.18614
411.25376
425.52712
439.09895
452.01007
464.22976
475.58839
485.62005
493.25016
489.60955
487.36309
488.0955
490.69735
494.3624
498.61466
503.09356
507.46908
511.43723
514.763
517.30225
519.02702
520.11084
521.1248
523.10543
527.36534
535.75786
300.49441
301.41595
302.6583
304.15618
305.86236
307.74166
309.76495
311.90484
314.1294
316.38777
318.57878
320.49078
321.78091
322.53403
323.92948
325.74305
328.47187
332.84212
338.36712
344.69639
351.66974
359.42291
368.69284
379.7638
392.51072
406.60245
421.87173
438.61661
457.99437
482.78585
300.01097
300.04146
300.09685
300.18119
300.29744
300.44773
300.6334
300.85495
301.11142
301.39839
301.70236
301.98877
302.26974
304.20562
308.57993
311.38338
312.88007
314.53528
316.59836
319.2931
323.93242
331.65272
342.67958
355.20915
366.5592
376.94617
388.98798
403.98971
423.81331
451.09976
300.00027
300.00126
300.00361
300.00807
300.01554
300.02703
300.04366
300.06667
300.09742
300.13746
300.18926
300.27226
300.79762
309.77215
346.8917
354.81704
357.4256
359.26315
362.21481
365.53558
368.9903
373.17018
377.67633
381.9892
385.94774
389.62399
392.5939
402.63777
418.82658
438.86985
322.9434
344.01084
362.87663
380.08013
396.06184
411.08608
425.30408
438.81033
451.64927
463.80218
475.1616
485.41339
493.69242
491.84117
488.93461
487.54515
488.16362
489.71442
491.01903
491.27116
490.06436
487.53086
484.24032
480.72911
477.29354
474.45132
473.82597
477.52671
484.0974
494.41548
300.49404
301.4144
302.65428
304.14802
305.84796
307.71823
309.72884
311.85181
314.0556
316.29434
318.48633
320.47147
321.95725
322.58875
323.19858
324.43795
326.03401
327.76556
329.57733
331.55769
333.9455
337.06188
341.16107
346.23927
352.15147
358.921
366.50797
374.77887
392.24963
422.87959
300.01097
300.04141
300.09664
300.18068
300.29635
300.44566
300.62979
300.84902
301.10222
301.38553
301.68828
301.98436
302.23564
302.77094
306.00477
310.36278
313.42974
315.77278
318.45801
322.16346
327.50498
334.87832
344.27895
354.85145
365.47171
376.20896
386.19367
394.10539
402.53878
419.61451
300.00026
300.00126
300.0036
300.00804
300.01546
300.02685
300.0433
300.06598
300.09613
300.13509
300.18444
300.25051
300.44056
302.51591
317.25346
342.61208
346.81988
346.72763
346.6803
351.56286
358.18406
364.78254
371.36242
376.8097
381.93721
389.25674
398.45038
406.60897
415.67388
426.16071
322.9296
343.97049
362.78988
379.92072
395.7879
410.6255
424.53726
437.56033
449.64861
460.6558
470.29715
478.1152
483.2466
478.4509
470.15631
459.99601
449.79739
440.44344
432.23473
425.2324
419.42067
414.84833
411.65941
409.97279
409.77091
410.89768
413.204
416.75641
422.65174
433.90262
300.4937
301.41235
302.64769
304.13274
305.81767
307.66251
309.63025
311.68211
313.771
315.83105
317.7661
319.42576
320.57477
320.83842
320.41393
320.20601
320.6195
321.58733
323.0858
325.10675
327.67981
330.93169
335.02425
340.01958
345.8432
352.38643
359.61324
367.33876
376.04922
387.28973
300.01096
300.04133
300.09631
300.17976
300.29429
300.44154
300.62207
300.83516
301.07827
301.34578
301.6261
301.89731
302.12371
302.34442
303.47122
306.8966
311.20279
315.14307
319.1365
323.44214
328.33326
334.30981
341.65016
350.09122
359.01653
367.76813
376.06463
383.51278
391.16169
401.60654
300.00026
300.00126
300.00358
300.00798
300.01532
300.02654
300.04268
300.06477
300.09389
300.13105
300.17717
300.23436
300.32949
300.88047
305.37189
317.91883
327.68272
331.10529
338.50394
348.58861
358.3565
366.55823
373.37339
379.16312
384.15241
388.44965
392.20885
395.57918
401.02516
412.92127
322.9228
343.91654
362.67244
379.7252
395.49259
410.1985
423.9154
436.59554
448.07104
458.05174
466.13504
471.83275
474.53138
468.51538
459.80327
449.7435
440.28064
432.80935
427.65921
424.41567
422.45671
421.35276
420.91847
421.13703
422.04631
423.70271
426.24141
430.05559
436.20877
445.87737
300.49346
301.40872
302.63796
304.11514
305.79001
307.62056
309.5644
311.57233
313.58638
315.52914
317.29996
318.76903
319.78214
320.09817
319.83901
319.57964
320.03828
321.48885
323.69873
326.30792
329.11199
332.11337
335.37914
338.99212
343.01764
347.49601
352.4293
357.75126
363.594
372.22733
300.01095
300.04118
300.09584
300.17886
300.29296
300.43986
300.62006
300.8325
301.07434
301.3397
301.61845
301.91227
302.22555
302.5371
303.30141
305.38122
309.65945
315.95635
323.09067
329.88553
335.83444
341.65376
347.39647
353.13642
358.92718
365.00453
371.48683
378.26621
385.44647
393.24342
300.00026
300.00125
300.00356
300.00794
300.01527
300.02654
300.04282
300.06525
300.09503
300.13347
300.18258
300.25007
300.38144
300.91813
303.26511
309.52949
319.2347
331.53397
344.356
356.36032
366.65755
374.64703
381.11012
386.55451
391.16561
394.87216
397.98008
400.76933
403.58012
406.69809
322.92359
344.14173
363.34164
381.05529
397.73191
413.65285
428.94743
443.55394
457.11134
469.5928
480.89452
490.8205
498.94638
500.08004
498.97149
495.56581
490.39827
484.38729
478.4217
473.10722
468.74023
465.41233
463.11659
461.81663
461.47467
462.07441
463.66741
466.46022
470.99305
478.05243
300.49403
301.42658
302.70419
304.27096
306.08736
308.1236
310.35201
312.82913
316.25389
320.84594
327.30155
336.24112
347.90138
360.86766
373.8181
385.46498
395.14522
402.65131
407.97781
411.26639
412.89657
413.45223
413.53963
413.67078
414.23959
415.58956
418.13857
422.55915
430.13523
442.36941
300.01098
300.04204
300.09969
300.1896
300.31663
300.48498
300.69805
300.96057
301.29282
301.71819
302.29697
303.9193
308.43009
316.84738
328.4511
342.00427
355.90471
368.87925
380.16293
389.31626
396.23646
401.15519
404.51932
406.84134
408.59967
410.2134
412.08261
414.70806
418.99704
426.40377
300.00027
300.00129
300.00376
300.00862
300.01702
300.03041
300.05049
300.07932
300.11995
300.17699
300.26084
300.43209
300.96359
303.83966
312.16179
324.36108
337.38659
350.12755
361.99223
372.49421
381.30105
388.33367
393.76074
397.89269
401.07602
403.64033
405.90065
408.21388
411.15717
415.70328
)
;

boundaryField
{
    maxY
    {
        type            zeroGradient;
    }
    minX
    {
        type            fixedValue;
        value           uniform 300;
    }
    maxX
    {
        type            inletOutlet;
        inletValue      uniform 300;
        value           nonuniform List<scalar> 
40
(
477.84337
442.33259
426.74771
416.43127
444.95365
370.17422
393.79614
407.82263
428.73734
383.97146
400.77014
413.8061
491.11222
414.53815
415.07843
422.96506
533.22784
472.16891
441.33944
432.17275
535.71599
482.4429
450.68196
438.43321
494.33222
422.61218
419.52
426.53466
433.92049
387.27677
401.63136
413.26709
445.80405
372.20596
393.21492
406.68151
477.99792
442.30502
426.37013
415.6882
)
;
    }
    minZ
    {
        type            zeroGradient;
    }
    maxZ
    {
        type            zeroGradient;
    }
    topAir_to_rightSolid
    {
        type            compressible::turbulentTemperatureCoupledBaffleMixed;
        refValue        nonuniform List<scalar> 
130
(
743.33706
751.07529
759.15925
767.16537
774.79905
781.84669
788.17863
793.72019
798.42996
802.24237
805.12321
807.05469
808.02435
737.63445
746.67386
755.89266
764.81343
773.13733
780.6866
787.36923
793.15164
798.01558
801.9257
804.87165
806.84425
807.8332
726.12979
738.16918
749.83674
760.60379
770.25359
778.71853
786.02
792.21197
797.33459
801.40901
804.46001
806.50007
807.52333
708.94743
726.63732
742.2433
755.62092
766.9737
776.55412
784.57011
791.20991
796.60901
800.85399
804.00953
806.11561
807.17102
688.61686
715.5995
735.87614
751.75683
764.53223
774.96261
783.48967
790.43765
796.02224
800.38244
803.61393
805.76384
806.83492
688.27765
715.25447
735.54835
751.45459
764.26272
774.69945
783.23054
790.17455
795.75001
800.10415
803.33593
805.48648
806.55264
707.97979
725.6934
741.34472
754.7815
766.20418
775.83129
783.86583
790.49555
795.86429
800.08214
803.22335
805.31209
806.34864
724.72671
736.83124
748.56803
759.4083
769.13234
777.6492
784.9762
791.1489
796.22777
800.2533
803.24872
805.23868
806.23231
735.96119
745.10336
754.41634
763.42768
771.82634
779.41041
786.1045
791.86775
796.67384
800.5048
803.36879
805.27542
806.22937
741.58197
749.43495
757.61415
765.71421
773.41909
780.49488
786.82578
792.34167
796.97313
800.68729
803.47421
805.3339
806.26598
)
;
        refGradient     uniform 0;
        valueFraction   uniform 0.99967867;
        value           nonuniform List<scalar> 
130
(
743.25443
750.98829
759.06796
767.07011
774.70025
781.74485
788.07429
793.61388
798.32223
802.13382
805.01453
806.94674
807.91825
737.53763
746.5724
755.78711
764.70432
773.02513
780.57177
787.25221
793.03293
797.89569
801.8052
804.75128
806.72506
807.7166
726.03848
738.07102
749.73238
760.49401
770.13919
778.6003
785.89874
792.08848
797.20965
801.28335
804.33436
806.37543
807.40162
708.87685
726.56127
742.16227
755.53533
766.88382
776.46019
784.4724
791.10876
796.50494
800.748
803.90335
806.01105
807.06946
688.55395
715.52936
735.80099
751.67806
764.45072
774.87891
783.4041
790.3504
795.93348
800.29247
803.52337
805.67377
806.747
688.21533
715.18485
735.47365
751.37618
764.18147
774.61592
783.14508
790.08741
795.66143
800.01449
803.24587
805.3971
806.46561
707.90965
725.61799
741.26436
754.69642
766.11462
775.73757
783.76839
790.39488
795.76097
799.97725
803.11863
805.20883
806.24838
724.63536
736.73335
748.46412
759.29904
769.01849
777.53159
784.85569
791.02635
796.10394
800.12892
803.12451
805.11573
806.11268
735.86377
745.00135
754.31029
763.31811
771.71371
779.2952
785.98722
791.7489
796.55397
800.38451
803.24881
805.1568
806.11356
741.49932
749.34786
757.52273
765.61878
773.32011
780.39289
786.72133
792.23534
796.86551
800.57899
803.36591
805.22645
806.1605
)
;
        Tnbr            T;
        thicknessLayers List<scalar> 0();
        kappaLayers     List<scalar> 0();
        kappaMethod     fluidThermo;
        kappa           none;
        alphaAni        none;
        alpha           none;
        field           T;
    }
    topAir_to_heater
    {
        type            compressible::turbulentTemperatureCoupledBaffleMixed;
        refValue        nonuniform List<scalar> 
40
(
725.03
727.02656
730.92027
736.45362
715.82719
718.17832
722.79978
729.43256
696.46493
699.52409
705.66265
714.76538
664.90614
668.79807
677.12628
690.59305
619.05602
622.57624
631.82822
650.50202
618.8412
622.34989
631.58608
650.22601
664.08178
667.92746
676.24063
689.66895
694.9034
697.98316
704.1735
713.31793
713.82514
716.21001
720.90131
727.64625
722.8367
724.86644
728.83513
734.53828
)
;
        refGradient     uniform 0;
        valueFraction   uniform 0.99967867;
        value           nonuniform List<scalar> 
40
(
724.95798
726.95362
730.84508
736.37507
715.74826
718.09609
722.71307
729.34078
696.39578
699.45163
705.58494
714.68115
664.85159
668.74142
677.06612
690.52825
619.01514
622.53308
631.78171
650.45009
618.79967
622.30651
631.53997
650.17474
664.02643
667.86994
676.17999
689.60419
694.83384
697.90995
704.09504
713.23325
713.7463
716.12761
720.81417
727.5539
722.76512
724.79385
728.76017
734.45983
)
;
        Tnbr            T;
        thicknessLayers List<scalar> 0();
        kappaLayers     List<scalar> 0();
        kappaMethod     fluidThermo;
        kappa           none;
        alphaAni        none;
        alpha           none;
        field           T;
    }
    topAir_to_leftSolid
    {
        type            compressible::turbulentTemperatureCoupledBaffleMixed;
        refValue        nonuniform List<scalar> 
130
(
865.41985
865.32969
865.18147
864.99241
864.7761
864.56514
864.3667
864.1752
864.00934
863.88232
863.79212
863.73437
863.69004
865.31342
865.22711
865.0721
864.86492
864.64558
864.43348
864.21906
864.00391
863.80736
863.64638
863.51799
863.43139
863.37782
865.11974
865.03276
864.86441
864.64368
864.41416
864.17605
863.92718
863.67205
863.42593
863.19415
862.98534
862.8381
862.75548
864.8495
864.75724
864.58794
864.37029
864.11552
863.83575
863.53064
863.22865
862.91952
862.5918
862.22847
862.00004
861.88208
864.53236
864.4481
864.29175
864.07273
863.78119
863.46323
863.12987
862.78613
862.42143
862.02318
861.63384
861.37883
861.23551
864.157
864.0832
863.93981
863.72334
863.43006
863.11514
862.75175
862.37997
861.98346
861.54283
861.16897
860.91248
860.76819
863.72548
863.65706
863.52332
863.32633
863.06516
862.7639
862.39177
862.02682
861.64253
861.22255
860.89606
860.67044
860.54845
863.38184
863.31658
863.18286
862.97992
862.73755
862.46093
862.13976
861.81067
861.46813
861.10213
860.80113
860.60005
860.49427
863.14771
863.08314
862.95093
862.74575
862.51339
862.264
861.991
861.70116
861.40933
861.11321
860.83946
860.64089
860.5363
863.03093
862.96991
862.84139
862.64185
862.40242
862.16158
861.91129
861.654
861.40139
861.15497
860.93332
860.75945
860.66091
)
;
        refGradient     uniform 0;
        valueFraction   uniform 0.99967867;
        value           nonuniform List<scalar> 
130
(
865.24556
865.16228
865.0203
864.83702
864.62616
864.42041
864.22697
864.04023
863.87879
863.75582
863.66929
863.61475
863.57307
865.13916
865.05965
864.91075
864.70913
864.49495
864.28767
864.07774
863.86676
863.67397
863.51628
863.39055
863.30584
863.25324
864.94554
864.86537
864.70314
864.48801
864.26367
864.03043
863.78613
863.53529
863.29316
863.06502
862.85944
862.71486
862.63411
864.67539
864.58994
864.42676
864.21472
863.96519
863.69034
863.38991
863.09238
862.7875
862.46383
862.10434
861.87942
861.76444
864.35835
864.28089
864.13066
863.91725
863.63096
863.31795
862.98928
862.65002
862.28961
861.89544
861.50995
861.25839
861.11786
863.9831
863.9161
863.77883
863.56797
863.27993
862.96995
862.61126
862.24396
861.85172
861.41516
861.04507
860.79189
860.6501
863.55172
863.49009
863.36245
863.17105
862.9151
862.61877
862.25133
861.89083
861.51079
861.09485
860.77211
860.54986
860.43058
863.20818
863.1497
863.02207
862.8247
862.58751
862.31574
861.99914
861.67435
861.3358
860.97346
860.67565
860.47715
860.37305
862.97412
862.91632
862.79018
862.59055
862.36332
862.11874
861.85024
861.56456
861.27652
860.9837
860.71263
860.51595
860.41226
862.85738
862.8032
862.68089
862.48711
862.25311
862.01746
861.77217
861.51965
861.27148
861.02915
860.8112
860.64058
860.54468
)
;
        Tnbr            T;
        thicknessLayers List<scalar> 0();
        kappaLayers     List<scalar> 0();
        kappaMethod     fluidThermo;
        kappa           none;
        alphaAni        none;
        alpha           none;
        field           T;
    }
}


// ************************************************************************* //
