/*--------------------------------*- C++ -*----------------------------------*\
| =========                 |                                                 |
| \\      /  F ield         | OpenFOAM: The Open Source CFD Toolbox           |
|  \\    /   O peration     | Version:  v2012                                 |
|   \\  /    A nd           | Website:  www.openfoam.com                      |
|    \\/     M anipulation  |                                                 |
\*---------------------------------------------------------------------------*/
FoamFile
{
    version     2.0;
    format      ascii;
    class       volVectorField;
    location    "350/topAir";
    object      U;
}
// * * * * * * * * * * * * * * * * * * * * * * * * * * * * * * * * * * * * * //

dimensions      [0 1 -1 0 0 0 0];


internalField   nonuniform List<vector> 
1200
(
(0.10409415 -0.002345737 0.00088289027)
(0.11685433 -0.0024614506 0.0013105871)
(0.1278192 -0.0022774867 0.0013831711)
(0.13637501 -0.0017668415 0.0012454067)
(0.14384244 -0.00098962322 0.00091105848)
(0.15081567 -0.00010861265 0.00034142187)
(0.15752445 0.00078669784 -0.00048615271)
(0.1642378 0.0016265631 -0.0017038195)
(0.17111707 0.002485722 -0.0035647315)
(0.17843474 0.0035287232 -0.0063581913)
(0.18635959 0.0050642194 -0.010457964)
(0.19460995 0.0074580977 -0.016258578)
(0.20186947 0.011143547 -0.024030888)
(0.20671249 0.015695422 -0.033698533)
(0.20906243 0.020915501 -0.044660787)
(0.20951372 0.026014156 -0.055880293)
(0.20852609 0.030362306 -0.066164559)
(0.20639006 0.033703742 -0.074624157)
(0.20336189 0.03598483 -0.080927673)
(0.19986467 0.037207256 -0.085175247)
(0.19651037 0.037455208 -0.087683542)
(0.19389618 0.036935685 -0.088799876)
(0.19238385 0.035891853 -0.088806304)
(0.19202786 0.034546398 -0.087891324)
(0.19259551 0.033098735 -0.086150755)
(0.1935578 0.031785066 -0.083559396)
(0.19391537 0.031018103 -0.079886494)
(0.19174373 0.031649662 -0.074578458)
(0.18379976 0.035645735 -0.066666938)
(0.14109813 0.04896997 -0.05417556)
(0.098722928 -0.0036966091 0.00086133045)
(0.098488151 -0.0045324327 0.0012902042)
(0.098802372 -0.0046153773 0.0014655637)
(0.099535709 -0.0041890774 0.0015449239)
(0.10078452 -0.0034400742 0.0015565179)
(0.10257745 -0.0026037198 0.001487269)
(0.10489424 -0.0018274149 0.0013155779)
(0.10782953 -0.0012113643 0.00098880719)
(0.11185472 -0.00045295303 0.00039287571)
(0.11742942 0.00079888235 -0.00062670512)
(0.12541095 0.0033330343 -0.0023674841)
(0.13611621 0.0081777481 -0.0052014629)
(0.14933079 0.016238642 -0.0096467102)
(0.16342801 0.026694988 -0.015919309)
(0.17651112 0.038810188 -0.023703637)
(0.18719852 0.050927731 -0.032048677)
(0.19473197 0.061894068 -0.039859101)
(0.19884699 0.071245147 -0.046449392)
(0.19982241 0.078588772 -0.051658261)
(0.19851743 0.083557294 -0.055577205)
(0.1961393 0.08608972 -0.058347687)
(0.19374157 0.086600222 -0.060033129)
(0.19191942 0.085673738 -0.06067275)
(0.19085206 0.083846375 -0.060313504)
(0.1904343 0.081506986 -0.058979109)
(0.19033371 0.079033992 -0.056561525)
(0.18985022 0.077153633 -0.052603566)
(0.18763763 0.077402897 -0.046044962)
(0.18243912 0.083007472 -0.034760205)
(0.15258262 0.098901699 -0.014536407)
(0.098842816 -0.002833405 0.00088828305)
(0.098056625 -0.0041164879 0.001338453)
(0.096491812 -0.0045187082 0.001534731)
(0.094494043 -0.0046038046 0.0016519774)
(0.092526204 -0.0045605181 0.0017427198)
(0.090770993 -0.004470949 0.0018187633)
(0.08922162 -0.0044299402 0.0018967776)
(0.087805857 -0.0045159322 0.0020129768)
(0.086551301 -0.0045518943 0.0022327662)
(0.085728564 -0.0044351588 0.002597507)
(0.085808906 -0.0039162447 0.0030422796)
(0.088609616 -0.0015720597 0.0031953714)
(0.097289148 0.0055933079 0.0024220055)
(0.11121653 0.018938264 0.00049660207)
(0.1282079 0.036351837 -0.0026648445)
(0.14502305 0.054591905 -0.0060812873)
(0.15963007 0.071159749 -0.0088271068)
(0.17059141 0.084516749 -0.010696238)
(0.17754957 0.094607705 -0.011939828)
(0.18122445 0.10152837 -0.013033651)
(0.1829294 0.10542834 -0.014324419)
(0.18379032 0.10661624 -0.015743046)
(0.18430828 0.10560948 -0.016794188)
(0.18449895 0.10296176 -0.017141504)
(0.18416406 0.099148068 -0.016641029)
(0.18311419 0.094619738 -0.015190362)
(0.18107008 0.090062931 -0.012386082)
(0.17752303 0.087053648 -0.0075770125)
(0.17290602 0.089157444 0.00046467384)
(0.15174791 0.10254522 0.014091104)
(0.096887648 -0.0015511318 0.00085469781)
(0.094725708 -0.002275512 0.0012668324)
(0.091069314 -0.0024918348 0.0014247305)
(0.086580777 -0.0025207249 0.0015015605)
(0.0820745 -0.0024602267 0.0015533027)
(0.0777936 -0.0023385317 0.0015955944)
(0.073702637 -0.0021928747 0.0016512856)
(0.069705622 -0.0020632333 0.0017637186)
(0.065672916 -0.001978723 0.0020068701)
(0.061388297 -0.0020854042 0.0024993391)
(0.056452807 -0.0028247223 0.0034443244)
(0.0504679 -0.0042316826 0.0052593533)
(0.042701848 -0.0044322483 0.0085768887)
(0.038451192 0.0025906005 0.013160317)
(0.044095348 0.018355447 0.018302113)
(0.057776289 0.035999939 0.023543397)
(0.074065752 0.050768398 0.028914585)
(0.089693829 0.061984007 0.034378893)
(0.10325934 0.070345803 0.039453116)
(0.11459104 0.07626023 0.043330906)
(0.1241711 0.079848969 0.045793901)
(0.13246231 0.081092205 0.047075)
(0.13955465 0.080223624 0.047416863)
(0.14518418 0.077636941 0.047148066)
(0.14904974 0.073813722 0.046590535)
(0.15096912 0.069269585 0.04612089)
(0.15105681 0.064595842 0.046125199)
(0.15003877 0.061027541 0.046913431)
(0.15165753 0.061393828 0.048138641)
(0.16628156 0.071514817 0.048242078)
(0.10534059 -0.0023444287 0.0010073198)
(0.11894328 -0.0024652188 0.0014004553)
(0.13116381 -0.0023649213 0.0013961796)
(0.14106644 -0.0020310335 0.0011676672)
(0.14969421 -0.0015274743 0.00073718604)
(0.15759143 -0.0010233371 6.7085317e-05)
(0.16478221 -0.00065874474 -0.00089192674)
(0.17118527 -0.00049974312 -0.0022778294)
(0.17677757 -0.00060526573 -0.0043300924)
(0.18154654 -0.0010359253 -0.007314542)
(0.18543377 -0.0019030554 -0.011560636)
(0.1883451 -0.0033145789 -0.017368807)
(0.18979049 -0.0053345546 -0.024844087)
(0.18950469 -0.0084719563 -0.033607246)
(0.1888157 -0.012160406 -0.04278253)
(0.18904383 -0.015825281 -0.051192963)
(0.1904083 -0.018671273 -0.057937733)
(0.19216319 -0.0201729 -0.062901822)
(0.19336435 -0.020533179 -0.066451943)
(0.19358086 -0.02040641 -0.068932976)
(0.19303425 -0.02035506 -0.070516122)
(0.19232372 -0.020500618 -0.071301478)
(0.19199993 -0.020749396 -0.071337363)
(0.19235467 -0.020986553 -0.070623014)
(0.19343663 -0.021128653 -0.069121014)
(0.19517919 -0.021039962 -0.066735399)
(0.19743636 -0.020237502 -0.063223563)
(0.19984314 -0.017434202 -0.058084011)
(0.20162974 -0.0091157193 -0.050570753)
(0.19110673 0.01435211 -0.040012899)
(0.10000494 -0.0037044468 0.0010654092)
(0.10070467 -0.0045704345 0.0016122523)
(0.1024107 -0.0047837334 0.0018100857)
(0.10471425 -0.0046024011 0.0018574246)
(0.10744748 -0.0042139368 0.0017987504)
(0.11055427 -0.0038553636 0.0016154216)
(0.1139475 -0.0037131573 0.0012694409)
(0.11754596 -0.003892786 0.00069289726)
(0.12134735 -0.0045019672 -0.00022585297)
(0.12530136 -0.0056842193 -0.0016358131)
(0.12939124 -0.0076475215 -0.0037173091)
(0.1336716 -0.010573284 -0.0067007206)
(0.13825346 -0.014600032 -0.01080514)
(0.14314192 -0.020223941 -0.015816934)
(0.14852205 -0.026565061 -0.020942487)
(0.15452701 -0.032200291 -0.024935444)
(0.16067079 -0.035290058 -0.02710762)
(0.16595673 -0.034909793 -0.028166574)
(0.16943588 -0.031814403 -0.029115417)
(0.17091993 -0.027726618 -0.030452908)
(0.17106132 -0.024234592 -0.032106061)
(0.17077781 -0.021785545 -0.033817283)
(0.17060122 -0.020124411 -0.035210351)
(0.17067304 -0.018976889 -0.035798759)
(0.1710529 -0.01832474 -0.035062009)
(0.17214829 -0.018363255 -0.0325057)
(0.17498682 -0.01892555 -0.02766686)
(0.18176373 -0.019360869 -0.019637967)
(0.19776023 -0.017861512 -0.0066396436)
(0.25338279 -0.0087601395 0.0098050872)
(0.10013484 -0.0028593787 0.0010861697)
(0.10029753 -0.0041662841 0.0016592566)
(0.10018411 -0.0046090961 0.0019027628)
(0.09989703 -0.0047672591 0.0020233792)
(0.099644973 -0.0048333982 0.0020830965)
(0.099546022 -0.0048900379 0.0020851894)
(0.099615217 -0.0050176689 0.0020298886)
(0.099830534 -0.0053035392 0.0019288572)
(0.10018157 -0.0058586197 0.0018084639)
(0.10067431 -0.0068889921 0.0016585429)
(0.10138814 -0.0086672119 0.0013554709)
(0.10250424 -0.011528102 0.00066725432)
(0.10426397 -0.015921083 -0.00043391251)
(0.10677458 -0.022401712 -0.0015427556)
(0.11033453 -0.030140113 -0.0017417841)
(0.11509601 -0.037214403 0.0011060847)
(0.12110238 -0.040647578 0.00799125)
(0.1278994 -0.03868338 0.016367584)
(0.13388912 -0.033323678 0.023881151)
(0.13795596 -0.027471689 0.029161164)
(0.14010583 -0.023049905 0.032113989)
(0.14115078 -0.019236707 0.034819285)
(0.14297754 -0.016606783 0.037402219)
(0.14576414 -0.015094982 0.040333354)
(0.14835129 -0.014964981 0.043160242)
(0.15024689 -0.016493389 0.045365192)
(0.15144221 -0.018956826 0.047393689)
(0.15272283 -0.022041731 0.049562669)
(0.15698394 -0.026111917 0.053308129)
(0.1797824 -0.031462979 0.060546736)
(0.098123277 -0.0015770476 0.0010615357)
(0.096852541 -0.002330353 0.001615843)
(0.09457688 -0.0025784397 0.001845725)
(0.091718744 -0.002651102 0.0019496689)
(0.088845112 -0.0026496849 0.0019893639)
(0.086146459 -0.0026046453 0.0019724192)
(0.083622813 -0.0025549423 0.0019068918)
(0.081243672 -0.0025502426 0.0018152077)
(0.078972624 -0.0026571693 0.0017400299)
(0.076740085 -0.0029919739 0.0017589584)
(0.07445873 -0.0037673724 0.0020024927)
(0.071972843 -0.0053390811 0.002692835)
(0.06890989 -0.0081108981 0.0040800466)
(0.064992322 -0.01190364 0.0067077226)
(0.06079592 -0.015001134 0.012666904)
(0.058312569 -0.014152558 0.025188044)
(0.060297698 -0.0071085628 0.045030949)
(0.065767273 0.0035709861 0.065898822)
(0.071798989 0.014844779 0.083345921)
(0.077507917 0.024566699 0.09615398)
(0.083883971 0.031879903 0.10462593)
(0.091517645 0.035395591 0.10845802)
(0.098593066 0.03589575 0.10980113)
(0.10454262 0.033918411 0.10947761)
(0.10906146 0.030268982 0.10787547)
(0.11193763 0.025873445 0.10509702)
(0.11393109 0.020372469 0.10023288)
(0.11516424 0.014649914 0.093939161)
(0.11748543 0.0091368273 0.086950661)
(0.14041333 0.0048441281 0.078356268)
(0.10521842 -0.0023647134 0.00033738205)
(0.11862298 -0.0024840971 0.0005501138)
(0.13074874 -0.0023591633 0.00062622259)
(0.14066806 -0.0019794546 0.00060718983)
(0.14936529 -0.0014205712 0.00052042162)
(0.15729732 -0.00086202627 0.0003702973)
(0.16448608 -0.00040958477 0.00012767766)
(0.17091613 -9.3078676e-05 -0.00022298207)
(0.17660034 6.588842e-05 -0.00069254978)
(0.18151943 3.4351603e-05 -0.0013030879)
(0.18560343 -0.00023826561 -0.0020820134)
(0.18870863 -0.00082915211 -0.0030435655)
(0.19016172 -0.0018596439 -0.0041584636)
(0.1894089 -0.0041199581 -0.0053859036)
(0.18770803 -0.0074002065 -0.0065068018)
(0.18646442 -0.011446411 -0.0073088687)
(0.18596373 -0.015605529 -0.0080334438)
(0.18544258 -0.019575096 -0.0093301586)
(0.18432255 -0.023212395 -0.011515083)
(0.18265463 -0.026483603 -0.014379487)
(0.180775 -0.029490348 -0.017464708)
(0.17909876 -0.032302813 -0.020349448)
(0.17796199 -0.034813908 -0.022695791)
(0.17743934 -0.036813542 -0.024236637)
(0.17736325 -0.038165164 -0.024779085)
(0.17753829 -0.038982403 -0.024189156)
(0.17810887 -0.039559508 -0.022428265)
(0.18003072 -0.039593889 -0.020200009)
(0.1851346 -0.035739707 -0.0203989)
(0.19283002 -0.018035232 -0.025137776)
(0.09988776 -0.0037168634 0.00034097608)
(0.10036178 -0.0045710776 0.00058258824)
(0.10194122 -0.0047442052 0.0006889271)
(0.10423494 -0.0044967084 0.00069483753)
(0.10699625 -0.0040268572 0.00061598201)
(0.11010892 -0.0035768177 0.0004387268)
(0.11346063 -0.0032827747 0.00013129555)
(0.11695485 -0.0031959025 -0.00034335894)
(0.1205295 -0.0033758362 -0.0010297366)
(0.12414715 -0.0039128135 -0.0020185201)
(0.12778665 -0.0049392004 -0.0034035111)
(0.13145831 -0.0066815029 -0.0052869762)
(0.13525374 -0.0095093095 -0.0077267749)
(0.13913664 -0.014508276 -0.010616982)
(0.14311025 -0.021380121 -0.013607613)
(0.14705946 -0.028520667 -0.016583854)
(0.15023838 -0.033681004 -0.020060866)
(0.15166648 -0.036889796 -0.024478333)
(0.15139093 -0.038585619 -0.02954644)
(0.14986196 -0.039321838 -0.03477103)
(0.14755714 -0.039816538 -0.039649959)
(0.14494395 -0.040598311 -0.043756434)
(0.14239273 -0.041658621 -0.046630386)
(0.13989527 -0.042664665 -0.047809594)
(0.13723291 -0.043396288 -0.046872989)
(0.13406375 -0.044291885 -0.043567002)
(0.1309367 -0.046403654 -0.03764526)
(0.13184402 -0.049810906 -0.030384958)
(0.14499945 -0.050012271 -0.030502081)
(0.19543032 -0.034446679 -0.047819829)
(0.1000217 -0.0028545579 0.0003464416)
(0.099969885 -0.0041554699 0.00059522211)
(0.099738653 -0.0045785596 0.00071734292)
(0.099453963 -0.0047051516 0.00074462937)
(0.099258058 -0.0047274055 0.00069058014)
(0.099223057 -0.004719894 0.00054153757)
(0.099343999 -0.0047439494 0.00026740687)
(0.099580384 -0.0048622459 -0.00017065865)
(0.099901004 -0.0051599026 -0.0008283014)
(0.10029859 -0.0057648083 -0.0017875944)
(0.10073071 -0.0068837305 -0.0031533728)
(0.10112837 -0.008895129 -0.0051054403)
(0.10147034 -0.012450698 -0.007837133)
(0.10179996 -0.018616625 -0.011418868)
(0.10203671 -0.027421109 -0.015466084)
(0.10176235 -0.035580324 -0.019618779)
(0.10055701 -0.038934926 -0.023301766)
(0.098228201 -0.039195418 -0.025486348)
(0.095624726 -0.037833613 -0.026874383)
(0.092389566 -0.03629285 -0.029760481)
(0.088291718 -0.035811655 -0.033704446)
(0.08354317 -0.036742109 -0.03699956)
(0.078921559 -0.038660522 -0.038213654)
(0.074845357 -0.040905105 -0.036279519)
(0.072019 -0.042929242 -0.029829964)
(0.06971217 -0.045237072 -0.019674632)
(0.06788566 -0.049173854 -0.0062418392)
(0.070222716 -0.055668779 0.0068850244)
(0.079148569 -0.06315319 0.0026722345)
(0.11236363 -0.057653784 -0.037813371)
(0.098012376 -0.0015723116 0.00033749919)
(0.096530804 -0.0023205378 0.00057536037)
(0.094139775 -0.0025602933 0.0006883594)
(0.091284169 -0.0026225115 0.00070776761)
(0.088466977 -0.0026077534 0.00064733501)
(0.085833656 -0.0025436436 0.00049399284)
(0.083366096 -0.0024639178 0.00021946377)
(0.081018157 -0.0024084056 -0.00021471049)
(0.078749694 -0.0024262385 -0.00086088633)
(0.076522517 -0.0025934764 -0.0017932897)
(0.074206727 -0.0030521698 -0.0031153914)
(0.071550883 -0.0040908191 -0.0050543837)
(0.068138818 -0.0063261077 -0.0080434812)
(0.063262284 -0.011103362 -0.012929824)
(0.055631944 -0.019068126 -0.020481368)
(0.04496339 -0.025189623 -0.028684024)
(0.034578348 -0.022286117 -0.027690566)
(0.035230139 -0.017041316 -0.0038721056)
(0.040670042 -0.0075670567 0.031892835)
(0.043616871 0.0034802264 0.059008091)
(0.047989476 0.012352527 0.075657299)
(0.053867489 0.017444861 0.084292892)
(0.059651778 0.019085207 0.088121645)
(0.064044445 0.017723705 0.088909117)
(0.065882947 0.013754388 0.087267767)
(0.064294503 0.007543481 0.083081729)
(0.059876558 -0.00087265996 0.076426786)
(0.054956346 -0.011454206 0.066901449)
(0.046589878 -0.02410657 0.040087897)
(0.06096643 -0.012740345 -0.034422334)
(0.10518633 -0.0023651649 0.0001707955)
(0.11850711 -0.0024800667 0.00029663929)
(0.13054231 -0.0023418692 0.00035639067)
(0.14039079 -0.0019340724 0.00035309875)
(0.14904331 -0.0013224072 0.00029355259)
(0.15696938 -0.00067335733 0.00017976851)
(0.16421901 -8.1633629e-05 1.4356063e-05)
(0.17079899 0.00043542554 -0.00019926391)
(0.17676392 0.00088911479 -0.00046485248)
(0.18218522 0.0012909939 -0.00077724344)
(0.18714075 0.0016432425 -0.0011061783)
(0.19171919 0.0019237279 -0.0013634052)
(0.19551308 0.0020448454 -0.0013388062)
(0.19831158 0.0012402996 -0.00072916126)
(0.20163053 0.00035781346 0.0010784075)
(0.2063673 0.00035203122 0.0044804288)
(0.21134032 0.0011609307 0.0088311859)
(0.21513943 0.0017792834 0.013288262)
(0.21757832 0.0016671833 0.017488309)
(0.21913928 0.00085812384 0.021382615)
(0.22027309 -0.00056222557 0.025074051)
(0.22120506 -0.0024982801 0.028726763)
(0.22194758 -0.0047683196 0.032510871)
(0.22229893 -0.0071785247 0.036491698)
(0.22202819 -0.0095773821 0.040458079)
(0.22114636 -0.011400869 0.043939591)
(0.21966845 -0.01120019 0.046113681)
(0.21668991 -0.0069497086 0.045713087)
(0.20696332 0.0041400022 0.038889526)
(0.1386367 0.034500597 0.019381981)
(0.099858446 -0.003717113 0.0001801983)
(0.1002348 -0.0045653671 0.00032735899)
(0.10168667 -0.0047189076 0.00040586455)
(0.10385868 -0.0044298274 0.000411347)
(0.10650415 -0.0038834679 0.00034661911)
(0.10949286 -0.0033040212 0.00020677232)
(0.11270487 -0.0028093771 -2.0153604e-05)
(0.11604809 -0.0024265096 -0.00035728242)
(0.11947012 -0.0021641646 -0.0008353007)
(0.12296151 -0.0020598127 -0.0014874282)
(0.12657349 -0.0022162243 -0.0023366179)
(0.13047742 -0.0028666003 -0.0033504138)
(0.13505891 -0.0044948832 -0.0043485184)
(0.14071285 -0.0082909749 -0.0048527439)
(0.14759216 -0.012359532 -0.0041219326)
(0.1549146 -0.013312431 -0.0025924078)
(0.16079537 -0.011271214 -0.0018138153)
(0.16380364 -0.009649241 -0.002786741)
(0.16450799 -0.00983738 -0.0055891254)
(0.16404498 -0.011397152 -0.0097148355)
(0.16293695 -0.013744547 -0.014431612)
(0.16141207 -0.016504733 -0.018765794)
(0.15947535 -0.019291526 -0.021706624)
(0.15683845 -0.021783237 -0.022552715)
(0.15333651 -0.02394219 -0.021196072)
(0.14939744 -0.0254192 -0.018075763)
(0.14732284 -0.023779743 -0.016666255)
(0.15135297 -0.013760242 -0.021815412)
(0.16565855 0.010424216 -0.033260502)
(0.16777402 0.052649887 -0.048588972)
(0.099993506 -0.002851532 0.00018207382)
(0.099847454 -0.0041494556 0.00033068706)
(0.099487851 -0.0045638055 0.00041378696)
(0.099072252 -0.0046725831 0.00042432349)
(0.098742106 -0.0046639842 0.0003611458)
(0.098551889 -0.0046051023 0.00021482114)
(0.098484417 -0.0045442228 -3.2722969e-05)
(0.098495198 -0.0045260011 -0.00041284375)
(0.098534489 -0.0046094037 -0.00096823524)
(0.09855745 -0.0049036703 -0.0017624699)
(0.098531544 -0.0056360644 -0.0028828309)
(0.098490064 -0.0072894463 -0.0043862952)
(0.09872238 -0.01084786 -0.006201844)
(0.099788993 -0.017831911 -0.0078151549)
(0.10127652 -0.02549629 -0.007954854)
(0.10210882 -0.027169433 -0.0064897225)
(0.1015429 -0.022440622 -0.0051284625)
(0.095224766 -0.018064262 -0.0068357373)
(0.086049243 -0.016692751 -0.011600536)
(0.078514351 -0.018019774 -0.017303916)
(0.072102144 -0.021204781 -0.022735138)
(0.065411883 -0.025264791 -0.026214496)
(0.057989047 -0.029475589 -0.026009619)
(0.050252099 -0.033190938 -0.021232786)
(0.042034074 -0.036837531 -0.011134956)
(0.03406673 -0.040233495 0.00091893881)
(0.030376652 -0.041110694 -0.00062751113)
(0.042051391 -0.029005456 -0.0207796)
(0.069399946 0.00034678642 -0.04610385)
(0.084802005 0.050056646 -0.072295661)
(0.097984688 -0.0015739558 0.00017738541)
(0.096411308 -0.0023242685 0.00031960603)
(0.093894663 -0.0025637872 0.0003961649)
(0.090909169 -0.002622188 0.00039978632)
(0.087956317 -0.0025986918 0.00032866032)
(0.0851624 -0.0025185005 0.00017244533)
(0.082488872 -0.0024104218 -9.0460125e-05)
(0.079874943 -0.0023117588 -0.00049838499)
(0.077241688 -0.0022668173 -0.001108878)
(0.074459905 -0.0023507662 -0.0020219468)
(0.071294879 -0.0027291864 -0.0034190634)
(0.067309253 -0.003811548 -0.0055994406)
(0.061618842 -0.0067006456 -0.0091816431)
(0.052843635 -0.013991165 -0.015436143)
(0.036425606 -0.022023995 -0.024968252)
(0.013252896 -0.018341463 -0.031740386)
(-0.012379162 -0.0016856048 -0.030198401)
(-0.022914165 0.00047093402 -0.021616447)
(-0.018645945 -0.0033753929 -0.0016842619)
(-0.0089772532 -0.0022035754 0.024289201)
(-0.00091598168 0.00095879239 0.040693723)
(0.0079039747 0.0026553207 0.048698966)
(0.013711718 0.0019912108 0.051978172)
(0.016289073 -0.00057518352 0.053080788)
(0.014642804 -0.0053737028 0.052676689)
(0.0070723843 -0.013241588 0.047265161)
(-0.0086206315 -0.021847329 0.024740943)
(-0.019547808 -0.014324318 -0.012612733)
(0.0015600246 0.024795414 -0.061722184)
(0.076584231 0.064912962 -0.084596707)
(0.10516587 -0.0023680725 2.1497774e-05)
(0.11843735 -0.0024861205 2.3999916e-05)
(0.130415 -0.0023498586 9.1175943e-07)
(0.14021028 -0.0019420647 -4.746568e-05)
(0.14881665 -0.0013279397 -0.0001195884)
(0.15670126 -0.00067514727 -0.00021586669)
(0.16390756 -7.7201789e-05 -0.0003395848)
(0.17043376 0.00044516814 -0.00049857287)
(0.17633181 0.00089777024 -0.00070420142)
(0.18167858 0.0012827904 -0.00096739867)
(0.1865721 0.0015826801 -0.0012875621)
(0.19115152 0.0017403536 -0.0016212509)
(0.19502291 0.0016265534 -0.0018091662)
(0.19817376 0.00047011849 -0.0015229246)
(0.20269801 0.00013819082 -0.00037905301)
(0.20875356 0.0010902188 0.0012439614)
(0.21464171 0.0023965685 0.0027188788)
(0.21942249 0.0036935203 0.0040219728)
(0.22336931 0.0050495618 0.0054527282)
(0.22734598 0.0064633626 0.0073382683)
(0.23207461 0.0077803217 0.0099716621)
(0.23791528 0.0090903286 0.013647935)
(0.24459705 0.010742949 0.018569161)
(0.25108186 0.013041426 0.024627153)
(0.2557977 0.015802832 0.031261511)
(0.2568953 0.019255597 0.037449265)
(0.25204581 0.024084592 0.041649344)
(0.23786332 0.031662063 0.041834247)
(0.2111732 0.044701926 0.035213979)
(0.10806212 0.073337586 0.019917201)
(0.099839919 -0.0037200773 3.0371121e-05)
(0.1001617 -0.0045715072 4.5689128e-05)
(0.1015394 -0.0047258609 3.4344448e-05)
(0.10363494 -0.0044340211 -7.1138661e-06)
(0.10620364 -0.0038806916 -7.9312329e-05)
(0.109113 -0.0032910957 -0.00018554955)
(0.11223206 -0.002781588 -0.00033185182)
(0.11545232 -0.0023842068 -0.00053183941)
(0.11871949 -0.00211737 -0.00080376925)
(0.12203479 -0.0020419128 -0.0011609457)
(0.12549321 -0.0023163345 -0.0016018417)
(0.12938865 -0.0032879408 -0.002053764)
(0.1343654 -0.0055912362 -0.0022523199)
(0.14102586 -0.010047172 -0.0015501581)
(0.14940081 -0.011080723 0.0003819524)
(0.15769255 -0.0076026861 0.0019873366)
(0.16377816 -0.0036693669 0.0022518868)
(0.16832642 -0.001040188 0.0016509077)
(0.17228702 6.5915359e-05 0.00075512574)
(0.17594374 0.00013258158 -0.00034545455)
(0.1793764 -0.00018814537 -0.0016333057)
(0.18324048 -0.00013637851 -0.0027040491)
(0.18847435 0.0013343774 -0.0027985822)
(0.19619309 0.0055845315 -0.0011844875)
(0.20786967 0.014170053 0.00197038)
(0.21784384 0.026362067 0.0055403559)
(0.22305596 0.041373199 0.0079826199)
(0.21915766 0.060200916 0.0070292969)
(0.2045789 0.085511207 1.360029e-05)
(0.13282173 0.12384057 -0.015083674)
(0.099974874 -0.0028518196 3.059569e-05)
(0.099774418 -0.0041510939 4.6031397e-05)
(0.099338045 -0.0045655468 3.5238343e-05)
(0.098837589 -0.0046722866 -6.5844238e-06)
(0.098415258 -0.0046593122 -8.2491434e-05)
(0.09812223 -0.0045927779 -0.00019913559)
(0.097924321 -0.0045229245 -0.00036743452)
(0.097749966 -0.0044969326 -0.00061106178)
(0.097529414 -0.0045843659 -0.00096476821)
(0.097194981 -0.0049287571 -0.0014758968)
(0.096705117 -0.0058509717 -0.0022066574)
(0.096170796 -0.0080721994 -0.0031882455)
(0.096255032 -0.013090837 -0.004245187)
(0.097329146 -0.022498408 -0.0043788391)
(0.099050839 -0.024969524 -0.0018346452)
(0.10288816 -0.019032395 0.0010633938)
(0.10088985 -0.012917311 0.00016170453)
(0.096303891 -0.0078614092 -0.0029617252)
(0.089715956 -0.0046819588 -0.0072042279)
(0.081583582 -0.0050157992 -0.012619895)
(0.071952316 -0.0085953209 -0.018006552)
(0.060868988 -0.013482656 -0.02118342)
(0.050112318 -0.017538554 -0.020270868)
(0.043182911 -0.019100707 -0.014477477)
(0.043300347 -0.016428003 -0.0070201306)
(0.066547626 -0.0043759443 -0.003922477)
(0.10033736 0.017872891 -0.0062208998)
(0.12056808 0.046101715 -0.011983446)
(0.13071282 0.082841154 -0.023005931)
(0.092353574 0.13400332 -0.037651062)
(0.097966084 -0.0015739527 2.9626971e-05)
(0.096338485 -0.0023244131 4.3654089e-05)
(0.093744553 -0.0025635196 3.1088269e-05)
(0.090671541 -0.0026208063 -1.3364253e-05)
(0.087621646 -0.0025955446 -9.3832131e-05)
(0.084713094 -0.0025121364 -0.00021885017)
(0.081885077 -0.0024020307 -0.00040512622)
(0.079037737 -0.0023031641 -0.00068620269)
(0.076042154 -0.0022676345 -0.0011194278)
(0.072679951 -0.0023962613 -0.0018120376)
(0.068537983 -0.0029339747 -0.0029745772)
(0.062769375 -0.0045483082 -0.0050261698)
(0.053560018 -0.0092083238 -0.0088228736)
(0.038425152 -0.020583838 -0.015240927)
(0.0036928221 -0.018291577 -0.02283423)
(-0.032387619 0.0021951198 -0.01931989)
(-0.051241242 0.0060103922 -0.016274574)
(-0.065292463 0.0063792958 -0.0142267)
(-0.070170952 0.0037669697 -0.008874571)
(-0.064572021 -0.00083530419 0.00063608168)
(-0.054739616 -0.0046460251 0.010761587)
(-0.045369666 -0.0077356595 0.017593565)
(-0.038380668 -0.011208763 0.021857667)
(-0.033962705 -0.015684025 0.023893498)
(-0.031343508 -0.020736897 0.023322775)
(-0.029964683 -0.020766472 0.017814584)
(-0.028032434 -0.0050775051 0.0027875412)
(0.00061327474 0.034639243 -0.019717303)
(0.034027932 0.075511637 -0.041541252)
(0.095426626 0.12511479 -0.054527618)
(0.10516157 -0.0023675429 -8.8205022e-05)
(0.11842377 -0.0024865497 -0.0001714034)
(0.13039097 -0.0023513738 -0.00024118937)
(0.14017407 -0.0019448233 -0.00029789675)
(0.14876409 -0.001332196 -0.00034528499)
(0.15662423 -0.00068111803 -0.00038699195)
(0.16379381 -8.7775332e-05 -0.00042568742)
(0.1702651 0.00042481434 -0.00046145385)
(0.1760809 0.00085725837 -0.00049123523)
(0.18131395 0.0012049749 -0.00051269204)
(0.18608013 0.0014286158 -0.00053317046)
(0.19060806 0.0014337692 -0.00055546606)
(0.19479262 0.0011012921 -0.00058619704)
(0.19901856 0.00017184103 -0.00056905249)
(0.20480667 0.00062565617 -0.00057012955)
(0.21134373 0.0018282499 -0.00074824566)
(0.21709898 0.0031457157 -0.0010659648)
(0.22179522 0.0047173968 -0.0015608034)
(0.22610365 0.0066843575 -0.0023397792)
(0.23069174 0.0089343454 -0.0035048018)
(0.23607741 0.011271979 -0.0051790952)
(0.24240986 0.013691498 -0.0075198837)
(0.24912382 0.016420532 -0.010702592)
(0.25490572 0.019642515 -0.014862233)
(0.25822738 0.023175472 -0.019867044)
(0.25755239 0.027158624 -0.025010089)
(0.25078646 0.032276311 -0.028900585)
(0.23449129 0.039783379 -0.029725397)
(0.20540792 0.051928844 -0.02466063)
(0.097703057 0.078760125 -0.012021938)
(0.099839382 -0.003719528 -7.6443339e-05)
(0.10015856 -0.0045722343 -0.00014809089)
(0.10153058 -0.0047282685 -0.00020287381)
(0.10361669 -0.0044385632 -0.00024021799)
(0.10617046 -0.0038882084 -0.00026281267)
(0.1090535 -0.0033032472 -0.00027158149)
(0.11213134 -0.0028048679 -0.00026622426)
(0.11529187 -0.0024314275 -0.0002407253)
(0.11847731 -0.0022148655 -0.00018845088)
(0.12169021 -0.0022464085 -0.00010368883)
(0.12506187 -0.0027584112 2.6735226e-05)
(0.12904244 -0.0042350212 0.00021418481)
(0.13466404 -0.0073210342 0.00045647667)
(0.14240239 -0.01063886 0.00072760371)
(0.15190435 -0.0078447794 0.00084607576)
(0.159919 -0.0034449625 0.0010426734)
(0.16633775 -0.00013866694 0.0014446776)
(0.17231982 0.0019949045 0.0019684903)
(0.17815141 0.003351806 0.0025776879)
(0.18417852 0.0041933271 0.0032904959)
(0.19104979 0.0052928465 0.0041475794)
(0.19900606 0.0077827699 0.0049682861)
(0.20890299 0.013111768 0.0051909047)
(0.21912282 0.021515356 0.0042465113)
(0.22818772 0.03215288 0.0020931916)
(0.23458862 0.044323782 -0.00075532376)
(0.23538078 0.058570165 -0.0028415438)
(0.22586705 0.076140125 -0.0025405883)
(0.20470721 0.098873755 0.0021375874)
(0.11983965 0.13385912 0.013853872)
(0.099974352 -0.0028519341 -7.5829151e-05)
(0.099771597 -0.0041518108 -0.00014617209)
(0.099329955 -0.0045673325 -0.00019999653)
(0.098819716 -0.0046757181 -0.00023585062)
(0.098379869 -0.004665601 -0.0002553129)
(0.098052644 -0.0046051153 -0.00025814688)
(0.097795744 -0.0045477109 -0.00024292338)
(0.097526605 -0.0045495232 -0.0002017206)
(0.097151197 -0.0046982226 -0.00012602903)
(0.096559422 -0.0051936886 -4.2215853e-06)
(0.095679629 -0.0064965612 0.00018695553)
(0.094774805 -0.0096726488 0.00047764501)
(0.095320449 -0.016785814 0.0009202857)
(0.096088143 -0.025536239 0.0018185597)
(0.10262776 -0.019939052 0.0021844564)
(0.10408027 -0.013203108 0.0021768668)
(0.10229089 -0.0073824239 0.002241739)
(0.096497842 -0.002349585 0.0025800862)
(0.089620409 0.0005610556 0.0036801155)
(0.081985143 0.00026172901 0.0060847597)
(0.071365642 -0.0030500638 0.0095031571)
(0.060172638 -0.0069151457 0.013278086)
(0.051295181 -0.007899799 0.016020572)
(0.057565237 -0.0036235175 0.015213551)
(0.07699256 0.0055623803 0.010802874)
(0.1079012 0.02173759 0.0064474296)
(0.13098385 0.042073275 0.004959397)
(0.1419977 0.066981196 0.0082908983)
(0.14207004 0.099674867 0.016063176)
(0.084174304 0.1484139 0.028333369)
(0.097965491 -0.0015740862 -7.3708659e-05)
(0.096335301 -0.0023247965 -0.00014111802)
(0.093735512 -0.0025643807 -0.00019185156)
(0.090651387 -0.0026224264 -0.00022434835)
(0.087580219 -0.002598485 -0.00023998894)
(0.084629434 -0.0025181216 -0.00023863025)
(0.081724287 -0.0024138814 -0.0002176842)
(0.078741756 -0.0023289775 -0.00016859799)
(0.075490605 -0.002326321 -8.3183777e-05)
(0.071606051 -0.0025468188 5.6207961e-05)
(0.066353643 -0.0033559049 0.00028494023)
(0.058187117 -0.0058440316 0.0006720829)
(0.044878554 -0.013194339 0.0014513901)
(0.018315046 -0.024412751 0.0045657451)
(-0.033396565 0.0017656849 0.010688672)
(-0.051320735 0.0076066791 0.0092114887)
(-0.069230502 0.0087621747 0.0066217742)
(-0.078530476 0.006709822 0.002810927)
(-0.083197866 0.0024175144 -0.0012903493)
(-0.080487055 -0.0027359923 -0.0050365426)
(-0.071897849 -0.0077504022 -0.0064656977)
(-0.06285712 -0.012343325 -0.0063243221)
(-0.054802783 -0.016922182 -0.0063457783)
(-0.047164002 -0.020966837 -0.007309327)
(-0.038116582 -0.021752692 -0.0091466112)
(-0.028552669 -0.014423901 -0.0090747218)
(-0.0044545197 0.015682456 -0.0038303986)
(0.015235626 0.050009303 0.0064536056)
(0.041537393 0.086843098 0.024944968)
(0.094289678 0.13685475 0.038549007)
(0.10517303 -0.0023639061 -0.00022961767)
(0.11846532 -0.0024820932 -0.00042692511)
(0.13046898 -0.0023477933 -0.00056859913)
(0.14028257 -0.00194451 -0.00065711436)
(0.14889381 -0.0013382316 -0.00070048551)
(0.15676963 -0.00069591002 -0.00070194969)
(0.16395649 -0.00011155557 -0.00066118671)
(0.1704596 0.00039658056 -0.00059040376)
(0.17633118 0.00083165583 -0.00049063221)
(0.18162659 0.0011894045 -0.00036662936)