/*--------------------------------*- C++ -*----------------------------------*\
| =========                 |                                                 |
| \\      /  F ield         | OpenFOAM: The Open Source CFD Toolbox           |
|  \\    /   O peration     | Version:  v2012                                 |
|   \\  /    A nd           | Website:  www.openfoam.com                      |
|    \\/     M anipulation  |                                                 |
\*---------------------------------------------------------------------------*/
FoamFile
{
    version     2.0;
    format      ascii;
    class       volScalarField;
    location    "170/rightSolid";
    object      T;
}
// * * * * * * * * * * * * * * * * * * * * * * * * * * * * * * * * * * * * * //

dimensions      [0 0 0 1 0 0 0];


internalField   nonuniform List<scalar> 
130
(
661.45657
666.92267
672.55543
678.07382
683.26546
687.96463
692.10661
695.66563
698.65545
701.05272
702.83435
704.01498
704.60482
657.17036
663.6541
670.18208
676.42308
682.15159
687.23352
691.63505
695.37289
698.47069
700.92575
702.7447
703.94629
704.54641
648.44849
657.25602
665.68951
673.36773
680.11225
685.89715
690.77564
694.84695
698.13614
700.70254
702.58517
703.82381
704.43909
635.23706
648.40912
659.95629
669.70693
677.79509
684.45177
689.89514
694.30451
697.79148
700.47039
702.42875
703.70695
704.33291
619.68071
640.07427
655.18223
666.8669
676.10701
683.4327
689.27586
693.93071
697.56198
700.31759
702.31404
703.6164
704.25498
619.77202
640.15835
655.22502
666.82406
675.99872
683.33554
689.17998
693.8377
697.48115
700.25232
702.26546
703.5909
704.25258
635.49208
648.62962
660.03217
669.63801
677.65755
684.30209
689.73321
694.14929
697.65857
700.37037
702.35492
703.66695
704.32315
648.72294
657.46745
665.79415
673.34973
680.024
685.80536
690.69463
694.74723
698.04326
700.63684
702.54402
703.80392
704.43597
657.44577
663.8663
670.30079
676.43458
682.07521
687.1375
691.5659
695.33002
698.44124
700.90899
702.74172
703.95412
704.55853
661.71836
667.12303
672.68136
678.1108
683.22038
687.89518
692.07099
695.66479
698.66064
701.05309
702.83851
704.02063
704.60806
)
;

boundaryField
{
    maxX
    {
        type            zeroGradient;
    }
    minZ
    {
        type            zeroGradient;
    }
    maxZ
    {
        type            zeroGradient;
    }
    rightSolid_to_bottomWater
    {
        type            compressible::turbulentTemperatureCoupledBaffleMixed;
        refValue        nonuniform List<scalar> 
130
(
977.39806
978.37931
979.30178
980.86894
984.66563
985.27314
986.22589
985.91243
990.79555
995.38552
996.08001
996.6593
997.25469
978.21139
979.90067
981.96549
986.27337
990.79459
991.67979
990.78815
990.53389
994.28482
996.64857
997.65756
997.97295
998.705
976.70706
979.21222
980.46478
986.1167
989.095
989.63295
987.09356
993.4733
995.10018
997.17637
997.16535
997.85366
998.27812
954.31227
956.32175
975.1546
986.32331
988.71397
990.49419
992.01474
994.99618
994.9904
994.32786
996.73098
997.74696
996.47936
950.12737
956.82319
958.3973
969.9642
989.03762
990.82239
992.35932
997.0243
997.17283
995.36301
995.04975
995.48937
994.08262
955.69624
964.39323
967.83835
968.75089
973.51792
985.57283
986.85141
991.41896
992.66587
991.52668
991.67452
994.38478
996.80545
968.97651
978.95445
980.25012
979.20082
980.87679
986.21618
984.04939
988.23057
989.31182
991.87244
993.86324
997.22937
999.41601
978.73748
988.36336
987.75169
985.87322
986.84096
992.7001
994.22682
992.32449
993.47629
997.96205
998.31973
999.037
1000.5897
980.98757
987.57976
987.22773
987.38667
986.07773
988.76325
992.70072
994.98725
997.74232
999.80497
1000.8301
1001.2144
1001.2809
981.24079
983.72322
984.69189
984.18629
983.59473
983.9648
990.80438
993.03736
995.00799
997.01861
998.20836
998.3163
997.72446
)
;
        refGradient     uniform 0;
        valueFraction   nonuniform List<scalar> 
130
(
0.0075140686
0.0075140686
0.0075140686
0.0075140686
0.0075140686
0.0075140686
0.0075140686
0.0075140686
0.0075140686
0.0075140686
0.0075140686
0.0075140686
0.0075140686
0.0075140686
0.0075140686
0.0075140686
0.0075140686
0.0075140686
0.0075140686
0.0075140686
0.0075140686
0.0075140686
0.0075140686
0.0075140686
0.0075140686
0.0075140686
0.0075140686
0.0075140686
0.0075140686
0.0075140686
0.0075140686
0.0075140686
0.0075140686
0.0075140686
0.0075140686
0.0075140686
0.0075140686
0.0075140686
0.0075140686
0.0075140686
0.0075140686
0.0075140686
0.0075140686
0.0075140686
0.0075140686
0.0075140686
0.0075140686
0.0075140686
0.0075140686
0.0075140686
0.0075140686
0.0075140686
0.0075140686
0.0075140686
0.0075140686
0.0075140686
0.0075140686
0.0075140686
0.0075140686
0.0075140686
0.0075140686
0.0075140686
0.0075140686
0.0075140686
0.0075140686
0.0075140686
0.0075140686
0.0075140686
0.0075140686
0.0075140686
0.0075140686
0.0075140686
0.0075140686
0.0075140686
0.0075140686
0.0075140686
0.0075140686
0.0075140686
0.0075140686
0.0075140686
0.0075140686
0.0075140686
0.0075140686
0.0075140686
0.0075140686
0.0075140686
0.0075140686
0.0075140686
0.0075140686
0.0075140686
0.0075140686
0.0075140686
0.0075140686
0.0075140686
0.0075140686
0.0075140686
0.0075140686
0.0075140686
0.0075140686
0.0075140686
0.0075140686
0.0075140686
0.0075140686
0.0075140686
0.0075140686
0.0075140686
0.0075140686
0.0075140686
0.0075140686
0.0075140686
0.0075140686
0.0075140686
0.0075140686
0.0075140686
0.0075140686
0.0075140686
0.0075140686
0.0075140686
0.0075140686
0.0075140686
0.0075140686
0.0075140686
0.0075140686
0.0075140686
0.0075140686
0.0075140686
0.0075140686
0.0075140686
0.0075140686
0.0075140686
)
;
        value           nonuniform List<scalar> 
130
(
663.81607
669.24798
674.84483
680.33302
685.51373
690.18168
694.29927
697.82878
700.83248
703.24602
705.01932
706.19533
706.78515
659.56839
666.0156
672.50951
678.73543
684.45436
689.50426
693.86556
697.57301
700.6754
703.12955
704.94223
706.13703
706.73808
650.90122
659.66084
668.03977
675.70215
682.41777
688.16268
692.98497
697.07324
700.34959
702.91203
704.78022
706.01459
706.62836
637.62157
650.70891
662.31005
672.07068
680.11538
686.73483
692.14823
696.54644
700.00675
702.66027
704.62173
705.8978
706.50944
622.15144
642.44085
657.44619
669.12935
678.44263
685.72605
691.53628
696.19076
699.79543
702.51641
704.49525
705.79095
706.41407
622.28367
642.58093
657.55935
669.07744
678.21855
685.59018
691.39972
696.05627
699.6813
702.42277
704.42165
705.7573
706.43211
637.98441
651.09734
662.42324
671.94847
679.91988
686.55407
691.92763
696.34156
699.83222
702.54255
704.52688
705.85415
706.52176
651.18855
659.93901
668.19796
675.68214
682.31302
688.09447
692.95804
696.9655
700.24508
702.85263
704.74797
706.00365
706.64255
659.86225
666.28357
672.66656
678.75498
684.34288
689.38679
693.81106
697.56371
700.67197
703.13646
704.96298
706.16906
706.76937
664.10433
669.48662
675.01001
680.39441
685.46068
690.10266
694.29804
697.88126
700.86914
703.25851
705.03931
706.21327
706.7918
)
;
        Tnbr            T;
        thicknessLayers List<scalar> 0();
        kappaLayers     List<scalar> 0();
        kappaMethod     solidThermo;
        kappa           none;
        alphaAni        none;
        alpha           none;
        field           T;
    }
    rightSolid_to_topAir
    {
        type            compressible::turbulentTemperatureCoupledBaffleMixed;
        refValue        nonuniform List<scalar> 
130
(
450.66104
447.89806
445.01489
442.34559
440.07901
438.29682
437.03092
436.3099
436.19447
436.8186
438.47652
441.76168
447.22534
416.48755
413.09082
410.45185
408.51259
407.12661
406.16925
405.59044
405.42621
405.80075
406.97833
409.56311
414.76886
422.08913
422.6302
415.41067
408.91263
403.64363
399.61741
396.6719
394.67635
393.58284
393.40127
394.22792
396.53528
402.00923
413.86484
453.75818
451.66651
449.23923
446.80939
444.41318
442.03291
439.79077
437.95263
436.79712
436.78182
439.32097
446.7866
455.16008
454.00341
456.74981
460.85794
465.08643
469.06611
472.68091
475.81601
478.39114
480.42564
482.15709
484.25413
488.08741
495.31985
454.72877
457.18918
461.06077
465.34697
469.40554
473.11896
476.35726
479.01674
481.10123
482.87152
485.09561
489.21393
496.95012
454.26596
452.17516
449.84642
447.62173
445.49472
443.39496
441.3494
439.51746
438.1349
437.81189
440.64168
448.54865
457.33142
422.93481
415.65427
409.09811
403.80997
399.80098
396.86415
394.80022
393.50337
392.96662
393.30156
395.03839
399.99419
411.91817
416.57566
413.08613
410.36633
408.38961
407.01754
406.11075
405.5792
405.40744
405.67768
406.62773
408.85864
413.64495
420.93261
450.82776
448.03246
445.10609
442.3988
440.11167
438.32971
437.07455
436.35262
436.20064
436.73629
438.25165
441.35689
446.6722
)
;
        refGradient     uniform 0;
        valueFraction   nonuniform List<scalar> 
130
(
0.00032132529
0.00032132529
0.00032132529
0.00032132529
0.00032132529
0.00032132529
0.00032132529
0.00032132529
0.00032132529
0.00032132529
0.00032132529
0.00032132529
0.00032132529
0.00032132529
0.00032132529
0.00032132529
0.00032132529
0.00032132529
0.00032132529
0.00032132529
0.00032132529
0.00032132529
0.00032132529
0.00032132529
0.00032132529
0.00032132529
0.00032132529
0.00032132529
0.00032132529
0.00032132529
0.00032132529
0.00032132529
0.00032132529
0.00032132529
0.00032132529
0.00032132529
0.00032132529
0.00032132529
0.00032132529
0.00032132529
0.00032132529
0.00032132529
0.00032132529
0.00032132529
0.00032132529
0.00032132529
0.00032132529
0.00032132529
0.00032132529
0.00032132529
0.00032132529
0.00032132529
0.00032132529
0.00032132529
0.00032132529
0.00032132529
0.00032132529
0.00032132529
0.00032132529
0.00032132529
0.00032132529
0.00032132529
0.00032132529
0.00032132529
0.00032132529
0.00032132529
0.00032132529
0.00032132529
0.00032132529
0.00032132529
0.00032132529
0.00032132529
0.00032132529
0.00032132529
0.00032132529
0.00032132529
0.00032132529
0.00032132529
0.00032132529
0.00032132529
0.00032132529
0.00032132529
0.00032132529
0.00032132529
0.00032132529
0.00032132529
0.00032132529
0.00032132529
0.00032132529
0.00032132529
0.00032132529
0.00032132529
0.00032132529
0.00032132529
0.00032132529
0.00032132529
0.00032132529
0.00032132529
0.00032132529
0.00032132529
0.00032132529
0.00032132529
0.00032132529
0.00032132529
0.00032132529
0.00032132529
0.00032132529
0.00032132529
0.00032132529
0.00032132529
0.00032132529
0.00032132529
0.00032132529
0.00032132529
0.00032132529
0.00032132529
0.00032132529
0.00032132529
0.00032132529
0.00032132529
0.00032132529
0.00032132529
0.00032132529
0.00032132529
0.00032132529
0.00032132529
0.00032132529
0.00032132529
0.00032132529
0.00032132529
)
;
        value           nonuniform List<scalar> 
130
(
661.37422
666.83719
672.46669
677.98193
683.17073
687.86734
692.00715
695.56437
698.55285
700.94935
702.73077
703.91197
704.50332
657.07862
663.55868
670.08318
676.32099
682.04671
687.12619
691.52566
695.26186
698.35846
700.81288
702.63189
703.83464
704.43686
648.362
657.16383
665.59191
673.26536
680.0058
685.78733
690.66315
694.7324
698.02013
700.5857
702.46825
703.70811
704.32693
635.16561
648.33191
659.87381
669.61987
677.70401
684.35719
689.79759
694.20453
697.68959
700.36734
702.32565
703.60567
704.23403
619.61512
640.00177
655.10526
666.78691
676.02461
683.34846
689.19017
693.84391
697.47424
700.22919
702.22542
703.52841
704.16901
619.70639
640.08572
655.14785
666.74389
675.91648
683.25148
689.09449
693.75107
697.3936
700.16413
702.17709
703.50324
704.1671
635.42026
648.55203
659.94945
669.55094
677.56676
684.20794
689.63618
694.04986
697.55719
700.26769
702.25224
703.56619
704.22491
648.63615
657.37483
665.69616
673.24709
679.91741
685.69548
690.58208
694.63256
697.92702
700.51962
702.42655
703.68749
704.3231
657.35363
663.77047
670.20152
676.33221
681.97008
687.02993
691.45629
695.21877
698.3288
700.79585
702.62855
703.842
704.44851
661.63555
667.03715
672.59231
678.01868
683.12541
687.79765
691.97127
695.56333
698.5579
700.94954
702.73473
703.91737
704.50629
)
;
        Tnbr            T;
        thicknessLayers List<scalar> 0();
        kappaLayers     List<scalar> 0();
        kappaMethod     solidThermo;
        kappa           none;
        alphaAni        none;
        alpha           none;
        field           T;
    }
    rightSolid_to_heater
    {
        type            compressible::turbulentTemperatureCoupledBaffleMixed;
        refValue        nonuniform List<scalar> 10(656.49845 651.19388 640.03221 621.48233 590.48508 590.56299 621.74005 640.39828 651.55457 656.83128);
        refGradient     uniform 0;
        valueFraction   nonuniform List<scalar> 10(0.50000003 0.50000003 0.50000003 0.50000003 0.50000003 0.50000003 0.50000003 0.50000003 0.50000003 0.50000003);
        value           nonuniform List<scalar> 10(658.9702 654.17492 644.23338 628.35312 605.07671 605.1612 628.60927 644.55349 654.4928 659.26729);
        Tnbr            T;
        thicknessLayers List<scalar> 0();
        kappaLayers     List<scalar> 0();
        kappaMethod     solidThermo;
        kappa           none;
        alphaAni        none;
        alpha           none;
        field           T;
    }
}


// ************************************************************************* //
