/*--------------------------------*- C++ -*----------------------------------*\
| =========                 |                                                 |
| \\      /  F ield         | OpenFOAM: The Open Source CFD Toolbox           |
|  \\    /   O peration     | Version:  v2012                                 |
|   \\  /    A nd           | Website:  www.openfoam.com                      |
|    \\/     M anipulation  |                                                 |
\*---------------------------------------------------------------------------*/
FoamFile
{
    version     2.0;
    format      ascii;
    class       volScalarField;
    location    "11";
    object      p;
}
// * * * * * * * * * * * * * * * * * * * * * * * * * * * * * * * * * * * * * //

dimensions      [0 2 -2 0 0 0 0];


internalField   nonuniform List<scalar> 
64000
(
2.00676e-21
-6.76746e-22
-1.7239e-21
-3.08413e-21
-5.17747e-21
-2.5535e-21
-1.32087e-21
9.14731e-22
-1.61526e-21
-2.20626e-21
-2.08786e-21
-2.31711e-21
-1.99488e-21
-4.38947e-21
-2.07032e-21
-3.68279e-21
-8.47184e-22
-1.98872e-22
1.19461e-21
2.36424e-21
-1.81534e-22
-3.74551e-21
-7.18834e-22
9.3703e-22
-4.52921e-21
-1.88667e-21
1.03516e-22
-9.58681e-22
-8.36638e-22
-2.50153e-21
-2.71697e-21
3.55163e-23
3.18538e-22
-1.23967e-21
-6.39406e-22
-1.4268e-21
-6.6977e-22
1.82826e-21
1.33994e-21
1.55048e-21
-1.16852e-21
-2.27901e-21
-7.77629e-21
-4.90666e-21
-6.31026e-21
-6.8005e-21
-2.76216e-21
2.31373e-22
-1.56357e-21
-5.03601e-21
-3.42272e-21
-5.82692e-21
-1.88083e-21
-1.39043e-21
-2.806e-21
-5.27201e-21
-2.52094e-21
1.15147e-21
1.71984e-22
5.77958e-22
2.51389e-21
2.25662e-22
-1.87039e-21
-6.8174e-21
-6.40531e-21
-2.09491e-22
1.90212e-22
-2.05971e-21
-7.01935e-22
1.50848e-21
2.19036e-21
-1.49693e-22
-1.91071e-21
-1.57673e-21
-1.47947e-21
-7.25327e-22
1.0077e-21
1.37717e-21
2.46037e-22
7.53531e-22
-3.37345e-21
-1.92182e-21
-1.00978e-20
-6.27765e-21
-4.63902e-21
-7.01432e-21
-3.01682e-21
-2.06138e-21
-1.00072e-21
-2.74634e-21
-4.94465e-21
-6.78515e-21
-1.39044e-21
-1.64411e-21
-1.10532e-21
-8.10928e-22
-5.65742e-21
-1.74932e-21
-9.07282e-22
-2.03095e-22
1.13577e-21
1.8804e-21
-1.66754e-21
-4.97724e-21
-1.21732e-21
-1.66796e-21
-1.7046e-21
-2.39031e-21
6.09843e-22
1.39241e-21
7.28759e-22
-5.54778e-22
-5.28862e-23
-7.37483e-22
-1.09653e-21
2.03855e-21
3.46807e-22
-2.91763e-22
-6.46351e-22
6.68643e-23
-5.12607e-21
-6.58863e-21
-6.62659e-21
-9.29467e-21
-7.66313e-21
-8.62923e-21
-3.95555e-21
-1.54131e-21
-4.11356e-21
-4.29087e-21
-3.08462e-21
-5.92624e-21
-4.47774e-21
-7.73492e-22
-1.61547e-21
-3.76808e-21
-3.67776e-21
-2.61755e-21
-1.13631e-21
7.58721e-22
1.83276e-21
2.75788e-21
-2.84248e-21
-5.52663e-21
-1.88049e-21
-2.14121e-21
-7.92707e-22
5.96899e-22
-4.86118e-22
-3.25029e-22
2.30234e-21
2.23618e-22
-2.98094e-21
1.03711e-21
7.58943e-22
-5.027e-23
1.49841e-23
-5.24454e-22
-1.06809e-21
-2.00542e-22
-1.28522e-20
-8.32166e-21
-7.65206e-21
-8.47048e-21
-8.55625e-21
-8.59045e-21
-4.89539e-21
-1.73483e-21
-4.0642e-21
-4.97463e-21
-4.52189e-21
-4.84603e-21
-2.12827e-21
9.42608e-23
-4.96753e-21
-7.59975e-21
-4.0823e-21
4.46465e-22
8.60932e-22
3.16836e-22
2.66979e-21
-8.40558e-22
-6.35871e-21
-5.86544e-21
-1.37512e-21
-4.57464e-22
9.36847e-23
-8.31238e-22
-2.17118e-21
1.42324e-21
3.56712e-21
-3.63764e-22
-2.21442e-21
9.97447e-22
-2.25806e-21
-3.36957e-22
-9.95047e-23
8.68039e-22
-9.12293e-22
6.73832e-22
-8.73253e-21
-7.93301e-21
-6.67978e-21
-8.97454e-21
-8.16769e-21
-7.07807e-21
-4.85092e-21
-6.28599e-21
-5.88049e-21
-5.22591e-21
-4.45596e-21
-4.53492e-21
-3.12084e-21
-1.5298e-21
-3.61287e-21
-5.6023e-21
-3.45491e-21
7.72607e-22
1.50116e-21
1.66255e-21
1.16643e-21
-1.77458e-21
-7.3895e-21
-5.39437e-21
-2.20633e-21
-5.455e-22
-1.56748e-21
-1.76043e-22
-2.44506e-22
-7.67197e-22
3.59584e-22
-5.15896e-22
-1.14217e-22
9.07005e-22
-1.44239e-21
1.57654e-22
-4.98202e-22
-2.06725e-21
-8.53985e-22
2.79383e-22
-9.52707e-21
-9.80865e-21
-6.7929e-21
-7.9366e-21
-8.44605e-21
-7.82225e-21
-5.27188e-21
-6.70235e-21
-7.33868e-21
-4.42511e-21
-4.99075e-21
-4.65062e-21
-2.55071e-21
-3.02088e-21
-3.71798e-21
-3.32424e-21
-1.29637e-21
1.26173e-21
3.3367e-21
2.69337e-21
-6.30676e-22
-3.89715e-21
-8.89913e-21
-5.88352e-21
-4.2235e-21
-1.1465e-21
-6.73081e-22
4.09159e-22
5.32672e-22
-8.13536e-22
-2.7947e-21
-7.63014e-22
6.5445e-22
3.31846e-22
5.76239e-23
-3.00251e-24
1.16022e-22
-2.25292e-21
-3.60084e-21
-6.65857e-22
-7.60004e-21
-8.65157e-21
-9.75985e-21
-6.80894e-21
-8.56642e-21
-6.17074e-21
-5.88225e-21
-9.29409e-21
-6.9821e-21
-5.17214e-21
-6.46304e-21
-5.45403e-21
-3.94813e-21
-4.13363e-21
-3.24589e-21
-3.43971e-21
-1.23463e-21
2.02458e-21
2.63819e-21
4.24447e-21
-1.09432e-21
-6.0929e-21
-8.34395e-21
-4.60527e-21
-4.04661e-21
-2.42605e-21
-4.57991e-22
1.85584e-21
1.1741e-21
-1.26423e-21
-4.47522e-21
-1.99777e-21
7.6041e-22
-4.94273e-22
6.05533e-22
7.00417e-22
-1.35634e-22
-3.79125e-21
-2.10112e-21
-6.63821e-23
-1.60143e-20
-1.11846e-20
-1.02e-20
-9.22195e-21
-5.43321e-21
-6.3948e-21
-7.31842e-21
-6.71102e-21
-5.88495e-21
-8.25778e-21
-6.58638e-21
-7.10771e-21
-1.02332e-21
-4.74995e-21
-3.45155e-21
-4.30159e-21
-3.06148e-21
3.48687e-21
1.16796e-21
1.98461e-21
-1.08628e-22
-7.71271e-21
-7.78299e-21
-5.9079e-21
-1.43545e-21
-3.70181e-21
1.62419e-22
1.64888e-21
9.89548e-22
-1.46219e-21
-4.52357e-22
-1.76636e-21
-4.58509e-21
1.12541e-22
3.69201e-22
1.2265e-21
2.32368e-22
-3.11561e-21
-5.87239e-22
6.27678e-22
-7.53891e-21
-9.14044e-21
-9.57738e-21
-8.53841e-21
-8.09822e-21
-7.4584e-21
-5.50951e-21
-7.41735e-21
-6.10029e-21
-5.33337e-21
-6.0987e-21
-4.75859e-21
-3.58076e-21
-2.70786e-21
-5.43545e-21
-3.82728e-21
-4.31469e-21
-6.7376e-23
1.20375e-21
3.09666e-21
1.62763e-21
-6.95829e-21
-8.26216e-21
-4.30536e-21
-3.01943e-21
-1.94599e-21
2.19293e-23
2.07668e-21
-3.44128e-21
-2.09791e-21
-9.21247e-22
-1.60455e-21
-1.14598e-21
-9.09884e-22
-8.00624e-22
-3.43516e-22
-1.68258e-22
-5.34198e-22
3.36191e-22
5.32847e-22
-5.94609e-21
-9.73031e-21
-8.44592e-21
-1.14145e-20
-8.72781e-21
-8.2163e-21
-8.48552e-21
-7.12835e-21
-5.71622e-21
-9.17862e-21
-6.06968e-21
-2.31494e-21
-2.15757e-21
-2.3755e-21
-4.42805e-21
-5.1099e-21
-2.70958e-21
-3.84543e-22
3.81752e-21
1.41134e-21
-3.93574e-21
-9.5784e-21
-5.2751e-21
-4.55997e-21
-4.79531e-21
-2.33575e-21
2.01457e-22
5.5352e-22
-1.90777e-21
-1.97033e-21
-6.58058e-22
-2.6352e-21
1.69769e-21
1.63803e-21
-1.81737e-21
-3.48046e-21
7.95231e-22
2.32328e-21
7.92636e-22
3.06531e-22
-7.14037e-21
-1.11397e-20
-1.04945e-20
-9.5224e-21
-8.69276e-21
-8.99299e-21
-9.4319e-21
-7.44717e-21
-5.45052e-21
-7.40343e-21
-8.3287e-21
-3.21354e-21
-4.07423e-21
-4.17619e-21
-2.86269e-21
-3.70462e-21
-4.02736e-21
-2.07683e-22
1.16156e-21
2.99981e-21
-4.65694e-21
-7.06218e-21
-5.79806e-21
-6.47798e-21
-4.50251e-21
-1.07969e-21
1.48493e-21
-3.7261e-22
-2.15586e-21
-2.69961e-22
-8.67321e-22
-2.74077e-21
1.16142e-21
2.77448e-21
-2.78296e-21
-1.12275e-21
2.63282e-21
1.74377e-21
1.10807e-21
-4.48213e-22
-1.18095e-20
-1.2162e-20
-1.12033e-20
-9.25781e-21
-9.69873e-21
-9.79146e-21
-1.13278e-20
-7.67263e-21
-6.14077e-21
-7.77932e-21
-8.19516e-21
-2.48277e-21
-3.04319e-21
-5.39349e-21
-2.89284e-21
-3.06664e-21
-1.5744e-21
-1.04479e-21
-6.01984e-22
-5.85412e-22
-2.29706e-21
-4.14944e-21
-4.24166e-21
-5.23983e-21
-4.02116e-21
2.99068e-22
1.19733e-21
-1.23128e-21
-1.51317e-21
-1.32195e-21
-2.83243e-21
-4.40803e-22
7.57227e-22
7.5425e-22
-9.20938e-22
-7.81948e-22
6.01708e-22
-4.50895e-22
-2.42069e-22
-6.49782e-22
-1.28727e-20
-1.35255e-20
-1.19979e-20
-9.83752e-21
-9.13984e-21
-1.04439e-20
-9.35056e-21
-5.44836e-21
-9.25574e-21
-1.27461e-20
-6.81563e-21
-9.15064e-22
-4.31772e-21
-8.24029e-21
-2.27068e-21
-2.66017e-21
-8.01838e-22
6.93874e-22
6.24324e-22
-8.35865e-22
-4.18506e-21
-5.95448e-21
-5.86971e-21
-7.84491e-21
-2.59215e-22
1.40598e-21
1.59672e-21
-1.34382e-21
-3.41768e-21
-5.36055e-22
-3.13676e-23
2.47614e-22
-7.82036e-22
-5.09528e-22
-2.8053e-21
-3.97976e-23
1.54035e-22
8.1154e-22
-2.77899e-21
-1.08097e-22
-9.36969e-21
-1.51947e-20
-1.49483e-20
-7.14522e-21
-6.11611e-21
-8.70284e-21
-1.07768e-20
-1.0331e-20
-8.77761e-21
-1.00689e-20
-7.27947e-21
-4.7947e-21
-3.2e-21
-3.36181e-21
-1.32414e-21
-2.71835e-21
-2.10055e-21
-1.46588e-21
-2.54935e-21
-8.63691e-22
-6.23932e-21
-2.77333e-21
-4.11177e-21
-6.75908e-21
1.7463e-21
-1.98304e-22
-6.47187e-22
-1.14113e-21
-1.86422e-21
-1.72165e-21
-2.08883e-21
9.29066e-22
1.42038e-21
-1.64047e-22
-7.77267e-22
-3.54382e-21
6.74775e-22
-1.7598e-22
-2.33583e-21
1.58927e-21
-1.07453e-20
-1.23458e-20
-1.36366e-20
-9.29337e-21
-9.9783e-21
-7.72009e-21
-9.15889e-21
-1.0643e-20
-8.30695e-21
-5.5282e-21
-8.48104e-21
-6.7871e-21
-3.24016e-21
-2.13847e-21
-2.91185e-21
-4.14622e-21
-2.05593e-21
-1.37562e-21
2.05112e-22
-8.34019e-22
-6.57747e-21
-6.29282e-21
-4.27883e-21
-1.79299e-21
5.98558e-22
-1.80907e-21
-1.86793e-21
-1.12639e-22
2.47957e-22
-1.54809e-21
-4.5758e-21
-6.24519e-24
6.59089e-22
9.39129e-22
1.13028e-21
-2.37805e-21
-2.0671e-21
-2.72213e-21
-3.01034e-21
6.47763e-22
-1.0041e-20
-1.07645e-20
-1.35614e-20
-9.08651e-21
-6.64571e-21
-8.75776e-21
-1.07345e-20
-1.12433e-20
-6.55662e-21
-6.67695e-21
-8.30139e-21
-6.58618e-21
-4.85856e-22
-3.06253e-21
-2.23317e-21
-2.59156e-21
-3.11087e-21
-8.4303e-22
-2.42908e-21
-3.29611e-21
-6.53598e-21
-4.71671e-21
-3.76918e-21
-4.77686e-22
-1.38471e-22
1.25113e-22
-8.74833e-22
1.47412e-21
7.59019e-22
-3.65947e-21
-5.88014e-21
-9.58022e-22
2.04532e-21
-2.86145e-23
-9.92238e-22
-1.85323e-22
-1.45161e-21
-4.13416e-21
-3.05622e-21
-1.5309e-21
-7.89896e-21
-1.10165e-20
-1.63021e-20
-8.59464e-21
-5.25249e-21
-7.61885e-21
-1.02385e-20
-1.08262e-20
-7.22417e-21
-6.44324e-21
-8.01365e-21
-5.69816e-21
-2.05498e-22
-3.8702e-21
-4.01258e-21
-2.78931e-21
-2.35367e-21
-1.06649e-21
4.31852e-22
-5.06797e-21
-7.51146e-21
-7.89489e-21
-1.12924e-21
5.2045e-22
1.47154e-21
-2.18378e-21
3.87406e-22
2.68234e-21
-1.93203e-21
-1.48785e-21
-2.31763e-21
-2.00171e-21
-1.46093e-21
-1.60014e-21
-1.60563e-21
-1.96885e-21
-1.0333e-21
-1.67914e-21
-1.44273e-21
-8.66197e-22
-6.58769e-21
-8.05569e-21
-1.11396e-20
-9.85792e-21
-9.79207e-21
-8.53769e-21
-7.80529e-21
-6.66612e-21
-6.72869e-21
-7.70483e-21
-7.23718e-21
-6.52234e-21
-1.87024e-21
-2.65402e-21
-4.78032e-21
-2.85263e-21
-2.96889e-21
-5.03685e-21
-5.75423e-21
-6.27708e-21
-3.2221e-21
-1.34468e-21
-1.57107e-21
-1.90196e-22
1.72206e-21
2.45401e-22
1.29551e-21
3.14504e-21
6.79519e-22
-1.95228e-21
-5.69816e-21
-2.22255e-21
-1.69609e-21
-2.36665e-21
-1.97806e-21
-4.77393e-22
1.0019e-22
-1.65545e-21
-3.56515e-21
-2.40519e-21
-4.89746e-21
-6.88864e-21
-1.26388e-20
-1.05165e-20
-8.68878e-21
-6.45665e-21
-6.84665e-21
-7.41167e-21
-7.46494e-21
-7.53053e-21
-6.84286e-21
-6.76293e-21
-4.59248e-21
-3.08329e-21
-4.53794e-21
-2.62147e-21
-7.50367e-22
-2.98167e-21
-8.46481e-21
-5.49062e-21
-2.30166e-21
-3.50098e-21
-2.37761e-21
1.28859e-21
2.10268e-21
1.82734e-21
-2.55327e-21
7.6036e-22
1.05244e-21
-2.72422e-21
-1.3899e-21
-1.68093e-21
-2.2008e-22
-1.95489e-21
-3.28337e-21
-1.05303e-21
-1.03709e-21
-1.10876e-21
-2.0464e-21
-3.2466e-21
-7.10253e-21
-8.82368e-21
-1.0759e-20
-7.41245e-21
-9.54581e-21
-6.59443e-21
-6.15755e-21
-4.67338e-21
-4.85822e-21
-1.00278e-20
-1.33787e-20
-7.41312e-21
-3.31101e-21
-2.16945e-21
-3.50594e-21
-1.96202e-21
-2.02661e-21
-1.4946e-21
-7.41439e-21
-3.98286e-21
-1.6223e-21
-3.73077e-21
-1.34139e-21
-6.65323e-22
-1.40618e-21
2.17695e-21
8.27243e-22
2.49168e-22
-7.36415e-22
-2.16586e-21
-1.54137e-21
-1.36394e-21
-1.4139e-21
2.70112e-23
-1.34555e-21
-2.52532e-21
-1.74537e-21
-6.43058e-22
-6.9039e-22
-2.65318e-21
-1.14765e-20
-1.04436e-20
-7.3418e-21
-5.77759e-21
-1.00241e-20
-7.14327e-21
-7.23153e-21
-6.36644e-21
-5.16675e-21
-1.01171e-20
-1.19917e-20
-6.59745e-21
-2.69322e-21
-7.9531e-21
-3.22736e-21
3.73001e-22
8.63321e-22
-3.62875e-21
-5.24064e-21
-2.52397e-21
-4.57094e-21
-3.1227e-21
-1.19332e-21
-6.42456e-22
-4.22437e-23
1.0396e-21
3.30567e-22
-2.23586e-21
-5.10377e-22
-8.94232e-22
-2.6091e-21
1.92242e-21
-8.72969e-22
-1.6338e-21
-2.34203e-21
-6.03367e-21
-9.83486e-23
1.43984e-21
8.82947e-22
2.32466e-22
-1.3114e-20
-9.63036e-21
-8.38099e-21
-6.31146e-21
-6.16867e-21
-1.08959e-20
-6.24199e-21
-3.45292e-21
-8.21454e-21
-1.24792e-20
-1.04456e-20
-7.1013e-21
-4.1467e-21
-3.2112e-21
-1.93859e-21
-1.34304e-21
1.82109e-22
3.8503e-22
-8.03514e-22
-4.54731e-21
-4.67583e-21
-7.53805e-22
-3.65584e-21
-5.60171e-21
-2.26294e-21
-5.53436e-22
8.60893e-22
6.76668e-23
-9.10899e-23
4.21025e-22
-4.74171e-21
-1.44052e-21
-5.29946e-22
-9.10086e-22
3.65798e-22
-2.64267e-21
-3.34069e-22
2.82036e-21
-3.43704e-22
-1.63691e-21
-8.97755e-21
-9.16711e-21
-1.04453e-20
-6.99006e-21
-5.59269e-21
-8.33721e-21
-8.18583e-21
-1.0722e-20
-5.86174e-21
-7.38445e-21
-8.9822e-21
-7.97469e-21
-6.68047e-22
-4.11332e-21
-4.91839e-21
-1.26473e-21
2.80924e-22
-7.22672e-22
-1.3968e-21
-1.38704e-21
-4.12151e-21
-2.25367e-21
-2.55029e-21
-3.65194e-21
-3.93785e-21
-1.44225e-21
1.28214e-21
1.9374e-21
5.28009e-22
-3.18487e-21
-3.10965e-21
-1.29326e-21
-1.99557e-21
-2.25005e-21
-1.10656e-21
-1.08859e-21
2.12276e-21
2.7038e-21
-2.56891e-22
-1.77085e-21
-4.09749e-21
-7.87696e-21
-9.78816e-21
-9.56701e-21
-6.85239e-21
-6.8534e-21
-7.43506e-21
-9.10022e-21
-4.52878e-21
-7.68623e-21
-1.10642e-20
-8.49821e-21
-3.8073e-21
-4.24007e-21
-4.51735e-21
-3.95058e-22
8.46906e-22
-7.16737e-22
7.06037e-22
2.19269e-21
-5.96284e-22
-3.7285e-21
-8.48219e-22
-5.83234e-21
-5.27799e-21
-3.52312e-21
-6.54646e-22
1.82916e-21
-1.72958e-21
-8.90173e-22
-1.68455e-21
-1.69057e-21
-3.10803e-21
-1.12431e-21
-2.04476e-21
-6.59008e-22
2.22298e-21
6.49664e-23
-6.32786e-22
1.79585e-22
-8.07008e-21
-8.74077e-21
-1.0523e-20
-9.20796e-21
-6.38059e-21
-4.93821e-21
-6.41393e-21
-8.53257e-21
-4.15263e-21
-4.65043e-21
-1.0925e-20
-8.96757e-21
-3.85001e-21
-6.9864e-21
-1.98798e-21
8.64758e-23
-1.57569e-22
-7.61819e-22
1.68462e-21
1.84017e-21
2.06598e-21
-2.59419e-21
-4.8821e-21
-6.56637e-21
-4.66051e-21
-4.14558e-21
9.58118e-22
-5.23613e-22
-4.37789e-21
1.87749e-21
4.15905e-22
-3.50852e-21
-5.15684e-21
-1.1652e-21
1.69162e-21
7.73553e-23
4.03778e-22
-2.24534e-21
2.89865e-22
9.62789e-22
-4.11392e-21
-6.24768e-21
-9.82068e-21
-1.21256e-20
-6.91579e-21
-8.49081e-21
-5.78152e-21
-3.63139e-21
-3.68573e-21
-6.93027e-21
-8.97306e-21
-6.5219e-21
-2.28885e-21
-5.90564e-21
-6.41899e-21
-1.67865e-21
-1.89627e-21
-9.40454e-22
6.17174e-21
5.56523e-21
-1.91837e-21
-6.36137e-21
-3.5171e-21
-3.33627e-21
-4.22429e-21
-4.34349e-21
1.15619e-21
-4.3091e-22
-3.1319e-21
-1.19904e-21
1.29685e-21
-1.37251e-21
-2.01606e-21
-1.22445e-21
-5.56989e-22
-3.09449e-22
-1.70384e-21
-3.22244e-21
-1.19082e-21
2.9727e-22
-5.20973e-21
-8.76577e-21
-9.65388e-21
-1.05832e-20
-5.47388e-21
-7.50391e-21
-4.10884e-21
-5.28543e-21
-4.94108e-21
-6.45944e-21
-7.67254e-21
-5.30657e-21
-1.9409e-21
-3.17336e-21
-6.15683e-21
-3.2252e-21
-1.75181e-21
-8.15745e-22
5.32891e-21
4.26867e-21
-3.18632e-21
-3.69001e-21
-2.74255e-21
-5.30262e-21
-2.67815e-21
-1.19729e-21
-8.12438e-22
-2.33133e-21
-2.40541e-21
-2.25174e-21
1.06963e-21
-3.87693e-22
-2.48675e-21
-7.5464e-22
1.57591e-23
-2.0791e-21
-2.80383e-21
-1.99961e-21
-8.30892e-22
4.88485e-23
-5.71242e-21
-1.0393e-20
-1.00519e-20
-7.7511e-21
-8.16888e-21
-8.33987e-21
-5.69975e-21
-3.32178e-21
-3.63616e-21
-5.85085e-21
-7.70983e-21
-2.15863e-21
-2.18841e-21
-2.22014e-21
-5.19727e-21
-3.76428e-21
1.45831e-24
2.17774e-21
3.30202e-22
2.00047e-21
-4.8697e-21
-4.97224e-21
-2.00221e-21
-2.3387e-21
-1.76157e-21
-1.415e-21
-1.48371e-21
-3.39232e-21
-2.42063e-21
-2.77144e-21
2.06257e-21
1.09444e-21
-2.50675e-21
6.39684e-23
-3.47237e-22
-3.20433e-21
-1.05992e-21
-1.28305e-21
-1.16341e-21
-1.05695e-21
-5.9942e-21
-8.6877e-21
-8.19492e-21
-9.77076e-21
-1.01316e-20
-7.96015e-21
-4.34611e-21
-3.38329e-21
-3.25332e-21
-4.93764e-21
-8.79429e-21
-1.37907e-21
1.19714e-22
-2.56976e-21
-4.79663e-21
-6.93971e-21
-2.9905e-21
6.99536e-22
4.81764e-21
3.7124e-21
-3.80612e-21
-4.12411e-21
-3.27831e-21
-3.04986e-21
-2.78496e-21
-2.52197e-21
-1.42957e-21
1.99824e-21
-1.11048e-21
-1.47514e-21
4.43674e-22
-1.67636e-21
-2.23135e-21
-3.72274e-22
-2.04112e-21
-4.7882e-21
6.54769e-23
-1.59986e-21
-7.94561e-22
5.82434e-22
-8.50517e-21
-8.34456e-21
-6.04795e-21
-8.46744e-21
-9.82604e-21
-8.05096e-21
-4.05542e-21
-2.96369e-21
-3.88792e-21
-3.97361e-21
-4.33921e-21
-1.97668e-21
-2.80724e-21
-3.89827e-23
1.79648e-22
-7.56103e-21
-5.28339e-21
1.01633e-21
2.66419e-21
2.28331e-21
1.57564e-21
-3.84638e-21
-4.36738e-21
-1.43992e-21
-2.47024e-21
-1.98755e-21
-3.18204e-21
1.27556e-22
-9.7317e-22
-1.01222e-21
-2.15049e-21
-7.44166e-22
3.36348e-22
-4.88389e-22
-3.0888e-21
-5.21538e-21
-3.4869e-21
-4.7433e-22
-2.16898e-22
-2.17811e-22
-1.27943e-20
-1.0649e-20
-6.82899e-21
-7.24539e-21
-6.4406e-21
-6.64264e-21
-4.36964e-21
-4.49278e-21
-4.20724e-21
-5.85557e-22
1.12024e-22
-4.55655e-21
-3.40052e-21
-1.26586e-22
-1.03044e-21
-4.09482e-21
-1.61002e-21
2.42763e-21
-5.04059e-22
-4.29227e-22
2.62445e-21
-1.23621e-21
-7.87451e-21
-3.70829e-21
-1.63899e-21
-2.262e-21
-2.24818e-21
3.63149e-22
1.57839e-21
1.04591e-21
-4.76567e-21
-8.38165e-22
1.7826e-21
-1.38418e-21
-5.13811e-21
-4.94782e-21
-2.80603e-21
-1.46893e-21
1.57016e-21
1.37991e-21
-8.34863e-21
-6.24798e-21
-5.76241e-21
-7.27602e-21
-7.94557e-21
-5.51144e-21
-2.8444e-21
-5.9669e-21
-3.6192e-21
-1.6033e-21
1.1061e-21
-7.36777e-23
-5.03883e-21
-1.01352e-21
1.85892e-21
-2.73738e-21
-1.2856e-21
-1.76413e-21
1.06449e-21
-7.89903e-22
1.25733e-21
-2.14091e-21
-5.10847e-21
-7.08259e-22
-5.3447e-21
-5.04941e-21
-4.32425e-22
4.65082e-22
1.93289e-23
-3.00882e-22
-1.13903e-21
-3.38817e-22
1.91937e-21
-1.15448e-21
-3.28356e-21
-2.0501e-21
-1.76777e-21
-5.75951e-21
-1.96425e-21
-1.61264e-22
-8.23193e-21
-6.04879e-21
-5.35314e-21
-8.84788e-21
-8.55787e-21
-4.06855e-21
-2.45498e-21
-2.51958e-21
-3.87969e-21
-2.47858e-21
6.82259e-22
-1.75058e-21
-6.9326e-21
-4.21155e-22
1.0454e-21
-3.77997e-22
-1.6719e-21
-1.14786e-21
-6.47136e-22
1.38019e-21
2.5978e-21
-4.82313e-21
-2.4425e-21
-2.76849e-21
-4.09183e-21
-1.85241e-21
-1.49543e-21
-1.4276e-21
-5.32027e-22
-1.63223e-22
-7.27813e-22
9.99017e-22
2.51604e-21
1.80717e-22
-8.90307e-22
-2.36278e-21
-2.12495e-21
9.52493e-22
-2.97402e-21
-3.38723e-21
-9.83077e-21
-5.29848e-21
-3.74387e-21
-5.61643e-21
-6.36414e-21
-7.3002e-21
-4.99241e-21
-3.06345e-21
-4.74754e-21
-3.33359e-21
5.83258e-22
-1.76387e-21
-3.62085e-22
2.87315e-21
1.03936e-22
-2.70053e-21
-4.88778e-21
-7.22911e-22
2.04466e-21
2.25674e-21
2.20553e-21
-3.90562e-21
-4.62935e-21
-2.50214e-21
-2.83354e-21
-8.0393e-22
-1.79089e-21
-4.25583e-21
-3.38209e-22
-8.1208e-22
6.64758e-22
1.43054e-22
1.98098e-21
2.27326e-22
-2.35779e-21
-2.67548e-21
-6.43134e-22
1.43613e-21
-1.39432e-22
-1.73412e-21
-5.63299e-21
-4.04102e-21
-4.50576e-21
-6.24486e-21
-4.70725e-21
-8.0126e-21
-3.8217e-21
-1.69081e-21
-2.21313e-21
-2.02159e-21
-2.51476e-21
-2.15933e-22
-4.13977e-23
5.71836e-22
1.29411e-21
-2.34474e-21
-3.6719e-21
5.00246e-22
2.70074e-21
1.32188e-21
1.94827e-21
-6.01397e-21
-4.22044e-21
-2.41305e-21
1.5299e-22
4.99475e-22
-3.83935e-22
-1.44699e-21
-3.00677e-21
-1.95684e-21
5.89877e-22
-1.90762e-22
8.29146e-22
1.36039e-21
-3.73129e-22
-1.59763e-21
-4.22984e-22
1.06116e-21
-1.32396e-22
-2.08252e-21
-4.52018e-21
-3.21911e-21
-1.35352e-21
-7.54262e-21
-3.80002e-21
-7.17071e-21
-3.15623e-21
-2.27146e-21
-1.4467e-21
-1.25427e-21
-3.37786e-21
-1.59887e-21
1.07653e-21
9.6737e-22
-2.18562e-21
-8.07509e-22
-2.53371e-21
1.07852e-21
3.1616e-21
9.35147e-22
1.50695e-21
-4.93035e-21
-2.12286e-21
-1.77039e-21
-2.14251e-21
-2.74792e-21
-6.08514e-22
6.62256e-22
5.48049e-23
-2.01537e-21
-1.13639e-21
1.52608e-23
1.36366e-21
3.57116e-22
-6.30917e-22
-1.34695e-21
2.61442e-21
2.89334e-21
-2.90988e-21
-2.38326e-21
-3.17734e-21
-3.65601e-21
-3.83107e-21
-3.65356e-21
-4.81227e-21
-6.92569e-21
-3.22172e-21
-2.21411e-21
-1.43438e-21
-1.67498e-21
-1.12626e-21
-2.09326e-21
1.10743e-21
1.81116e-23
-1.89797e-21
3.36261e-22
1.6631e-21
3.72417e-23
2.1408e-21
3.88944e-21
-5.20698e-22
-2.52623e-21
-3.07439e-21
-5.21001e-21
-1.61761e-22
3.61257e-22
-1.56047e-21
1.29557e-22
6.21674e-22
-2.33031e-21
-2.921e-21
-7.65787e-22
-1.69095e-22
1.24912e-21
-1.11154e-21
-9.44271e-22
1.05031e-21
3.1253e-21
-1.9986e-21
-1.74791e-21
-2.15675e-21
-8.43863e-22
-3.04877e-21
-5.75828e-21
-5.40746e-21
-5.28231e-21
-2.9434e-21
-1.43842e-21
1.4978e-22
-2.18743e-21
-1.73128e-22
1.44946e-21
1.28384e-21
-6.38273e-22
-2.28527e-21
-9.44089e-22
-1.26822e-21
5.19855e-22
3.72403e-22
9.7851e-22
2.93431e-23
-6.36844e-22
-6.9899e-22
-4.11512e-21
-2.95959e-21
1.48957e-21
1.87373e-21
2.46076e-21
-3.884e-21
-5.04824e-21
-1.61695e-21
-2.12005e-21
2.92869e-22
9.84163e-22
4.41879e-22
-1.7506e-21
-9.73395e-22
8.38051e-22
4.07008e-22
5.15973e-22
-5.74715e-21
-1.95878e-21
-2.02177e-21
5.48117e-22
8.75377e-22
-2.75753e-21
-5.36422e-21
-2.7986e-21
-4.10828e-22
-2.31183e-21
-2.76941e-21
2.48063e-21
1.74445e-21
-5.94451e-22
-1.34323e-21
-2.16407e-21
-1.63078e-21
-1.06094e-21
1.6224e-21
1.30777e-21
8.04632e-23
-1.16939e-21
-1.49107e-21
-8.02987e-22
-1.05329e-21
6.65486e-22
9.44504e-22
1.41486e-21
-1.14477e-22
-8.35177e-22
-2.39674e-21
-1.70125e-21
-1.48861e-21
-2.1583e-21
2.86972e-22
-1.22494e-21
-3.19824e-21
-1.4534e-21
7.64109e-22
1.36867e-21
-1.29269e-21
-2.81295e-21
-9.58524e-21
-4.92617e-21
-2.06345e-21
-7.21946e-21
-3.8192e-21
8.53346e-22
-5.1788e-21
-6.00126e-21
-2.93363e-21
-4.51865e-21
-3.47407e-21
-2.27927e-21
-2.63045e-21
-4.37871e-21
-3.08751e-21
-1.68788e-21
3.0186e-21
1.36469e-21
-6.79265e-22
-1.51895e-21
-1.25789e-21
-1.16473e-21
-2.47743e-21
-1.37517e-21
-1.34924e-21
-2.24184e-21
-3.43868e-21
-3.54338e-21
-4.86629e-21
5.86431e-22
-2.15683e-21
-1.6934e-21
-1.73393e-21
-7.7573e-22
2.63632e-21
7.89442e-22
-7.90665e-22
1.09379e-21
-4.47063e-21
-6.18897e-21
-1.15708e-20
-1.01559e-20
-3.965e-21
-6.19602e-21
-6.40025e-21
-9.73123e-22
-3.89425e-21
-6.71432e-21
-6.27176e-21
-3.94976e-21
-6.01522e-21
-4.00593e-21
-4.13621e-21
-2.62824e-21
3.61848e-22
-3.83873e-21
-9.20088e-23
7.87055e-22
2.03836e-22
-8.84023e-22
-2.64213e-22
-4.32641e-21
-3.16197e-21
-1.51505e-21
4.58832e-22
2.84788e-23
-3.2724e-21
3.41437e-22
-1.20157e-21
-1.11402e-21
-4.04101e-21
-1.43097e-21
-2.72911e-21
5.27004e-22
1.04073e-21
8.47433e-22
-9.74171e-22
2.34594e-22
-7.05769e-21
-6.30234e-21
-9.73818e-21
-8.5197e-21
-6.9805e-21
-5.9353e-21
-5.23176e-21
-5.72059e-21
-4.31413e-21
-4.25654e-21
-5.04242e-21
-5.75674e-21
-2.50002e-21
-1.54563e-21
-2.5559e-21
-3.91435e-21
-4.01528e-21
-1.92731e-21
9.35618e-22
4.59489e-22
-8.52909e-22
-1.7145e-21
-3.49221e-22
-2.52198e-21
-2.40095e-21
-7.94408e-22
2.63841e-22
-3.75238e-21
-1.57663e-21
-1.13177e-21
-1.76156e-21
-3.82693e-21
-1.19247e-21
-7.9601e-22
-5.0187e-21
1.44695e-21
9.11529e-22
1.43903e-21
-2.70846e-22
7.46611e-23
-9.47971e-21
-1.0004e-20
-9.29823e-21
-9.75828e-21
-9.06821e-21
-9.1527e-21
-5.33592e-21
-2.71409e-21
-7.22491e-21
-4.92522e-21
-2.95192e-21
-5.69671e-21
-3.19439e-21
-1.30886e-21
-3.18038e-21
-3.81517e-21
-3.92553e-21
-2.81306e-21
-4.77326e-22
2.80832e-22
-1.38339e-21
-3.85399e-22
-2.78751e-21
-3.54088e-21
-1.73607e-21
-7.90361e-23
-3.74069e-22
1.19699e-21
-2.47164e-21
-4.1139e-21
8.57213e-22
-2.9285e-21
-2.78263e-21
-6.98263e-23
-1.40181e-21
-5.37036e-22
-7.69452e-22
-3.34024e-22
-5.76603e-22
-1.99972e-22
-1.24883e-20
-1.13781e-20
-1.06222e-20
-9.18335e-21
-1.26169e-20
-9.48471e-21
-4.54627e-21
-3.38364e-21
-4.167e-21
-5.92401e-21
-6.6013e-21
-5.18148e-21
-7.9162e-22
-2.13138e-21
-4.55068e-21
-4.94738e-21
-5.9513e-21
-3.06422e-21
-3.24974e-22
5.26744e-22
-1.19196e-22
-4.24884e-22
-3.63852e-21
-3.43696e-21
-2.04228e-21
1.48592e-21
5.03401e-22
-1.31408e-21
-3.80171e-21
-2.6197e-21
9.41755e-22
-2.47383e-21
4.49104e-22
4.01055e-22
-1.84918e-21
-4.84721e-22
-8.44298e-22
-1.95402e-21
-1.63173e-21
-2.39636e-22
-1.2416e-20
-1.24128e-20
-9.50173e-21
-1.05927e-20
-1.21792e-20
-9.11382e-21
-6.14247e-21
-7.4119e-21
-6.6523e-21
-7.06441e-21
-5.87556e-21
-5.97045e-21
-2.74542e-21
-1.72774e-21
-4.80466e-21
-4.40679e-21
-4.95042e-21
-1.40849e-21
-1.52863e-21
5.27759e-22
-4.77294e-22
-2.36941e-21
-3.579e-21
-3.12222e-21
-1.99609e-21
2.39507e-23
1.26525e-21
-1.49739e-21
-3.7994e-21
-2.79877e-21
-2.98789e-21
-5.65392e-22
3.2187e-21
1.9865e-21
-1.43792e-21
-9.88073e-22
-1.32911e-21
-2.27946e-21
2.64119e-22
1.09963e-21
-1.46871e-20
-1.56547e-20
-1.21786e-20
-1.08532e-20
-1.21721e-20
-7.43137e-21
-7.45119e-21
-6.94553e-21
-8.57946e-21
-9.74407e-21
-7.42596e-21
-5.07227e-21
-1.18077e-21
-9.89082e-22
-6.28533e-21
-6.44298e-21
-1.92012e-21
-1.58909e-22
-4.4625e-24
-6.79138e-22
-1.93537e-21
-1.74132e-21
-4.39703e-21
-5.62097e-21
-2.8351e-21
-7.37262e-22
-1.02613e-21
-1.34385e-21
-5.09118e-23
-1.27201e-21
-2.54445e-21
-1.78618e-21
7.15757e-22
8.78473e-22
-1.04542e-21
-5.80071e-22
-1.03595e-21
-2.38979e-21
-1.95917e-21
1.10599e-21
-1.24922e-20
-1.4106e-20
-1.30302e-20
-1.27409e-20
-1.18167e-20
-7.62062e-21
-9.61395e-21
-1.04422e-20
-1.06352e-20
-6.28693e-21
-6.7265e-21
-8.03398e-21
-1.18198e-21
-1.28402e-21
-5.8871e-21
-4.84341e-21
-8.53182e-23
-2.25356e-22
-1.00466e-21
-8.07408e-22
-2.05969e-21
-5.58264e-21
-6.13045e-21
-2.71744e-21
-3.77176e-21
6.37825e-23
-5.80873e-22
-7.80683e-22
-1.57427e-21
-1.87074e-21
-4.40155e-21
-3.24232e-21
-5.82522e-22
-6.77734e-22
6.09024e-22
4.38536e-22
1.34258e-21
-6.84143e-22
-2.05054e-21
-8.87189e-22
-1.44593e-20
-1.44946e-20
-1.6039e-20
-1.30613e-20
-1.10504e-20
-6.57434e-21
-1.11478e-20
-9.51944e-21
-8.71535e-21
-1.07559e-20
-6.67076e-21
-6.66296e-21
-2.84181e-21
-3.05247e-21
-3.96067e-21
-5.04345e-21
-3.59758e-21
-2.73417e-22
-1.22286e-21
-9.87176e-22
-5.18478e-22
-5.47625e-21
-5.88094e-21
-7.94651e-21
-3.27481e-21
-3.96464e-22
-2.1997e-22
-1.69046e-21
5.36708e-22
-9.68922e-22
-3.61258e-21
-3.09589e-21
-4.71852e-21
3.76625e-22
9.34487e-22
2.37188e-21
3.07703e-21
-2.5743e-21
-1.50704e-21
-1.03743e-21
-1.65881e-20
-1.39204e-20
-1.3525e-20
-1.53591e-20
-1.28115e-20
-1.00404e-20
-1.16798e-20
-1.03911e-20
-6.37557e-21
-8.82858e-21
-7.1488e-21
-5.90131e-21
-3.4515e-21
-2.41513e-21
-6.38537e-21
-5.35498e-21
-4.38136e-21
-1.83483e-21
-5.9816e-22
1.61787e-21
-3.20668e-21
-6.93043e-21
-6.10043e-21
-7.95611e-21
-3.88766e-21
-1.89252e-21
1.32352e-22
-9.9342e-22
-1.64783e-21
-1.68552e-21
-1.2246e-21
-2.42563e-21
-3.69859e-21
-1.88857e-21
6.46263e-22
1.54887e-21
3.48313e-21
2.08447e-22
1.23411e-21
5.73981e-22
-1.52444e-20
-1.73485e-20
-1.7379e-20
-1.42562e-20
-1.25072e-20
-1.01797e-20
-1.22814e-20
-1.10158e-20
-9.23038e-21
-8.10957e-21
-7.84725e-21
-6.10458e-21
-3.17931e-21
-3.00637e-21
-6.54959e-21
-6.81841e-21
-3.69784e-21
-1.82526e-21
1.00068e-21
9.38544e-22
-6.90775e-21
-6.5298e-21
-5.63136e-21
-7.89103e-21
-6.74312e-21
-1.82478e-21
6.06271e-22
-2.77731e-21
2.13593e-22
-7.72799e-22
-1.60817e-21
-2.48402e-21
-2.34508e-21
3.09488e-22
2.80827e-22
-2.08379e-22
1.54641e-21
1.91667e-21
9.30984e-22
-2.32469e-22
-1.81458e-20
-2.02984e-20
-1.51903e-20
-1.46413e-20
-1.32183e-20
-1.14165e-20
-1.26496e-20
-9.3078e-21
-8.66251e-21
-9.82193e-21
-8.7274e-21
-6.25363e-21
-5.59934e-21
-4.69312e-21
-6.17949e-21
-6.48205e-21
-6.21753e-21
-3.24037e-21
1.1902e-21
2.66843e-22
-4.15292e-21
-6.26955e-21
-6.31986e-21
-5.01141e-21
-6.54887e-21
-4.05607e-21
-2.46412e-21
-7.07701e-23
7.91185e-22
-1.20311e-21
5.79737e-22
-1.69291e-21
-2.84464e-21
-3.84022e-22
-7.98688e-23
3.34159e-22
3.84449e-21
1.21678e-21
-7.68558e-22
3.9709e-22
-1.91842e-20
-1.83744e-20
-1.43139e-20
-1.50187e-20
-1.51974e-20
-1.31399e-20
-9.40522e-21
-9.18857e-21
-1.04073e-20
-1.12818e-20
-8.275e-21
-7.05678e-21
-5.22543e-21
-3.59736e-21
-6.75431e-21
-5.98053e-21
-6.55754e-21
-3.46891e-21
-2.68742e-21
-9.6684e-22
-3.96504e-21
-2.57331e-21
-4.57804e-21
-4.25112e-21
-5.9864e-21
-3.63144e-21
-2.67108e-21
-7.17291e-22
-3.59482e-22
1.08738e-21
1.3212e-21
-1.13351e-21
-3.67284e-21
-2.73586e-21
-2.67018e-21
1.23303e-21
2.67616e-21
-4.86737e-23
9.93976e-23
1.67608e-21
-2.18222e-20
-1.98168e-20
-1.5589e-20
-1.54769e-20
-1.34517e-20
-1.26796e-20
-1.15548e-20
-9.69258e-21
-1.05205e-20
-1.09491e-20
-9.70598e-21
-6.7299e-21
-7.55089e-21
-5.6329e-21
-5.45597e-21
-5.63651e-21
-6.1599e-21
-2.99059e-21
-4.04821e-22
-2.10276e-21
-4.3774e-21
-5.34774e-21
-4.09819e-21
-6.3885e-21
-4.86608e-21
-1.81335e-21
7.52971e-22
-4.7016e-22
-7.70541e-22
4.30334e-23
1.30909e-21
-4.20455e-22
-2.40359e-21
-2.44189e-21
-3.44344e-21
2.25926e-22
2.88207e-21
-6.66536e-22
-1.21067e-21
8.84035e-22
-2.33125e-20
-1.96073e-20
-1.54196e-20
-1.21613e-20
-1.34607e-20
-1.15451e-20
-1.32982e-20
-1.11168e-20
-1.06011e-20
-1.16083e-20
-9.23738e-21
-6.57951e-21
-7.40807e-21
-5.16169e-21
-5.96894e-21
-4.23442e-21
-3.24458e-21
-2.16713e-21
-3.36701e-21
-4.3143e-21
-4.8168e-21
-6.12564e-21
-4.97622e-21
-5.15629e-21
-1.77291e-21
-1.95765e-21
-1.02381e-21
7.67938e-22
7.51101e-22
-1.28244e-21
-4.12352e-21
-8.05311e-22
7.02379e-22
5.38122e-22
-4.08388e-21
-4.29718e-21
7.31954e-22
1.09341e-21
3.77057e-22
1.92989e-21
-1.99523e-20
-1.77873e-20
-1.83193e-20
-1.42861e-20
-1.31516e-20
-1.36991e-20
-1.2608e-20
-1.18161e-20
-1.06667e-20
-9.9587e-21
-1.02555e-20
-8.93834e-21
-1.07343e-20
-3.0342e-21
-2.94232e-21
-4.69641e-21
-3.65463e-21
-3.39207e-21
-2.42137e-21
-3.91596e-21
-5.60686e-21
-5.81831e-21
-7.52962e-21
-4.61739e-21
3.20123e-22
-2.868e-21
-1.16275e-21
3.47489e-21
5.60544e-22
-6.36975e-22
-4.72581e-21
-3.03361e-22
2.7243e-21
-9.55413e-22
-3.20032e-21
-5.79076e-21
-2.54908e-21
-3.06421e-22
-8.47552e-22
-6.67182e-23
-1.7997e-20
-1.74697e-20
-1.62975e-20
-1.32183e-20
-1.38181e-20
-1.41044e-20
-1.27473e-20
-1.1799e-20
-1.03093e-20
-1.00277e-20
-9.88531e-21
-9.20936e-21
-9.64913e-21
-6.10859e-21
-3.15657e-21
-2.21207e-21
-3.02383e-21
-3.20499e-21
-5.97537e-21
-3.23833e-21
-5.89176e-21
-3.87755e-21
-3.98909e-21
-5.13959e-21
-2.20493e-22
-1.74349e-21
1.16994e-21
3.88684e-21
-2.07952e-21
-1.39622e-21
-3.18801e-21
-1.75555e-21
1.73292e-21
-2.67285e-21
-4.03511e-21
-3.18392e-21
-6.73904e-22
-4.53962e-22
-8.34281e-22
-1.42348e-22
-1.68126e-20
-1.68871e-20
-2.00506e-20
-1.41787e-20
-1.16456e-20
-1.32659e-20
-1.26989e-20
-9.95701e-21
-1.1339e-20
-1.39364e-20
-9.39064e-21
-8.82847e-21
-8.59256e-21
-7.45557e-21
-4.20435e-21