/*--------------------------------*- C++ -*----------------------------------*\
| =========                 |                                                 |
| \\      /  F ield         | OpenFOAM: The Open Source CFD Toolbox           |
|  \\    /   O peration     | Version:  v2012                                 |
|   \\  /    A nd           | Website:  www.openfoam.com                      |
|    \\/     M anipulation  |                                                 |
\*---------------------------------------------------------------------------*/
FoamFile
{
    version     2.0;
    format      ascii;
    class       surfaceScalarField;
    location    "11";
    object      phi;
}
// * * * * * * * * * * * * * * * * * * * * * * * * * * * * * * * * * * * * * //

dimensions      [0 3 -1 0 0 0 0];
oriented        oriented;


internalField   nonuniform List<scalar> 
187200
(
1.875e-06
1.31587e-22
1.61803e-22
1.875e-06
1.02521e-22
2.00874e-22
1.875e-06
2.91329e-22
3.4144e-22
1.875e-06
1.89048e-22
1.9355e-22
1.875e-06
1.44818e-22
4.9164e-23
1.875e-06
2.73675e-22
2.48908e-22
1.875e-06
9.67907e-23
9.32657e-23
1.875e-06
7.78334e-23
1.09602e-22
1.875e-06
6.65191e-23
1.99969e-22
1.875e-06
1.52088e-22
1.67619e-22
1.875e-06
1.08939e-22
8.62826e-23
1.875e-06
1.87032e-22
1.21789e-22
1.875e-06
6.87116e-23
1.03707e-22
1.875e-06
-1.07026e-23
2.95595e-23
1.875e-06
5.73376e-23
7.29814e-23
1.875e-06
8.71442e-23
1.10966e-22
1.875e-06
9.11667e-23
1.41066e-22
1.875e-06
4.75537e-23
7.62813e-23
1.875e-06
1.19551e-22
-1.91136e-22
1.875e-06
1.05706e-22
-1.49219e-22
1.875e-06
-1.17798e-22
-1.5763e-22
1.875e-06
-1.38495e-22
-4.99524e-23
1.875e-06
5.46263e-24
4.2291e-23
1.875e-06
2.55646e-22
6.70757e-23
1.875e-06
9.82308e-23
-2.31059e-23
1.875e-06
-1.8095e-23
8.93262e-24
1.875e-06
2.28274e-23
9.59422e-23
1.875e-06
3.95105e-23
9.60378e-23
1.875e-06
5.15302e-24
1.10862e-22
1.875e-06
-1.42339e-22
8.3675e-23
1.875e-06
-2.56747e-22
1.41674e-22
1.875e-06
-3.23236e-23
1.97758e-23
1.875e-06
1.31323e-22
2.30739e-23
1.875e-06
1.71167e-23
5.31051e-23
1.875e-06
-3.76078e-23
5.65664e-24
1.875e-06
-8.5443e-23
-1.28999e-22
1.875e-06
-2.08463e-22
-2.53722e-22
1.875e-06
-8.39779e-24
-2.60264e-23
1.875e-06
5.89381e-23
7.59354e-23
4.34426e-23
2.71395e-23
1.875e-06
1.52777e-22
1.95332e-22
1.875e-06
1.94264e-22
4.02677e-22
1.875e-06
2.54784e-22
4.42026e-22
1.875e-06
1.67226e-22
4.61305e-22
1.875e-06
7.73397e-23
2.19728e-22
1.875e-06
1.07206e-22
2.00963e-22
1.875e-06
1.30983e-22
2.82703e-22
1.875e-06
1.88327e-22
2.14012e-22
1.875e-06
9.71795e-23
2.50598e-22
1.875e-06
3.54409e-23
2.89298e-22
1.875e-06
1.72115e-22
2.71727e-22
1.875e-06
1.03634e-22
1.28473e-22
1.875e-06
4.54545e-23
2.39142e-22
1.875e-06
5.14153e-23
2.32798e-22
1.875e-06
-1.48746e-23
2.00854e-22
1.875e-06
-6.9792e-23
8.04093e-23
1.875e-06
1.44446e-22
1.69697e-23
1.875e-06
1.30044e-22
2.08087e-22
1.875e-06
1.14699e-22
-1.28082e-23
1.875e-06
1.0985e-22
-1.24042e-22
1.875e-06
3.03906e-23
1.18522e-23
1.875e-06
-1.35477e-22
4.96454e-23
1.875e-06
-3.74606e-25
-4.63306e-23
1.875e-06
-2.74988e-23
-1.99704e-23
1.875e-06
-8.47391e-23
-2.72653e-23
1.875e-06
3.77439e-23
4.78372e-23
1.875e-06
2.12418e-23
8.37166e-23
1.875e-06
-3.10556e-24
2.13578e-23
1.875e-06
-5.62594e-23
1.43971e-22
1.875e-06
-1.85872e-23
9.05295e-23
1.875e-06
-2.44325e-23
1.92698e-22
1.875e-06
-1.39019e-23
1.12e-22
1.875e-06
-7.26389e-23
6.14631e-23
1.875e-06
-8.39433e-23
1.96195e-23
1.875e-06
-1.17395e-22
1.03272e-23
1.875e-06
-2.2941e-22
-1.82351e-22
1.875e-06
-4.40012e-23
-1.0335e-22
1.875e-06
7.1287e-23
-2.92017e-23
1.875e-06
9.06224e-23
3.20893e-23
6.84001e-23
3.69402e-23
1.875e-06
1.38056e-22
1.96242e-22
1.875e-06
2.67571e-22
3.61913e-22
1.875e-06
3.9279e-23
3.4723e-22
1.875e-06
2.05338e-22
4.37892e-22
1.875e-06
2.21672e-22
3.59203e-22
1.875e-06
1.86501e-22
2.63662e-22
1.875e-06
1.08191e-22
3.35089e-22
1.875e-06
1.14881e-22
3.36909e-22
1.875e-06
1.86491e-22
3.6013e-22
1.875e-06
1.3496e-22
3.13023e-22
1.875e-06
2.25338e-23
1.94806e-22
1.875e-06
2.56159e-23
1.47631e-22
1.875e-06
1.47161e-22
2.312e-22
1.875e-06
3.94855e-23
1.98479e-22
1.875e-06
7.19878e-23
2.4314e-22
1.875e-06
1.29113e-22
2.29315e-22
1.875e-06
3.66394e-23
1.17234e-22
1.875e-06
9.74863e-23
9.71904e-23
1.875e-06
7.40631e-23
-1.32412e-22
1.875e-06
-4.95755e-23
-1.26707e-22
1.875e-06
-8.59872e-23
7.40256e-23
1.875e-06
-4.60502e-23
2.04879e-22
1.875e-06
6.30441e-23
-6.68132e-24
1.875e-06
5.315e-23
-9.83201e-24
1.875e-06
2.48375e-23
7.89382e-23
1.875e-06
-1.84228e-23
4.29302e-23
1.875e-06
-9.29608e-24
4.90443e-23
1.875e-06
-8.07256e-23
7.05695e-23
1.875e-06
2.01941e-23
1.60677e-22
1.875e-06
4.95051e-23
1.73068e-22
1.875e-06
-9.69194e-23
1.8589e-22
1.875e-06
-5.85658e-23
2.09811e-22
1.875e-06
1.68624e-23
6.24514e-23
1.875e-06
-1.35938e-22
3.45809e-23
1.875e-06
-1.11862e-22
1.27652e-22
1.875e-06
1.21346e-23
-5.224e-23
1.875e-06
1.17066e-23
-9.06201e-23
1.875e-06
6.08436e-23
-1.32561e-22
1.875e-06
8.8131e-23
-8.03691e-23
7.62212e-23
-4.59032e-23
1.875e-06
2.62843e-22
1.73593e-22
1.875e-06
1.69663e-22
3.88012e-22
1.875e-06
7.9651e-23
4.46654e-22
1.875e-06
7.46057e-23
4.14072e-22
1.875e-06
1.57346e-22
3.8611e-22
1.875e-06
9.42256e-23
3.22318e-22
1.875e-06
1.17227e-22
3.36154e-22
1.875e-06
1.33454e-22
3.13536e-22
1.875e-06
9.02397e-23
3.68632e-22
1.875e-06
1.22748e-22
3.20421e-22
1.875e-06
1.23062e-22
2.42923e-22
1.875e-06
9.95419e-24
1.93244e-22
1.875e-06
-3.68775e-24
2.02289e-22
1.875e-06
1.38566e-23
2.8167e-22
1.875e-06
1.43604e-22
2.57238e-22
1.875e-06
1.96596e-22
1.80147e-22
1.875e-06
9.11333e-23
1.34667e-22
1.875e-06
-9.69728e-23
4.23652e-23
1.875e-06
-1.39234e-22
-4.3437e-23
1.875e-06
-1.08788e-22
-8.80548e-23
1.875e-06
-4.93166e-23
1.79497e-22
1.875e-06
1.20197e-22
1.459e-22
1.875e-06
1.55651e-22
3.23368e-23
1.875e-06
8.62469e-23
2.88873e-23
1.875e-06
-2.90591e-24
7.56834e-23
1.875e-06
-6.16454e-23
2.21719e-23
1.875e-06
-2.31309e-23
2.3346e-23
1.875e-06
3.15825e-23
2.1711e-23
1.875e-06
4.95842e-23
1.34171e-22
1.875e-06
-9.80519e-23
1.82127e-22
1.875e-06
-1.84035e-23
1.77813e-22
1.875e-06
1.81349e-23
1.81962e-22
1.875e-06
-3.27004e-23
6.17292e-23
1.875e-06
-7.5563e-23
1.04406e-22
1.875e-06
5.57095e-23
8.65299e-23
1.875e-06
-5.19835e-24
-2.94092e-23
1.875e-06
6.15701e-24
-2.24834e-23
1.875e-06
2.29729e-24
-1.93305e-23
1.875e-06
6.3994e-23
-7.35405e-23
3.43434e-23
-5.79247e-23
1.875e-06
-5.97199e-23
1.00912e-22
1.875e-06
7.30065e-23
4.12391e-22
1.875e-06
6.40584e-23
5.15875e-22
1.875e-06
9.09712e-23
4.36938e-22
1.875e-06
3.38952e-23
4.6794e-22
1.875e-06
-5.56133e-24
3.5729e-22
1.875e-06
6.8234e-23
3.52843e-22
1.875e-06
2.33639e-22
3.43045e-22
1.875e-06
1.77221e-22
3.44608e-22
1.875e-06
1.12568e-22
3.52635e-22
1.875e-06
8.35007e-23
3.62654e-22
1.875e-06
4.87768e-23
2.56853e-22
1.875e-06
4.22297e-23
1.96448e-22
1.875e-06
7.83944e-23
3.08587e-22
1.875e-06
2.12109e-23
2.0704e-22
1.875e-06
-4.02413e-23
4.91743e-23
1.875e-06
-3.26663e-23
1.3001e-22
1.875e-06
-7.4761e-23
1.71993e-22
1.875e-06
-1.55854e-22
1.21204e-22
1.875e-06
-1.34433e-22
1.73909e-23
1.875e-06
1.55269e-23
1.28729e-22
1.875e-06
1.15724e-22
2.81475e-23
1.875e-06
1.08535e-22
-6.64047e-24
1.875e-06
2.75539e-23
-5.47586e-24
1.875e-06
5.13313e-23
1.43455e-22
1.875e-06
9.05284e-23
2.90361e-23
1.875e-06
3.80949e-23
-2.40024e-23
1.875e-06
-4.75227e-23
9.40555e-23
1.875e-06
-9.86354e-23
1.32638e-22
1.875e-06
6.62102e-23
1.86175e-22
1.875e-06
1.39092e-22
1.93174e-22
1.875e-06
3.01035e-23
1.98156e-22
1.875e-06
-1.15391e-22
-1.00289e-22
1.875e-06
-2.93524e-23
7.86336e-24
1.875e-06
-6.86206e-23
-5.42432e-23
1.875e-06
-5.33266e-23
-1.00764e-22
1.875e-06
2.40348e-23
1.97072e-23
1.875e-06
1.33645e-22
9.68238e-23
1.875e-06
8.81535e-23
3.76229e-23
1.22077e-22
-4.36082e-23
1.875e-06
4.28287e-23
2.65852e-22
1.875e-06
1.23496e-22
4.62539e-22
1.875e-06
7.88091e-23
5.17401e-22
1.875e-06
2.55583e-23
5.08433e-22
1.875e-06
7.40728e-23
5.1801e-22
1.875e-06
8.33576e-23
4.11777e-22
1.875e-06
8.27451e-23
4.34364e-22
1.875e-06
1.04568e-22
4.14887e-22
1.875e-06
1.10154e-22
3.98023e-22
1.875e-06
5.81904e-23
3.62231e-22
1.875e-06
9.06242e-23
3.64031e-22
1.875e-06
6.29101e-23
3.19986e-22
1.875e-06
3.68251e-23
2.49796e-22
1.875e-06
1.00103e-22
2.4804e-22
1.875e-06
3.8977e-23
2.63564e-22
1.875e-06
-6.24799e-23
1.58218e-22
1.875e-06
-1.13832e-22
1.5093e-22
1.875e-06
-7.02478e-23
1.16759e-22
1.875e-06
-1.72407e-22
2.0198e-22
1.875e-06
-1.33075e-22
1.24013e-22
1.875e-06
5.61498e-23
1.05909e-22
1.875e-06
1.39388e-22
3.26008e-23
1.875e-06
1.14618e-22
-7.41418e-23
1.875e-06
7.46056e-23
-4.50697e-24
1.875e-06
1.14166e-22
9.75637e-23
1.875e-06
3.01091e-23
5.79364e-23
1.875e-06
-1.7554e-23
3.18855e-23
1.875e-06
-3.43989e-23
1.13422e-22
1.875e-06
-9.69548e-23
1.43198e-22
1.875e-06
-3.6425e-23
1.46863e-22
1.875e-06
1.38219e-22
2.23175e-22
1.875e-06
7.5758e-23
5.94859e-23
1.875e-06
3.14688e-23
-1.18837e-22
1.875e-06
4.36551e-23
-5.86191e-23
1.875e-06
-5.31543e-23
-7.46119e-23
1.875e-06
7.55749e-24
-8.63267e-23
1.875e-06
-2.21482e-24
-9.50964e-24
1.875e-06
6.83173e-25
-4.29114e-23
1.875e-06
1.277e-22
-1.10323e-22
6.22882e-23
-1.55284e-22
1.875e-06
-1.63615e-23
3.13788e-22
1.875e-06
-3.68103e-24
5.17012e-22
1.875e-06
1.93866e-22
6.53494e-22
1.875e-06
1.06886e-22
5.8341e-22
1.875e-06
1.05448e-22
5.69026e-22
1.875e-06
1.81672e-23
4.49154e-22
1.875e-06
7.76371e-23
4.88172e-22
1.875e-06
1.61648e-22
4.34741e-22
1.875e-06
7.97935e-23
4.68058e-22
1.875e-06
8.54079e-23
4.73442e-22
1.875e-06
6.41668e-23
3.71744e-22
1.875e-06
8.14473e-23
3.16029e-22
1.875e-06
1.01861e-22
2.8344e-22
1.875e-06
8.47084e-23
2.05599e-22
1.875e-06
4.34161e-24
3.12735e-22
1.875e-06
-1.20141e-23
3.00038e-22
1.875e-06
-3.70582e-23
1.32057e-22
1.875e-06
-9.42276e-23
8.13003e-23
1.875e-06
-5.76568e-23
1.82562e-22
1.875e-06
-4.17297e-23
2.5123e-22
1.875e-06
2.6875e-23
1.47732e-22
1.875e-06
1.06757e-22
-8.92802e-24
1.875e-06
2.81994e-23
-8.56965e-23
1.875e-06
-1.60551e-23
7.43327e-23
1.875e-06
1.8037e-23
9.23813e-23
1.875e-06
7.70166e-23
6.72101e-23
1.875e-06
-1.61641e-23
7.93268e-23
1.875e-06
-1.15092e-22
1.08599e-22
1.875e-06
-7.69721e-23
1.02013e-22
1.875e-06
-1.61113e-23
9.29884e-23
1.875e-06
4.52909e-23
9.18692e-23
1.875e-06
7.94795e-23
2.97813e-23
1.875e-06
7.32334e-23
3.4732e-23
1.875e-06
1.63508e-22
-1.56558e-23
1.875e-06
6.44261e-23
-2.30188e-23
1.875e-06
-2.22054e-23
-5.94097e-23
1.875e-06
-3.65326e-23
-5.12374e-23
1.875e-06
3.88206e-23
-1.11381e-22
1.875e-06
-2.79368e-23
-1.62316e-22
-3.31306e-23
-2.04148e-22
1.875e-06
2.35912e-22
2.89972e-22
1.875e-06
1.62199e-22
5.27639e-22
1.875e-06
1.7716e-22
5.61645e-22
1.875e-06
1.67453e-22
7.06137e-22
1.875e-06
2.58295e-24
5.99379e-22
1.875e-06
1.16762e-22
5.62292e-22
1.875e-06
1.57692e-22
6.40154e-22
1.875e-06
-2.71539e-23
5.37921e-22
1.875e-06
1.40747e-23
5.20926e-22
1.875e-06
8.55457e-23
3.69382e-22
1.875e-06
2.84233e-23
3.07634e-22
1.875e-06
6.30404e-23
3.56726e-22
1.875e-06
-4.68228e-23
1.74764e-22
1.875e-06
4.05321e-23
1.97819e-22
1.875e-06
5.65777e-23
3.43846e-22
1.875e-06
5.02471e-23
2.42387e-22
1.875e-06
5.58804e-23
6.85928e-23
1.875e-06
-3.01407e-23
1.36736e-22
1.875e-06
5.46991e-23
2.62157e-22
1.875e-06
6.35072e-23
2.73495e-22
1.875e-06
-4.14269e-25
1.28999e-22
1.875e-06
7.93719e-23
1.11592e-22
1.875e-06
1.335e-23
3.32613e-23
1.875e-06
8.53186e-23
6.24508e-23
1.875e-06
-6.95844e-23
1.2648e-22
1.875e-06
1.52168e-23
9.44068e-25
1.875e-06
-2.52254e-23
6.10157e-23
1.875e-06
5.85305e-24
1.62612e-22
1.875e-06
-9.02033e-23
1.67805e-22
1.875e-06
1.3866e-23
9.75327e-23
1.875e-06
-1.36126e-22
7.82236e-23
1.875e-06
-4.00425e-23
7.92305e-23
1.875e-06
2.56456e-22
9.50061e-23
1.875e-06
1.14907e-22
-3.0609e-23
1.875e-06
1.39428e-22
-6.50569e-23
1.875e-06
7.79202e-23
-1.32581e-22
1.875e-06
-2.38774e-23
-2.25395e-22
1.875e-06
-8.30022e-23
-1.55788e-22
1.875e-06
-1.06906e-22
-9.26532e-23
-1.005e-22
-1.03492e-22
1.875e-06
-1.89709e-22
1.38883e-22
1.875e-06
7.47341e-25
4.59326e-22
1.875e-06
3.5789e-23
6.15897e-22
1.875e-06
8.41032e-23
7.00801e-22
1.875e-06
2.03273e-22
7.22313e-22
1.875e-06
1.37771e-22
5.3751e-22
1.875e-06
8.13847e-23
6.45928e-22
1.875e-06
7.38145e-23
5.96086e-22
1.875e-06
1.80042e-23
4.89735e-22
1.875e-06
-1.95898e-23
4.83887e-22
1.875e-06
3.06881e-23
3.4213e-22
1.875e-06
-6.46771e-23
2.6434e-22
1.875e-06
5.8334e-23
2.97997e-22
1.875e-06
-6.75626e-23
2.14345e-22
1.875e-06
3.65457e-23
3.012e-22
1.875e-06
2.24918e-23
2.51106e-22
1.875e-06
1.21429e-22
1.56842e-22
1.875e-06
1.44101e-22
1.9602e-22
1.875e-06
5.71442e-23
2.12939e-22
1.875e-06
-1.84491e-24
1.94899e-22
1.875e-06
-7.79855e-24
1.6716e-22
1.875e-06
3.50787e-23
8.7904e-23
1.875e-06
4.95383e-23
6.62248e-23
1.875e-06
-2.87157e-23
1.61262e-22
1.875e-06
7.48718e-23
2.23393e-22
1.875e-06
-5.76753e-23
1.4223e-24
1.875e-06
-3.08301e-23
8.15321e-24
1.875e-06
-5.35266e-23
8.05997e-23
1.875e-06
1.72421e-22
2.37862e-22
1.875e-06
2.61569e-23
1.16006e-23
1.875e-06
-4.06621e-23
1.29055e-22
1.875e-06
-3.08174e-23
7.5452e-23
1.875e-06
-1.16339e-22
3.62983e-23
1.875e-06
-6.84147e-25
-2.64917e-23
1.875e-06
1.1665e-22
-1.3105e-22
1.875e-06
1.19313e-22
-2.60099e-22
1.875e-06
1.64476e-23
-2.84294e-22
1.875e-06
-1.38699e-22
-8.51987e-23
1.875e-06
-1.60675e-22
-6.7124e-23
-7.92891e-23
-9.98927e-23
1.875e-06
-3.33721e-23
4.56904e-22
1.875e-06
6.72488e-23
5.68897e-22
1.875e-06
1.08168e-22
7.13943e-22
1.875e-06
2.03726e-22
8.11899e-22
1.875e-06
9.9032e-23
7.28581e-22
1.875e-06
1.04541e-22
6.41338e-22
1.875e-06
1.87992e-22
7.02948e-22
1.875e-06
9.06236e-23
5.68503e-22
1.875e-06
4.36367e-23
4.69153e-22
1.875e-06
1.42206e-22
4.96639e-22
1.875e-06
8.72769e-24
3.51954e-22
1.875e-06
-8.16803e-23
3.2139e-22
1.875e-06
-4.97234e-23
2.5766e-22
1.875e-06
2.39005e-23
3.22549e-22
1.875e-06
4.8008e-24
2.76874e-22
1.875e-06
6.47364e-23
2.9843e-22
1.875e-06
-2.85777e-23
1.62143e-22
1.875e-06
4.64471e-23
2.26615e-22
1.875e-06
-5.94507e-23
1.88746e-22
1.875e-06
1.09009e-22
1.5474e-22
1.875e-06
2.02649e-22
2.88597e-22
1.875e-06
1.27915e-22
1.57066e-22
1.875e-06
-3.79458e-23
9.23821e-23
1.875e-06
-7.42335e-24
2.41848e-22
1.875e-06
7.49869e-23
2.09957e-22
1.875e-06
-1.19739e-23
9.37835e-23
1.875e-06
-3.21863e-23
3.56598e-23
1.875e-06
5.59881e-23
9.2746e-23
1.875e-06
-2.68497e-23
3.92565e-23
1.875e-06
-4.15133e-23
1.24419e-23
1.875e-06
-3.34026e-23
6.10142e-24
1.875e-06
-2.74541e-23
4.39037e-23
1.875e-06
-1.63753e-22
8.96287e-23
1.875e-06
-1.52857e-22
-3.46205e-23
1.875e-06
3.50633e-23
-1.55178e-22
1.875e-06
2.12109e-22
-2.37958e-22
1.875e-06
1.30096e-23
-3.43713e-22
1.875e-06
-9.36495e-23
-1.73149e-22
1.875e-06
-1.24506e-22
-8.20598e-23
-1.18438e-22
-9.32173e-23
1.875e-06
8.30499e-23
4.85976e-22
1.875e-06
1.29177e-22
6.92323e-22
1.875e-06
1.36518e-22
8.38954e-22
1.875e-06
8.12964e-23
7.27687e-22
1.875e-06
1.27521e-22
7.60188e-22
1.875e-06
1.33373e-22
6.81659e-22
1.875e-06
1.15162e-22
6.61806e-22
1.875e-06
6.5266e-23
5.99789e-22
1.875e-06
3.4623e-23
5.20947e-22
1.875e-06
-1.88657e-23
3.72537e-22
1.875e-06
1.24542e-22
3.89253e-22
1.875e-06
2.03061e-23
4.54303e-22
1.875e-06
7.93782e-23
3.24891e-22
1.875e-06
9.55344e-23
3.2486e-22
1.875e-06
-2.72251e-24
3.46332e-22
1.875e-06
-4.50928e-23
3.26351e-22
1.875e-06
7.92172e-24
2.94862e-22
1.875e-06
7.18405e-24
2.40412e-22
1.875e-06
1.35781e-22
1.66202e-22
1.875e-06
3.14899e-23
1.02834e-22
1.875e-06
6.96705e-23
2.07911e-22
1.875e-06
-8.05631e-24
9.04791e-23
1.875e-06
4.25241e-24
1.46932e-22
1.875e-06
1.13369e-23
2.55849e-22
1.875e-06
3.41269e-23
2.404e-22
1.875e-06
-7.03132e-23
1.0794e-22
1.875e-06
-9.31439e-23
1.51324e-23
1.875e-06
-4.67032e-24
8.02547e-23
1.875e-06
8.45606e-24
-3.33515e-23
1.875e-06
-4.15328e-23
-3.66499e-23
1.875e-06
-3.26005e-23
1.6895e-24
1.875e-06
-3.75449e-23
-2.10622e-23
1.875e-06
-7.59596e-23
1.19129e-22
1.875e-06
-9.7911e-23
-3.97066e-23
1.875e-06
-1.61792e-23
-1.68368e-22
1.875e-06
-1.02227e-22
-2.88315e-22
1.875e-06
-2.29586e-23
-2.65807e-22
1.875e-06
6.32745e-24
-2.21905e-22
1.875e-06
-4.02719e-23
-9.08743e-23
1.49489e-24
3.50937e-23
1.875e-06
2.11964e-22
5.44818e-22
1.875e-06
1.49467e-22
7.41747e-22
1.875e-06
1.14616e-22
8.01399e-22
1.875e-06
1.14796e-22
8.09519e-22
1.875e-06
9.2822e-23
7.91861e-22
1.875e-06
1.37381e-22
7.41283e-22
1.875e-06
1.4215e-22
6.46652e-22
1.875e-06
6.49589e-23
5.67985e-22
1.875e-06
4.52973e-23
5.10986e-22
1.875e-06
7.16691e-23
4.83776e-22
1.875e-06
1.1145e-23
3.45861e-22
1.875e-06
2.42616e-23
4.33811e-22
1.875e-06
1.157e-23
3.95579e-22
1.875e-06
8.05519e-23
3.03756e-22
1.875e-06
1.451e-23
3.80982e-22
1.875e-06
-4.21243e-23
3.89395e-22
1.875e-06
-8.57206e-23
3.6416e-22
1.875e-06
-5.6816e-24
2.95968e-22
1.875e-06
9.22532e-23
1.35899e-22
1.875e-06
1.97416e-22
2.2051e-22
1.875e-06
3.6256e-23
1.9262e-22
1.875e-06
-9.29365e-23
1.28135e-22
1.875e-06
-5.4059e-23
1.33895e-22
1.875e-06
-2.38634e-23
1.34281e-22
1.875e-06
-1.24347e-22
1.44063e-22
1.875e-06
-5.83354e-23
2.24208e-22
1.875e-06
-4.03695e-23
1.65012e-22
1.875e-06
1.61774e-23
6.81295e-23
1.875e-06
4.63609e-23
-8.44105e-23
1.875e-06
1.5233e-23
9.07725e-25
1.875e-06
4.15855e-23
-8.85963e-23
1.875e-06
-1.6791e-22
-1.65364e-22
1.875e-06
-7.14956e-23
8.59939e-23
1.875e-06
2.51283e-23
5.84504e-23
1.875e-06
-6.99009e-23
-1.39024e-22
1.875e-06
2.21197e-23
-1.86619e-22
1.875e-06
1.47206e-22
-3.05939e-22
1.875e-06
1.18296e-22
-1.60362e-22
1.875e-06
8.55044e-23
1.53154e-23
7.42968e-23
-2.59452e-23
1.875e-06
8.9108e-23
4.56527e-22
1.875e-06
1.27076e-22
6.92496e-22
1.875e-06
1.07316e-22
7.20279e-22
1.875e-06
4.65245e-23
8.10048e-22
1.875e-06
3.28631e-24
8.4793e-22
1.875e-06
5.37001e-23
7.24286e-22
1.875e-06
-4.07782e-23
5.33486e-22
1.875e-06
2.8465e-23
5.71868e-22
1.875e-06
1.46582e-22
6.05613e-22
1.875e-06
1.4908e-22
5.24027e-22
1.875e-06
1.17401e-23
3.27041e-22
1.875e-06
2.43909e-23
4.66676e-22
1.875e-06
7.18106e-23
4.14341e-22
1.875e-06
8.35752e-23
2.34977e-22
1.875e-06
-2.00128e-23
4.03121e-22
1.875e-06
-3.84078e-23
4.18194e-22
1.875e-06
-2.46522e-23
4.43376e-22
1.875e-06
-1.25644e-22
2.91212e-22
1.875e-06
-2.93091e-23
2.0894e-22
1.875e-06
1.16508e-22
1.8256e-22
1.875e-06
1.1357e-22
2.03921e-22
1.875e-06
8.16833e-23
1.41179e-22
1.875e-06
5.37245e-23
1.42694e-22
1.875e-06
3.7193e-23
1.1519e-22
1.875e-06
-1.53033e-22
2.47504e-22
1.875e-06
-8.50459e-23
1.83165e-22
1.875e-06
-5.28353e-23
1.40436e-22
1.875e-06
1.13923e-23
3.02049e-23
1.875e-06
7.02397e-23
-6.85361e-23
1.875e-06
3.23989e-24
-1.21082e-22
1.875e-06
3.53045e-25
-2.54259e-22
1.875e-06
-5.69762e-23
-1.06393e-22
1.875e-06
2.83231e-24
1.07789e-22
1.875e-06
-5.54015e-23
1.00218e-22
1.875e-06
-3.76963e-23
7.96595e-24
1.875e-06
1.14993e-23
-2.25991e-22
1.875e-06
9.83429e-23
-2.15616e-22
1.875e-06
6.08619e-23
-6.0445e-23
1.875e-06
1.60191e-22
-4.06119e-23
-8.92975e-24
-1.10986e-22
1.875e-06
-8.21627e-23
5.2556e-22
1.875e-06
2.77613e-24
6.95835e-22
1.875e-06
1.22106e-22
7.28498e-22
1.875e-06
-4.52264e-23
8.36751e-22
1.875e-06
-7.78856e-23
7.91498e-22
1.875e-06
-9.52072e-23
6.95704e-22
1.875e-06
5.31333e-23
6.90022e-22
1.875e-06
1.68721e-22
6.61934e-22
1.875e-06
7.97482e-23
4.89579e-22
1.875e-06
1.62158e-24
3.72978e-22
1.875e-06
8.77404e-23
4.36929e-22
1.875e-06
1.6002e-22
5.11513e-22
1.875e-06
-2.06298e-23
4.73829e-22
1.875e-06
-1.37504e-22
2.52108e-22
1.875e-06
-9.15638e-23
3.95087e-22
1.875e-06
-7.29265e-23
3.92674e-22
1.875e-06
-5.48667e-23
4.3226e-22
1.875e-06
1.0852e-22
3.47232e-22
1.875e-06
7.18525e-23
1.32659e-22
1.875e-06
4.1785e-23
1.68026e-22
1.875e-06
1.16167e-22
1.49683e-22
1.875e-06
1.52007e-23
1.67162e-22
1.875e-06
-2.45544e-23
1.19557e-22
1.875e-06
-7.28312e-23
1.28176e-22
1.875e-06
-1.31818e-22
2.9498e-22
1.875e-06
-2.02029e-23
1.44556e-22
1.875e-06
1.08466e-22
5.78156e-23
1.875e-06
4.26006e-23
5.13559e-23
1.875e-06
-8.57372e-23
-1.43097e-22
1.875e-06
1.107e-22
-1.345e-22
1.875e-06
1.63552e-22
-2.23561e-22
1.875e-06
2.77517e-23
-1.06865e-22
1.875e-06
-2.6533e-22
-7.23387e-23
1.875e-06
-1.25768e-22
7.77154e-23
1.875e-06
-5.14921e-23
7.51781e-23
1.875e-06
1.00609e-22
-1.31374e-22
1.875e-06
1.15028e-22
-2.01395e-22
1.875e-06
1.94699e-22
2.09831e-23
1.875e-06
2.77355e-23
-1.23153e-22
-2.25082e-24
-1.70386e-22
1.875e-06
-6.79881e-23
5.85939e-22
1.875e-06
-1.10318e-22
7.42768e-22
1.875e-06
-1.67807e-23
6.62376e-22
1.875e-06
7.28567e-23
8.02165e-22
1.875e-06
9.44487e-23
8.63963e-22
1.875e-06
-1.67619e-23
7.28968e-22
1.875e-06
-1.6251e-23
6.8996e-22
1.875e-06
5.324e-23
6.04356e-22
1.875e-06
3.24253e-23
4.89541e-22
1.875e-06
-1.41585e-22
4.76246e-22
1.875e-06
1.44645e-23
4.38171e-22
1.875e-06
8.6144e-23
4.31276e-22
1.875e-06
2.56579e-23
4.79469e-22
1.875e-06
-8.51382e-23
3.9606e-22
1.875e-06
1.26198e-24
4.57378e-22
1.875e-06
-1.33574e-23
3.42876e-22
1.875e-06
-5.21813e-23
2.76004e-22
1.875e-06
1.37432e-23
1.90657e-22
1.875e-06
3.83778e-24
1.73597e-22
1.875e-06
3.35887e-23
2.35577e-22
1.875e-06
1.23e-22
1.56525e-22
1.875e-06
1.11495e-22
2.42847e-22
1.875e-06
-8.14963e-24
2.27411e-22
1.875e-06
-1.7426e-22
1.33223e-22
1.875e-06
-5.44477e-23
2.66339e-22
1.875e-06
3.32955e-23
1.68772e-22
1.875e-06
3.82844e-23
5.64302e-23
1.875e-06
-1.00623e-22
-1.01843e-22
1.875e-06
-9.02958e-23
-1.78555e-22
1.875e-06
4.05294e-23
-1.74879e-22
1.875e-06
1.69568e-22
-1.13112e-22
1.875e-06
1.03612e-22
-8.79058e-23
1.875e-06
4.64587e-23
-2.105e-23
1.875e-06
-1.32371e-22
-9.23275e-23
1.875e-06
-1.10247e-22
1.40744e-22
1.875e-06
-2.65582e-23
8.48126e-25
1.875e-06
1.3786e-22
-1.06788e-22
1.875e-06
1.66922e-22
-1.05253e-22
1.875e-06
1.46089e-22
-2.039e-22
1.33624e-22
-2.55741e-22
1.875e-06
-7.32234e-23
5.23447e-22
1.875e-06
-8.67158e-23
7.48057e-22
1.875e-06
-7.05241e-23
8.13226e-22
1.875e-06
-2.5177e-23
7.92848e-22
1.875e-06
-5.23302e-23
7.679e-22
1.875e-06
2.83857e-23
8.25317e-22
1.875e-06
5.92334e-24
7.0436e-22
1.875e-06
4.03807e-23
5.74027e-22
1.875e-06
-4.2034e-23
5.23618e-22
1.875e-06
3.56905e-23
5.78816e-22
1.875e-06
-2.65577e-23
5.11139e-22
1.875e-06
1.58749e-23
4.74982e-22
1.875e-06
-1.12736e-22
5.94461e-22
1.875e-06
2.0764e-24
4.15944e-22
1.875e-06
-4.07214e-23
3.67547e-22
1.875e-06
-6.67026e-23
3.14615e-22
1.875e-06
2.48396e-23
2.75738e-22
1.875e-06
-3.85149e-23
2.00398e-22
1.875e-06
6.91813e-23
2.00682e-22
1.875e-06
1.49422e-22
2.1813e-22
1.875e-06
4.55346e-23
1.07412e-22
1.875e-06
3.01466e-24
2.05049e-22
1.875e-06
-1.05865e-23
3.52214e-22
1.875e-06
-1.14461e-22
2.37471e-22
1.875e-06
-2.41735e-23
1.77285e-22
1.875e-06
-6.9039e-23
1.69964e-22
1.875e-06
-6.41941e-23
-8.92768e-25
1.875e-06
-1.56809e-22
-1.86362e-22
1.875e-06
-6.24482e-23
-4.00391e-23
1.875e-06
5.52239e-23
-1.1716e-22
1.875e-06
6.77066e-23
-2.07495e-22
1.875e-06
8.15571e-23
-1.77288e-22
1.875e-06
1.39411e-23
-2.32941e-22
1.875e-06
1.24665e-22
2.84321e-23
1.875e-06
9.30594e-23
1.91046e-22
1.875e-06
-5.65107e-23
1.26265e-22
1.875e-06
-3.81837e-23
-1.35405e-24
1.875e-06
9.30879e-23
-1.45734e-22
1.875e-06
5.57872e-23
-2.50105e-22
1.31543e-22
-2.09215e-22
1.875e-06
-9.85886e-23
4.83008e-22
1.875e-06
-6.68607e-23
7.82541e-22
1.875e-06
2.31047e-23
8.22348e-22
1.875e-06
-4.99216e-23
8.38894e-22
1.875e-06
-6.40143e-23
8.56917e-22
1.875e-06
-1.47422e-23
8.46963e-22
1.875e-06
-2.90464e-23
7.26499e-22
1.875e-06
-3.18832e-23
5.52507e-22
1.875e-06
-2.60068e-23
5.36902e-22
1.875e-06
8.09235e-24
5.82973e-22
1.875e-06
1.51542e-23
5.48184e-22
1.875e-06
-5.60289e-23
5.04934e-22
1.875e-06
-2.05055e-23
7.05452e-22
1.875e-06
9.48121e-24
5.1486e-22
1.875e-06
3.70176e-23
3.58066e-22
1.875e-06
-1.80995e-23
2.48904e-22
1.875e-06
-2.24715e-23
1.19526e-22
1.875e-06
1.50058e-23
2.01728e-22
1.875e-06
-8.97698e-24
2.58977e-22
1.875e-06
1.43488e-22
1.45666e-22
1.875e-06
6.14028e-23
9.4356e-23
1.875e-06
6.04096e-23
1.35967e-22
1.875e-06
-1.00682e-22
2.83041e-22
1.875e-06
-1.04513e-22
2.89571e-22
1.875e-06
-5.79944e-23
1.77336e-22
1.875e-06
-1.23234e-23
1.13207e-22
1.875e-06
-7.69788e-23
-3.51671e-23
1.875e-06
-1.04296e-22
-6.51126e-23
1.875e-06
5.04943e-24
1.11441e-22
1.875e-06
-7.73407e-23
-7.20391e-23
1.875e-06
-1.00463e-22
-2.2186e-22
1.875e-06
8.26912e-23
-1.84021e-22
1.875e-06
2.31699e-22
-1.4302e-22
1.875e-06
1.21334e-22
1.04178e-23
1.875e-06
7.77558e-23
6.03902e-23
1.875e-06
7.78228e-23
1.05224e-22
1.875e-06
-1.47473e-23
-2.70768e-23
1.875e-06
-1.45184e-22
-2.15766e-22
1.875e-06
-9.59843e-23
-2.2451e-22
-5.01336e-23
-2.23936e-22
1.875e-06
-8.59468e-23
5.17612e-22
1.875e-06
-1.72234e-22
7.745e-22
1.875e-06
-2.23981e-22
8.67254e-22
1.875e-06
1.23558e-23
8.76365e-22
1.875e-06
1.44109e-22
8.59412e-22
1.875e-06
-5.29569e-24
8.29623e-22
1.875e-06
-8.23199e-23
7.29804e-22
1.875e-06
-1.91641e-22
5.18782e-22
1.875e-06
-4.86346e-23
6.19791e-22
1.875e-06
2.24105e-23
7.13071e-22
1.875e-06
-7.71936e-24
5.21064e-22
1.875e-06
5.54086e-23
5.85222e-22
1.875e-06
9.7534e-23
7.00902e-22
1.875e-06
-2.06288e-23
5.51305e-22
1.875e-06
1.9589e-23
3.70782e-22
1.875e-06
4.45692e-24
2.63441e-22
1.875e-06
-6.82442e-24
2.17488e-22
1.875e-06
1.28158e-22
1.30871e-22
1.875e-06
2.39572e-22
1.5764e-22
1.875e-06
2.47819e-23
5.23331e-23
1.875e-06
-1.18962e-22
6.43697e-23
1.875e-06
-1.72343e-22
1.98656e-22
1.875e-06
-1.99442e-23
2.89394e-22
1.875e-06
2.77524e-23
2.56451e-22
1.875e-06
-8.19307e-23
1.34118e-22
1.875e-06
-1.12495e-22
6.28987e-23
1.875e-06
-4.51625e-23
5.4571e-23
1.875e-06
-2.05688e-23
2.70417e-23
1.875e-06
-1.04693e-22
-2.45956e-24
1.875e-06
-5.76776e-24
-6.8111e-24
1.875e-06
7.57967e-23
-6.17606e-23
1.875e-06
-3.96691e-23
-1.26424e-22
1.875e-06
3.45409e-23
-1.68993e-22
1.875e-06
9.5095e-23
-7.73083e-23
1.875e-06
1.08519e-22
4.36617e-23
1.875e-06
-2.203e-23
3.76554e-23
1.875e-06
-2.09191e-23
-3.11628e-23
1.875e-06
-2.26405e-23
-1.26152e-22
1.875e-06
3.84828e-23
-2.18309e-22
-4.56847e-24
-2.32138e-22
1.875e-06
-4.69134e-23
5.2521e-22
1.875e-06
-7.02811e-23
8.78545e-22
1.875e-06
-4.45605e-23
9.34937e-22
1.875e-06
-2.4287e-23
9.08856e-22
1.875e-06
-3.02816e-23
7.67143e-22
1.875e-06
-6.60402e-23
7.80725e-22
1.875e-06
-9.39269e-23
7.23109e-22
1.875e-06
-1.1078e-22
6.57243e-22
1.875e-06
-1.92384e-23
6.54999e-22
1.875e-06
3.16052e-23
7.09339e-22
1.875e-06
1.23565e-23
6.11825e-22
1.875e-06
1.02332e-22
5.63397e-22
1.875e-06
5.73546e-23
6.39658e-22
1.875e-06
6.57217e-23
6.34873e-22
1.875e-06
7.39263e-23
3.53427e-22
1.875e-06
-5.09887e-24
2.62636e-22
1.875e-06
-1.17748e-22
2.67836e-22
1.875e-06
-6.26618e-23
-1.41332e-23
1.875e-06
9.85217e-23
-7.10409e-23
1.875e-06
-1.19764e-23
2.96772e-23
1.875e-06
-8.05036e-23
1.13547e-22
1.875e-06
-8.05488e-24
3.37104e-22
1.875e-06
-1.13866e-23
3.17832e-22
1.875e-06
-4.90078e-23
2.21396e-22
1.875e-06
2.39092e-23
7.35708e-23
1.875e-06
-6.6455e-24
5.76676e-23
1.875e-06
6.9867e-23
1.40179e-22
1.875e-06
1.05169e-22
1.52171e-22
1.875e-06
-1.69348e-23
1.39836e-22
1.875e-06
3.38059e-23
-1.50583e-23
1.875e-06
-1.73402e-22
-6.87208e-23
1.875e-06
-5.44968e-23
-5.6434e-23
1.875e-06
-1.00177e-22
-1.42896e-22
1.875e-06
-2.44834e-23
-7.30057e-23
1.875e-06
5.31062e-23
2.16677e-23
1.875e-06
9.56371e-23
-8.30671e-23
1.875e-06
7.362e-23
-5.16693e-23
1.875e-06
-6.20671e-23
-1.63518e-22
1.875e-06
-1.24577e-22
-3.36532e-22
1.85684e-23
-3.84312e-22
1.875e-06
9.8261e-23
6.23223e-22
1.875e-06
9.22823e-23
8.84546e-22
1.875e-06
-9.63709e-23
8.15478e-22
1.875e-06
-1.7623e-22
8.82535e-22
1.875e-06
-3.72224e-23
8.33735e-22
1.875e-06
-4.6896e-23
8.60736e-22
1.875e-06
-1.18224e-22
7.21163e-22
1.875e-06
-8.42408e-23
6.18068e-22
1.875e-06
-7.61597e-23
6.5059e-22
1.875e-06
6.90293e-23
7.61566e-22
1.875e-06
-8.89665e-23
6.18001e-22
1.875e-06
4.10837e-22
5.77305e-22
1.875e-06
9.32606e-23
6.39201e-22
1.875e-06
2.51951e-23
5.1805e-22
1.875e-06
-5.25034e-23
4.7939e-22
1.875e-06
-6.51012e-23
3.32428e-22
1.875e-06
-7.80168e-23
1.54268e-22
1.875e-06
-9.43421e-23
-9.61961e-23
1.875e-06
-3.32493e-23
2.2869e-23
1.875e-06
-7.13071e-23
7.51813e-23
1.875e-06
-6.41139e-23
3.08793e-23
1.875e-06
-5.38748e-23
2.72524e-22
1.875e-06
-2.71349e-23
3.79506e-22
1.875e-06
6.18896e-23
1.16832e-22
1.875e-06
1.28133e-22
1.21719e-22
1.875e-06
3.27244e-23
9.66893e-23
1.875e-06
-3.62418e-23
7.4389e-23
1.875e-06
3.52953e-23
5.40556e-23
1.875e-06
-1.28229e-22
1.3193e-22
1.875e-06
1.60114e-22
-2.27424e-23
1.875e-06
1.88778e-23
6.32876e-23
1.875e-06
-4.11418e-23
-1.2992e-24
1.875e-06
7.17655e-23
-4.16837e-23
1.875e-06
-1.11238e-22
-9.44015e-23
1.875e-06
-7.82955e-23
-9.61675e-23
1.875e-06
4.63673e-23
-6.38093e-23
1.875e-06
2.50233e-23
-9.35242e-23
1.875e-06
-1.43271e-23
-2.18846e-22
1.875e-06
-1.58093e-22
-3.53223e-22
-1.3317e-22
-3.95617e-22
1.875e-06
1.37411e-22
5.18324e-22
1.875e-06
4.06429e-23
7.51529e-22
1.875e-06
-1.24524e-22
7.8666e-22
1.875e-06
-1.52887e-22
8.71023e-22
1.875e-06
-4.85621e-23
8.60634e-22
1.875e-06
7.41247e-24
8.84108e-22
1.875e-06
5.70796e-23
7.60061e-22
1.875e-06
-1.87966e-23
5.4095e-22
1.875e-06
-5.2259e-23
6.22741e-22
1.875e-06
1.01405e-22
7.70444e-22
1.875e-06
4.71103e-23
6.373e-22
1.875e-06
4.00047e-24
6.98421e-22
1.875e-06
1.2407e-23
6.35011e-22
1.875e-06
1.48974e-22
5.00469e-22
1.875e-06
-2.19378e-23
4.06861e-22
1.875e-06
-9.74694e-23
2.88866e-22
1.875e-06
-1.17962e-22
1.46254e-22
1.875e-06
-6.67841e-23
-1.32849e-23
1.875e-06
-1.98293e-22
-1.1121e-23
1.875e-06
-1.39376e-22
1.18398e-22
1.875e-06
2.51111e-23
1.80582e-22
1.875e-06
-7.16303e-23
1.92186e-22
1.875e-06
-2.2686e-23
2.90293e-22
1.875e-06
7.49561e-23
2.30821e-22
1.875e-06
7.17174e-23
-2.32541e-24
1.875e-06
1.11178e-22
1.42454e-22
1.875e-06
7.6088e-23
1.38295e-22
1.875e-06
6.92963e-23
-4.6459e-23
1.875e-06
1.82554e-23
9.27852e-23
1.875e-06
-5.23849e-23
-1.75568e-23
1.875e-06
5.72949e-23
4.03955e-23
1.875e-06
-6.74081e-23
-1.79506e-23
1.875e-06
2.07373e-23
-1.4628e-22
1.875e-06
1.61359e-23
-1.86282e-23
1.875e-06
7.53502e-23
-8.38806e-23
1.875e-06
9.69545e-23
-1.29756e-22
1.875e-06
-1.00321e-22
-1.0567e-22
1.875e-06
-1.6873e-22
-2.58132e-22
1.875e-06
-1.50408e-22
-5.08755e-22
-2.25068e-22
-3.7682e-22
1.875e-06
4.92977e-23
4.83686e-22
1.875e-06
-1.2713e-23
7.67072e-22
1.875e-06
9.64367e-24
8.18364e-22
1.875e-06
-9.14721e-24
7.71852e-22
1.875e-06
-2.15147e-22
7.12619e-22
1.875e-06
5.46551e-23
8.74609e-22
1.875e-06
-1.4999e-23
7.65891e-22
1.875e-06
-3.98018e-23
5.95013e-22
1.875e-06
8.8843e-23
6.90054e-22
1.875e-06
-2.31842e-23
7.13889e-22
1.875e-06
-3.50482e-23
7.28438e-22
1.875e-06
3.29605e-23
6.11678e-22
1.875e-06