/*--------------------------------*- C++ -*----------------------------------*\
| =========                 |                                                 |
| \\      /  F ield         | OpenFOAM: The Open Source CFD Toolbox           |
|  \\    /   O peration     | Version:  v2012                                 |
|   \\  /    A nd           | Website:  www.openfoam.com                      |
|    \\/     M anipulation  |                                                 |
\*---------------------------------------------------------------------------*/
FoamFile
{
    version     2.0;
    format      ascii;
    class       volVectorField;
    location    "11";
    object      U;
}
// * * * * * * * * * * * * * * * * * * * * * * * * * * * * * * * * * * * * * //

dimensions      [0 1 -1 0 0 0 0];


internalField   nonuniform List<vector> 
64000
(
(0.003 1.4549e-19 8.49881e-20)
(0.003 2.03946e-19 1.68517e-19)
(0.003 2.52155e-19 3.12105e-19)
(0.003 2.20415e-19 3.11686e-19)
(0.003 3.43812e-19 2.67563e-19)
(0.003 3.88894e-19 2.59106e-19)
(0.003 2.24773e-19 1.86657e-19)
(0.003 2.15768e-20 1.13502e-19)
(0.003 1.16111e-19 1.74122e-19)
(0.003 2.73216e-19 1.80944e-19)
(0.003 2.13308e-19 1.44905e-19)
(0.003 2.0679e-19 2.29004e-19)
(0.003 1.44966e-19 1.78509e-19)
(0.003 1.44306e-19 1.63114e-19)
(0.003 1.24664e-19 2.06488e-19)
(0.003 1.69971e-19 1.84785e-19)
(0.003 1.02666e-19 1.07747e-19)
(0.003 3.46374e-20 6.74006e-20)
(0.003 6.90296e-20 -1.91295e-19)
(0.003 -6.95786e-21 -3.29497e-19)
(0.003 -1.96622e-19 -2.75685e-19)
(0.003 -5.39999e-20 -5.21061e-21)
(0.003 6.87875e-20 5.56327e-20)
(0.003 2.71648e-19 4.22691e-20)
(0.003 2.80267e-19 7.58322e-20)
(0.003 8.21271e-20 8.87326e-20)
(0.003 -4.17581e-20 1.05739e-19)
(0.003 6.69524e-20 9.51345e-20)
(0.003 8.60277e-20 1.23822e-19)
(0.003 -9.44641e-20 2.0469e-19)
(0.003 -2.00882e-19 2.89115e-19)
(0.003 -4.74752e-20 1.1074e-19)
(0.003 9.82708e-20 1.18582e-19)
(0.003 2.77648e-20 7.63749e-20)
(0.003 3.71401e-20 -5.11299e-20)
(0.003 -5.50108e-20 -1.75798e-19)
(0.003 -2.33198e-19 -3.28575e-19)
(0.003 -1.17287e-19 -1.67777e-19)
(0.003 -3.92441e-20 1.06636e-19)
(0.003 -5.48238e-20 6.77458e-20)
(0.003 2.03284e-19 1.846e-19)
(0.003 2.80215e-19 4.49763e-19)
(0.003 4.55663e-19 6.81045e-19)
(0.003 3.34415e-19 5.88647e-19)
(0.003 2.01697e-19 4.19629e-19)
(0.003 3.17312e-19 4.54696e-19)
(0.003 2.75273e-19 3.56365e-19)
(0.003 2.58076e-19 2.37508e-19)
(0.003 1.60441e-19 3.31128e-19)
(0.003 1.26991e-19 4.3029e-19)
(0.003 2.29277e-19 3.74223e-19)
(0.003 2.65874e-19 3.52074e-19)
(0.003 1.03272e-19 3.23692e-19)
(0.003 8.28933e-22 2.939e-19)
(0.003 2.33937e-20 3.0231e-19)
(0.003 2.41432e-20 2.38214e-19)
(0.003 1.85725e-19 1.06735e-19)
(0.003 2.30043e-19 1.86777e-19)
(0.003 2.54067e-19 4.59195e-20)
(0.003 1.93941e-19 -2.09364e-19)
(0.003 1.36679e-20 -1.13958e-19)
(0.003 -2.07175e-19 3.80167e-20)
(0.003 -4.66186e-20 1.73937e-20)
(0.003 1.47558e-19 1.51765e-19)
(0.003 -2.26967e-20 1.23485e-19)
(0.003 -5.1446e-20 1.70415e-20)
(0.003 2.41428e-20 9.84103e-20)
(0.003 4.46572e-20 1.47236e-19)
(0.003 -3.44322e-20 1.69238e-19)
(0.003 -1.34786e-19 9.11559e-20)
(0.003 -2.20067e-19 1.20921e-19)
(0.003 -5.32218e-20 1.76546e-19)
(0.003 -3.04819e-20 2.30591e-19)
(0.003 -9.53025e-20 8.52193e-20)
(0.003 -1.19798e-19 -5.17885e-20)
(0.003 -2.26755e-19 -1.98855e-19)
(0.003 -1.83378e-19 -2.82524e-19)
(0.003 2.64536e-20 -1.63446e-19)
(0.003 9.70429e-20 5.70342e-20)
(0.003 7.92762e-20 1.94027e-20)
(0.003 2.43555e-19 2.93825e-19)
(0.003 3.17599e-19 4.32752e-19)
(0.003 2.50754e-19 6.76782e-19)
(0.003 3.12048e-19 6.75559e-19)
(0.003 2.08246e-19 5.38488e-19)
(0.003 1.77978e-19 5.13493e-19)
(0.003 2.18531e-19 4.25699e-19)
(0.003 2.79428e-19 4.10727e-19)
(0.003 2.37877e-19 4.10099e-19)
(0.003 1.10356e-19 3.62417e-19)
(0.003 8.56122e-20 4.02569e-19)
(0.003 1.15959e-19 4.61143e-19)
(0.003 1.89755e-19 3.0858e-19)
(0.003 1.05242e-19 2.87e-19)
(0.003 3.15677e-20 2.93288e-19)
(0.003 -2.45657e-21 2.3475e-19)
(0.003 9.86456e-20 2.36559e-19)
(0.003 2.12079e-19 1.47142e-19)
(0.003 2.32969e-19 -2.60024e-20)
(0.003 1.43722e-19 -1.25813e-19)
(0.003 -4.69188e-20 4.94382e-20)
(0.003 -1.98911e-19 1.53777e-19)
(0.003 -3.02315e-20 1.34263e-19)
(0.003 1.86298e-20 1.62648e-19)
(0.003 -9.51646e-20 1.03341e-19)
(0.003 -1.20267e-20 1.89965e-20)
(0.003 3.87093e-20 4.30167e-20)
(0.003 -7.27079e-20 1.85501e-19)
(0.003 -5.602e-20 1.79942e-19)
(0.003 8.97917e-22 1.19881e-19)
(0.003 -6.78367e-20 1.72193e-19)
(0.003 -1.79029e-20 2.51284e-19)
(0.003 -3.12127e-20 1.41297e-19)
(0.003 -1.90989e-19 6.82087e-20)
(0.003 -2.24786e-19 6.67874e-20)
(0.003 -1.62791e-19 -1.49877e-19)
(0.003 -2.09872e-20 -2.3258e-19)
(0.003 1.03247e-19 -2.77077e-19)
(0.003 1.73706e-19 -1.29484e-19)
(0.003 1.28662e-19 -7.43756e-20)
(0.003 3.73097e-19 3.76061e-19)
(0.003 3.95965e-19 6.39535e-19)
(0.003 1.9118e-19 6.81001e-19)
(0.003 2.56147e-19 7.16482e-19)
(0.003 2.41055e-19 6.87219e-19)
(0.003 1.36165e-19 6.7681e-19)
(0.003 1.56377e-19 5.14532e-19)
(0.003 1.89513e-19 3.74784e-19)
(0.003 2.08249e-19 4.88152e-19)
(0.003 2.42418e-19 4.71583e-19)
(0.003 1.41505e-19 4.03201e-19)
(0.003 3.81848e-20 4.43634e-19)
(0.003 6.98377e-20 3.79064e-19)
(0.003 2.46945e-20 2.98389e-19)
(0.003 1.69912e-19 3.1645e-19)
(0.003 2.70126e-19 2.85942e-19)
(0.003 1.20895e-19 2.25544e-19)
(0.003 -1.97009e-20 1.55022e-19)
(0.003 -8.96844e-20 -4.87121e-20)
(0.003 -1.20638e-19 -9.77358e-20)
(0.003 -8.84639e-20 1.72973e-19)
(0.003 5.60143e-20 1.49034e-19)
(0.003 1.67227e-19 1.70275e-19)
(0.003 8.3701e-20 2.06692e-19)
(0.003 2.34903e-20 1.14179e-19)
(0.003 -2.92291e-20 3.42396e-20)
(0.003 -3.51886e-20 4.80215e-21)
(0.003 -3.77507e-20 1.07997e-20)
(0.003 2.53379e-20 1.88524e-19)
(0.003 -1.12547e-20 2.14454e-19)
(0.003 -8.94062e-20 9.58366e-20)
(0.003 -1.0159e-19 1.41495e-19)
(0.003 -5.43317e-20 1.40766e-19)
(0.003 -1.14546e-19 5.93463e-20)
(0.003 -7.56324e-20 -2.00348e-21)
(0.003 -1.74803e-21 -1.03237e-19)
(0.003 9.69398e-21 -7.92543e-20)
(0.003 5.74281e-20 -9.7943e-20)
(0.003 1.12369e-19 -1.37454e-19)
(0.003 1.00013e-19 -9.59443e-20)
(0.003 1.43535e-19 4.65757e-19)
(0.003 1.93734e-19 7.68619e-19)
(0.003 1.0982e-19 7.77891e-19)
(0.003 1.01382e-19 7.64537e-19)
(0.003 1.31571e-19 7.95605e-19)
(0.003 5.09272e-20 7.07438e-19)
(0.003 1.01281e-19 5.759e-19)
(0.003 2.14664e-19 4.25209e-19)
(0.003 1.91655e-19 4.39485e-19)
(0.003 1.75024e-19 5.63353e-19)
(0.003 1.46477e-19 5.69497e-19)
(0.003 3.74204e-20 4.26297e-19)
(0.003 7.66537e-22 3.03962e-19)
(0.003 5.97812e-20 2.96971e-19)
(0.003 1.3034e-19 3.76485e-19)
(0.003 2.11476e-19 4.21148e-19)
(0.003 7.02564e-20 2.33965e-19)
(0.003 -2.12406e-19 1.59901e-19)
(0.003 -2.79034e-19 1.00851e-19)
(0.003 -1.63773e-19 -2.58558e-20)
(0.003 -4.32214e-20 -9.02447e-21)
(0.003 1.83253e-19 1.39602e-19)
(0.003 2.86666e-19 2.64029e-19)
(0.003 6.19553e-20 2.20371e-19)
(0.003 1.71282e-20 6.56777e-20)
(0.003 -8.99124e-21 -8.45131e-20)
(0.003 -1.34267e-20 9.33526e-22)
(0.003 3.4891e-20 1.76399e-19)
(0.003 -2.0555e-20 2.48065e-19)
(0.003 -5.47826e-20 1.03177e-19)
(0.003 4.40806e-20 5.5307e-21)
(0.003 1.14069e-20 1.49398e-19)
(0.003 -1.17675e-19 6.12308e-20)
(0.003 -8.97029e-20 -1.35182e-19)
(0.003 -1.83108e-21 -1.24158e-19)
(0.003 6.17619e-21 -7.98845e-20)
(0.003 6.04714e-20 3.95093e-20)
(0.003 1.41054e-19 2.18542e-20)
(0.003 1.17747e-19 2.92232e-20)
(0.003 8.59883e-20 -3.75399e-20)
(0.003 -4.41178e-20 5.50079e-19)
(0.003 7.39809e-20 8.1471e-19)
(0.003 8.68705e-20 8.06156e-19)
(0.003 8.16964e-20 8.57069e-19)
(0.003 8.12463e-20 8.34373e-19)
(0.003 9.97814e-20 6.89808e-19)
(0.003 1.19536e-19 5.94602e-19)
(0.003 2.2878e-19 6.4968e-19)
(0.003 2.28394e-19 5.96324e-19)
(0.003 1.05699e-19 5.18104e-19)
(0.003 6.12265e-20 5.12725e-19)
(0.003 4.79982e-20 4.9716e-19)
(0.003 6.93672e-20 3.4781e-19)
(0.003 1.4833e-19 2.89748e-19)
(0.003 5.31928e-20 4.24961e-19)
(0.003 -1.27917e-19 4.38289e-19)
(0.003 -1.41821e-19 2.24961e-19)
(0.003 -1.68983e-19 1.2925e-19)
(0.003 -3.06375e-19 1.63983e-19)
(0.003 -2.17264e-19 3.8471e-20)
(0.003 2.1069e-20 2.86623e-20)
(0.003 1.72914e-19 1.664e-19)
(0.003 1.51021e-19 2.40178e-19)
(0.003 9.14879e-20 1.86024e-19)
(0.003 1.82646e-19 4.56852e-20)
(0.003 1.6446e-19 -9.04398e-21)
(0.003 4.54008e-20 8.22834e-20)
(0.003 -7.57372e-20 1.29155e-19)
(0.003 -1.51825e-19 1.81051e-19)
(0.003 -1.03695e-20 2.08378e-19)
(0.003 1.67916e-19 1.83193e-19)
(0.003 7.61988e-20 3.69579e-20)
(0.003 -4.68003e-20 -1.0609e-19)
(0.003 -2.12907e-20 -1.7487e-19)
(0.003 -8.23756e-20 -8.02413e-20)
(0.003 -6.85365e-20 -9.1567e-20)
(0.003 7.68683e-21 -1.85956e-20)
(0.003 1.40313e-19 2.63563e-20)
(0.003 2.20871e-19 4.8544e-21)
(0.003 1.62659e-19 -8.34142e-20)
(0.003 3.46135e-21 6.67832e-19)
(0.003 8.88848e-20 9.61453e-19)
(0.003 1.80815e-19 9.03941e-19)
(0.003 1.48486e-19 8.85085e-19)
(0.003 1.57873e-19 8.49889e-19)
(0.003 6.51463e-20 7.36173e-19)
(0.003 1.10502e-19 6.45107e-19)
(0.003 2.01017e-19 6.43674e-19)
(0.003 1.20494e-19 6.61254e-19)
(0.003 9.33459e-20 6.48901e-19)
(0.003 1.30082e-19 6.2746e-19)
(0.003 1.08498e-19 4.77012e-19)
(0.003 8.09973e-20 2.94094e-19)
(0.003 1.11528e-19 2.61371e-19)
(0.003 2.41906e-20 4.14934e-19)
(0.003 -8.44529e-20 4.40641e-19)
(0.003 -1.40217e-19 2.02921e-19)
(0.003 -1.41683e-19 1.37464e-19)
(0.003 -2.15648e-19 1.00659e-19)
(0.003 -2.11571e-19 3.57509e-20)
(0.003 4.65851e-20 9.30053e-20)
(0.003 1.91893e-19 2.15465e-19)
(0.003 1.12258e-19 2.544e-19)
(0.003 8.30149e-20 2.45606e-19)
(0.003 9.02236e-20 2.22317e-19)
(0.003 8.04507e-20 6.15447e-20)
(0.003 -1.9972e-20 4.9429e-20)
(0.003 -1.29687e-19 1.32607e-19)
(0.003 -1.69939e-19 1.20416e-19)
(0.003 -4.99406e-20 9.23775e-20)
(0.003 1.60252e-19 6.86074e-20)
(0.003 1.65894e-19 4.23288e-20)
(0.003 1.5071e-19 -4.86951e-20)
(0.003 1.77863e-19 -7.2182e-20)
(0.003 2.83512e-20 -7.25888e-20)
(0.003 -1.39535e-20 -1.12705e-19)
(0.003 -1.96503e-20 -1.22489e-19)
(0.003 2.07188e-20 1.26648e-21)
(0.003 6.88763e-20 -2.33878e-20)
(0.003 7.40246e-20 -2.47841e-19)
(0.003 2.05527e-19 5.54189e-19)
(0.003 1.66844e-19 8.79378e-19)
(0.003 2.18412e-19 9.77351e-19)
(0.003 1.9984e-19 9.97858e-19)
(0.003 1.0918e-19 9.31406e-19)
(0.003 1.04819e-19 7.69229e-19)
(0.003 1.62759e-19 7.47008e-19)
(0.003 9.60827e-20 7.77729e-19)
(0.003 4.58793e-20 7.31375e-19)
(0.003 1.59005e-19 6.12167e-19)
(0.003 1.46431e-19 6.26572e-19)
(0.003 1.3069e-19 5.20083e-19)
(0.003 4.85634e-20 3.26147e-19)
(0.003 3.68798e-20 2.77613e-19)
(0.003 1.81478e-20 3.83851e-19)
(0.003 3.85829e-20 3.54893e-19)
(0.003 5.73013e-20 1.25487e-19)
(0.003 -3.17832e-20 8.64759e-20)
(0.003 -1.64913e-20 1.6836e-19)
(0.003 -4.78659e-20 1.01703e-19)
(0.003 1.35338e-20 1.10887e-19)
(0.003 1.61511e-19 2.69846e-19)
(0.003 4.23885e-20 3.21389e-19)
(0.003 -7.21426e-22 2.77696e-19)
(0.003 -3.48345e-20 2.8008e-19)
(0.003 7.46156e-20 9.75513e-20)
(0.003 -4.5302e-20 9.30692e-21)
(0.003 -1.49272e-19 1.07339e-19)
(0.003 -1.21018e-19 1.24938e-19)
(0.003 -1.52297e-20 1.17265e-19)
(0.003 -5.43665e-20 1.93316e-19)
(0.003 3.52295e-20 1.2185e-19)
(0.003 3.23624e-19 6.20348e-21)
(0.003 2.96745e-19 -3.55645e-20)
(0.003 1.43437e-19 -1.2721e-19)
(0.003 -9.90931e-21 -2.49423e-19)
(0.003 -5.44335e-20 -2.9169e-19)
(0.003 -2.94276e-21 -3.96112e-20)
(0.003 -9.66442e-20 -3.25329e-20)
(0.003 -1.25845e-19 -2.09277e-19)
(0.003 4.2549e-20 5.62887e-19)
(0.003 1.27972e-19 1.01274e-18)
(0.003 1.36176e-19 1.093e-18)
(0.003 1.77953e-19 1.07467e-18)
(0.003 1.70479e-19 8.99055e-19)
(0.003 1.94296e-19 7.98573e-19)
(0.003 1.67701e-19 8.46273e-19)
(0.003 5.62751e-20 7.61377e-19)
(0.003 -7.17809e-22 7.09635e-19)
(0.003 4.86427e-20 7.45425e-19)
(0.003 6.56821e-20 6.48268e-19)
(0.003 2.27677e-20 5.34637e-19)
(0.003 6.92372e-21 3.61904e-19)
(0.003 -1.09842e-22 3.58298e-19)
(0.003 4.91594e-20 3.51051e-19)
(0.003 9.01062e-20 3.22609e-19)
(0.003 1.27177e-19 2.04115e-19)
(0.003 9.24443e-20 1.22916e-19)
(0.003 8.23558e-20 1.54522e-19)
(0.003 1.6781e-21 9.22411e-20)
(0.003 -1.89565e-20 1.07748e-19)
(0.003 7.97835e-20 3.09535e-19)
(0.003 5.59151e-20 3.54911e-19)
(0.003 7.0121e-20 3.75278e-19)
(0.003 2.13662e-20 3.17463e-19)
(0.003 -5.37399e-20 1.55869e-19)
(0.003 -4.71048e-20 5.01425e-20)
(0.003 -6.22278e-20 7.77716e-21)
(0.003 1.01687e-19 5.19843e-20)
(0.003 4.87101e-20 2.72914e-20)
(0.003 -1.6621e-19 5.48702e-20)
(0.003 -7.53702e-20 1.20302e-19)
(0.003 6.74471e-20 1.35083e-19)
(0.003 1.49905e-19 -3.97103e-20)
(0.003 1.92034e-19 -1.82104e-19)
(0.003 1.14596e-19 -3.72402e-19)
(0.003 2.09892e-20 -3.19133e-19)
(0.003 -1.53074e-19 1.8765e-21)
(0.003 -2.44824e-19 -2.75246e-20)
(0.003 -1.88573e-19 -1.58441e-19)
(0.003 -2.15099e-19 6.91948e-19)
(0.003 1.09998e-20 9.61689e-19)
(0.003 1.68531e-19 1.10863e-18)
(0.003 2.42161e-19 1.11468e-18)
(0.003 2.28754e-19 1.02185e-18)
(0.003 2.18473e-19 9.16542e-19)
(0.003 2.60575e-19 8.9683e-19)
(0.003 1.41743e-19 8.31238e-19)
(0.003 9.7485e-20 7.03582e-19)
(0.003 5.56027e-20 6.74903e-19)
(0.003 -3.58274e-20 6.36723e-19)
(0.003 -1.06325e-19 5.11916e-19)
(0.003 -5.08231e-21 3.93583e-19)
(0.003 -1.75715e-20 3.66274e-19)
(0.003 4.77379e-20 4.16575e-19)
(0.003 3.53341e-20 4.06175e-19)
(0.003 2.34867e-20 2.58645e-19)
(0.003 1.29615e-19 1.22799e-19)
(0.003 2.75545e-20 6.38301e-20)
(0.003 8.83584e-20 2.07293e-20)
(0.003 1.35892e-19 1.91197e-19)
(0.003 1.2248e-19 3.40922e-19)
(0.003 2.6563e-20 3.80171e-19)
(0.003 6.59831e-21 4.45105e-19)
(0.003 1.09681e-19 3.59694e-19)
(0.003 1.54768e-20 1.66932e-19)
(0.003 -1.57102e-20 3.61179e-20)
(0.003 1.52211e-20 2.75985e-20)
(0.003 1.18013e-19 8.63949e-20)
(0.003 -9.48382e-21 6.34262e-20)
(0.003 -6.68083e-20 -9.62033e-22)
(0.003 -8.18954e-20 4.48274e-20)
(0.003 -2.14832e-19 6.52313e-20)
(0.003 -1.56394e-19 -1.91021e-21)
(0.003 1.26897e-19 -1.47688e-19)
(0.003 2.48963e-19 -3.43422e-19)
(0.003 3.99073e-20 -4.2124e-19)
(0.003 -3.04075e-19 -2.0297e-19)
(0.003 -3.13842e-19 -7.96401e-20)
(0.003 -2.06579e-19 -9.72723e-20)
(0.003 7.16485e-20 7.0108e-19)
(0.003 1.8465e-19 1.08346e-18)
(0.003 2.17057e-19 1.21542e-18)
(0.003 2.21181e-19 1.22137e-18)
(0.003 1.62178e-19 1.03028e-18)
(0.003 2.30499e-19 9.26561e-19)
(0.003 2.57526e-19 9.68445e-19)
(0.003 1.24303e-19 8.57953e-19)
(0.003 7.30801e-20 7.50772e-19)
(0.003 7.19745e-20 7.10884e-19)
(0.003 8.17579e-20 6.19948e-19)
(0.003 -1.12431e-20 5.18201e-19)
(0.003 7.74747e-20 3.83433e-19)
(0.003 1.17035e-19 3.06595e-19)
(0.003 3.87848e-21 4.2892e-19)
(0.003 -2.12199e-20 4.70292e-19)
(0.003 -2.67831e-20 3.58588e-19)
(0.003 1.30615e-20 2.1366e-19)
(0.003 2.69842e-20 1.86082e-20)
(0.003 1.25793e-19 -6.6342e-20)
(0.003 2.80766e-19 1.74492e-19)
(0.003 1.41303e-19 4.05892e-19)
(0.003 -2.51415e-20 3.63654e-19)
(0.003 5.41429e-21 4.29109e-19)
(0.003 2.77617e-20 4.00644e-19)
(0.003 -5.20126e-20 1.46538e-19)
(0.003 -4.42049e-20 6.36607e-20)
(0.003 9.03983e-20 1.00959e-19)
(0.003 4.25206e-20 6.1214e-20)
(0.003 -8.34527e-20 4.21531e-20)
(0.003 -7.58054e-20 -4.43904e-20)
(0.003 -4.6595e-20 -1.98117e-20)
(0.003 -2.04566e-19 -5.51735e-20)
(0.003 -2.70004e-19 -7.25076e-20)
(0.003 3.38457e-20 -1.5264e-19)
(0.003 1.39822e-19 -2.7172e-19)
(0.003 -6.29619e-20 -4.11717e-19)
(0.003 -1.98035e-19 -2.92806e-19)
(0.003 -1.47956e-19 -3.63633e-20)
(0.003 -3.4627e-20 8.26723e-20)
(0.003 1.97647e-19 7.99955e-19)
(0.003 2.62235e-19 1.24159e-18)
(0.003 2.38609e-19 1.27011e-18)
(0.003 1.27075e-19 1.15817e-18)
(0.003 1.51293e-19 1.09652e-18)
(0.003 2.08089e-19 1.03827e-18)
(0.003 1.48662e-19 9.45894e-19)
(0.003 8.19339e-20 7.96041e-19)
(0.003 5.68611e-20 6.84222e-19)
(0.003 5.45425e-20 7.28665e-19)
(0.003 8.74195e-20 7.13451e-19)
(0.003 4.1316e-20 5.61108e-19)
(0.003 7.46206e-20 4.79053e-19)
(0.003 1.51293e-19 3.69542e-19)
(0.003 3.3728e-20 3.95567e-19)
(0.003 -9.37031e-20 4.60227e-19)
(0.003 -7.50404e-20 4.03766e-19)
(0.003 4.59778e-20 2.27743e-19)
(0.003 2.51659e-19 1.18086e-19)
(0.003 2.7651e-19 5.13703e-20)
(0.003 7.64702e-20 1.8569e-19)
(0.003 -1.28523e-19 3.42035e-19)
(0.003 -7.80553e-20 3.65427e-19)
(0.003 -1.29614e-20 3.89636e-19)
(0.003 -9.32919e-20 3.98977e-19)
(0.003 -1.65169e-19 1.53004e-19)
(0.003 -9.81631e-20 1.01703e-19)
(0.003 6.68787e-20 1.90592e-19)
(0.003 4.20486e-20 -4.97917e-22)
(0.003 -1.56095e-22 -2.98779e-20)
(0.003 2.07446e-20 -8.98143e-20)
(0.003 -1.314e-19 -1.36479e-19)
(0.003 -1.07516e-19 1.73624e-20)
(0.003 -2.82093e-20 1.7303e-20)
(0.003 -6.59181e-20 -3.52755e-20)
(0.003 -7.41924e-20 -2.60786e-19)
(0.003 6.05281e-20 -5.14824e-19)
(0.003 1.43396e-19 -2.89726e-19)
(0.003 1.53641e-19 -1.46596e-20)
(0.003 1.03323e-19 9.86193e-21)
(0.003 2.13777e-19 8.57654e-19)
(0.003 2.3538e-19 1.22081e-18)
(0.003 2.01892e-19 1.21215e-18)
(0.003 1.17033e-19 1.18494e-18)
(0.003 1.19128e-19 1.17105e-18)
(0.003 1.04864e-19 1.09693e-18)
(0.003 2.80382e-20 9.34642e-19)
(0.003 4.89969e-20 7.92201e-19)
(0.003 1.94509e-19 7.68898e-19)
(0.003 2.42325e-19 7.7803e-19)
(0.003 7.42494e-20 7.22725e-19)
(0.003 -3.33568e-21 5.39731e-19)
(0.003 4.49668e-20 4.86352e-19)
(0.003 1.57236e-19 4.42049e-19)
(0.003 1.93816e-20 4.29384e-19)
(0.003 -5.19102e-20 4.48817e-19)
(0.003 -1.043e-19 3.56535e-19)
(0.003 -1.23955e-19 2.23367e-19)
(0.003 3.85916e-20 2.1072e-19)
(0.003 1.95175e-19 1.58625e-19)
(0.003 1.17664e-19 2.03829e-19)
(0.003 7.65815e-21 2.95459e-19)
(0.003 1.44927e-20 3.0778e-19)
(0.003 -8.31697e-21 3.55216e-19)
(0.003 -1.71342e-19 3.74718e-19)
(0.003 -1.4579e-19 1.98264e-19)
(0.003 -8.88311e-20 1.50512e-19)
(0.003 3.5579e-20 1.32377e-19)
(0.003 8.87472e-20 -5.31348e-20)
(0.003 1.14641e-19 -1.47024e-19)
(0.003 4.12441e-20 -1.34733e-19)
(0.003 -2.31402e-19 -2.03127e-19)
(0.003 -1.50965e-19 -1.16666e-20)
(0.003 -3.37395e-20 1.46501e-19)
(0.003 -2.46402e-20 6.37395e-20)
(0.003 2.62214e-20 -2.43431e-19)
(0.003 1.83181e-19 -3.35007e-19)
(0.003 2.46503e-19 -1.48306e-19)
(0.003 2.17907e-19 -1.32499e-21)
(0.003 6.75264e-20 -5.73108e-20)
(0.003 4.09963e-20 9.36549e-19)
(0.003 1.81837e-19 1.30307e-18)
(0.003 2.25881e-19 1.2694e-18)
(0.003 5.87592e-20 1.21182e-18)
(0.003 -7.7311e-20 1.16247e-18)
(0.003 -7.34222e-20 1.12292e-18)
(0.003 5.60967e-20 9.78264e-19)
(0.003 1.86024e-19 7.73832e-19)
(0.003 1.78729e-19 7.68159e-19)
(0.003 1.44534e-19 8.73243e-19)
(0.003 1.10514e-19 7.78253e-19)
(0.003 1.28106e-19 5.56027e-19)
(0.003 4.58388e-20 5.64216e-19)
(0.003 -4.93755e-20 5.28731e-19)
(0.003 -8.24886e-20 4.19988e-19)
(0.003 -7.01108e-20 3.73865e-19)
(0.003 -5.73214e-20 3.06385e-19)
(0.003 6.70564e-21 2.23833e-19)
(0.003 5.33631e-20 1.47785e-19)
(0.003 8.9505e-20 1.84857e-19)
(0.003 1.76627e-19 2.85031e-19)
(0.003 9.99216e-20 3.61052e-19)
(0.003 6.82993e-20 3.79673e-19)
(0.003 2.22675e-21 4.53592e-19)
(0.003 -2.04724e-19 3.22568e-19)
(0.003 -1.25378e-19 9.35027e-20)
(0.003 -9.82384e-21 5.9383e-20)
(0.003 -4.00489e-20 1.40195e-19)
(0.003 2.12209e-20 -8.65769e-20)
(0.003 1.3075e-19 -2.7777e-19)
(0.003 1.33689e-19 -1.89178e-19)
(0.003 -5.19842e-20 -1.39765e-19)
(0.003 -2.06595e-19 -7.73709e-20)
(0.003 -1.85741e-19 3.93933e-20)
(0.003 -1.0009e-19 1.12202e-19)
(0.003 1.25306e-19 -1.12857e-19)
(0.003 2.11034e-19 -2.73626e-19)
(0.003 2.38652e-19 -8.37986e-20)
(0.003 1.18217e-19 -7.62602e-20)
(0.003 -9.61964e-20 -3.13365e-19)
(0.003 -1.11583e-19 9.33748e-19)
(0.003 -6.59198e-20 1.34828e-18)
(0.003 5.8684e-20 1.37142e-18)
(0.003 4.78162e-20 1.13841e-18)
(0.003 5.57361e-20 1.09524e-18)
(0.003 -1.62367e-20 1.11947e-18)
(0.003 6.80941e-20 1.06614e-18)
(0.003 1.93447e-19 9.11747e-19)
(0.003 6.74789e-20 8.17763e-19)
(0.003 -1.21501e-19 8.80022e-19)
(0.003 6.69879e-20 7.87846e-19)
(0.003 1.78913e-19 6.07692e-19)
(0.003 -2.06037e-20 5.87135e-19)
(0.003 -1.71639e-19 5.18719e-19)
(0.003 -9.40144e-20 3.72668e-19)
(0.003 -8.13986e-20 3.73048e-19)
(0.003 -1.36335e-20 2.81175e-19)
(0.003 1.08367e-19 1.77162e-19)
(0.003 4.08368e-20 1.98077e-19)
(0.003 6.84279e-20 2.44675e-19)
(0.003 1.91014e-19 3.88888e-19)
(0.003 1.10065e-19 3.74197e-19)
(0.003 -3.74227e-20 4.28443e-19)
(0.003 -1.94426e-19 4.36001e-19)
(0.003 -1.32261e-19 2.52388e-19)
(0.003 3.19765e-20 1.32424e-19)
(0.003 7.04928e-20 -1.08972e-20)
(0.003 -8.54727e-20 -5.03468e-20)
(0.003 -1.3337e-19 -1.21565e-19)
(0.003 8.77122e-20 -1.87189e-19)
(0.003 2.32993e-19 -4.68588e-20)
(0.003 1.1653e-19 -1.4026e-19)
(0.003 -1.17659e-19 -2.63795e-19)
(0.003 -2.14985e-19 -1.4305e-19)
(0.003 -1.70939e-19 1.72976e-19)
(0.003 2.5151e-20 1.3345e-19)
(0.003 2.10529e-19 -1.56085e-19)
(0.003 2.81603e-19 -2.59151e-19)
(0.003 1.89368e-19 -2.49268e-19)
(0.003 1.5854e-19 -3.6579e-19)
(0.003 -1.0997e-19 8.7994e-19)
(0.003 -2.14021e-19 1.30336e-18)
(0.003 -7.84307e-20 1.41112e-18)
(0.003 1.21294e-20 1.23043e-18)
(0.003 5.45597e-20 1.18249e-18)
(0.003 4.42701e-20 1.17709e-18)
(0.003 5.91461e-20 1.08015e-18)
(0.003 1.08732e-19 9.6806e-19)
(0.003 -3.18558e-20 8.54945e-19)
(0.003 -7.75752e-20 7.73994e-19)
(0.003 3.32213e-20 8.0301e-19)
(0.003 4.26237e-20 7.92005e-19)
(0.003 -6.91682e-20 7.18728e-19)
(0.003 -9.77238e-20 5.03675e-19)
(0.003 -4.91741e-20 3.69568e-19)
(0.003 -4.95601e-20 3.75249e-19)
(0.003 -2.09863e-20 2.84914e-19)
(0.003 -5.49377e-20 1.64419e-19)
(0.003 2.87732e-20 1.54468e-19)
(0.003 1.55149e-19 2.36128e-19)
(0.003 1.12878e-19 3.69381e-19)
(0.003 1.20098e-19 4.57741e-19)
(0.003 -2.20999e-20 4.96522e-19)
(0.003 -2.05705e-19 3.8581e-19)
(0.003 -7.65279e-20 1.45363e-19)
(0.003 -2.91583e-20 1.56533e-19)
(0.003 -1.38524e-20 -2.70791e-21)
(0.003 -1.48084e-19 -2.08416e-19)
(0.003 -1.66285e-19 -9.71495e-20)
(0.003 4.60343e-20 -6.14828e-20)
(0.003 2.30007e-19 -1.32063e-20)
(0.003 1.71237e-19 -2.74112e-19)
(0.003 4.29761e-21 -4.44473e-19)
(0.003 -6.37005e-20 -1.81767e-19)
(0.003 -5.11548e-20 1.96946e-19)
(0.003 -6.05861e-20 2.76541e-19)
(0.003 7.7484e-20 5.99874e-20)
(0.003 2.07204e-19 -2.30059e-19)
(0.003 1.86156e-19 -2.80375e-19)
(0.003 2.63289e-19 -3.49772e-19)
(0.003 -1.21383e-19 7.99315e-19)
(0.003 -1.65001e-19 1.22475e-18)
(0.003 -1.97277e-20 1.37385e-18)
(0.003 -2.45047e-20 1.27155e-18)
(0.003 -6.89017e-20 1.20182e-18)
(0.003 -1.27542e-21 1.18564e-18)
(0.003 4.06501e-20 1.13451e-18)
(0.003 9.11594e-21 9.93305e-19)
(0.003 -4.37697e-20 8.7023e-19)
(0.003 3.14206e-20 8.58089e-19)
(0.003 -1.83479e-20 8.65208e-19)
(0.003 -7.19277e-20 8.06222e-19)
(0.003 -1.39374e-19 6.86079e-19)
(0.003 -1.5939e-20 5.6945e-19)
(0.003 -1.90744e-21 3.36163e-19)
(0.003 -7.87642e-20 2.79675e-19)
(0.003 7.56311e-21 2.51028e-19)
(0.003 -2.06237e-21 2.13195e-19)
(0.003 4.22865e-20 2.8507e-19)
(0.003 2.05737e-19 2.95014e-19)
(0.003 1.51475e-19 3.60893e-19)
(0.003 6.95768e-20 3.43279e-19)
(0.003 -8.6208e-20 3.67197e-19)
(0.003 -1.79652e-19 2.83217e-19)
(0.003 -7.30693e-20 1.4762e-19)
(0.003 -4.54863e-20 1.5261e-19)
(0.003 -1.10445e-19 -1.51704e-20)
(0.003 -1.79195e-19 -1.45321e-19)
(0.003 -1.38546e-19 1.92871e-20)
(0.003 -7.41163e-20 8.13145e-20)
(0.003 -2.69477e-21 -1.19125e-20)
(0.003 1.6348e-19 -3.02471e-19)
(0.003 2.02913e-19 -4.05952e-19)
(0.003 1.81389e-19 -1.70231e-19)
(0.003 1.65496e-19 1.14842e-19)
(0.003 1.7578e-20 1.63198e-19)
(0.003 -5.51468e-20 6.12448e-20)
(0.003 -7.04564e-20 -7.08619e-20)
(0.003 -4.74943e-20 -2.5661e-19)
(0.003 8.83049e-20 -3.08359e-19)
(0.003 -1.47238e-19 7.35638e-19)
(0.003 -1.85379e-19 1.29094e-18)
(0.003 -1.58823e-19 1.54067e-18)
(0.003 -1.65447e-20 1.31367e-18)
(0.003 1.07277e-19 1.1549e-18)
(0.003 2.44767e-20 1.16552e-18)
(0.003 -1.00177e-19 1.11688e-18)
(0.003 -1.89896e-19 9.79204e-19)
(0.003 -7.56054e-20 8.96414e-19)
(0.003 9.39788e-21 8.80534e-19)
(0.003 -2.28342e-20 8.79855e-19)
(0.003 2.10913e-20 8.08444e-19)
(0.003 3.53903e-20 6.68639e-19)
(0.003 -9.13421e-21 5.99608e-19)
(0.003 3.21182e-20 4.02578e-19)
(0.003 -6.02223e-21 3.3033e-19)
(0.003 -6.44625e-21 3.00914e-19)
(0.003 1.4526e-19 1.12837e-19)
(0.003 2.24329e-19 7.35161e-20)
(0.003 1.65963e-19 2.55979e-19)
(0.003 -7.16824e-20 3.89841e-19)
(0.003 -1.44004e-19 5.36446e-19)
(0.003 -6.8318e-20 3.88644e-19)
(0.003 -2.42012e-20 1.88365e-19)
(0.003 -1.47751e-19 1.00694e-19)
(0.003 -1.28768e-19 1.40661e-19)
(0.003 -1.08973e-19 5.52864e-20)
(0.003 -1.76018e-19 -1.03911e-19)
(0.003 -6.10367e-20 4.37994e-20)
(0.003 -5.94725e-20 5.70886e-20)
(0.003 -7.03124e-20 3.64674e-21)
(0.003 7.75563e-20 -1.52866e-19)
(0.003 1.99442e-19 -2.45467e-19)
(0.003 2.08961e-19 -1.63786e-19)
(0.003 1.57295e-19 5.80434e-20)
(0.003 7.2644e-20 1.29065e-19)
(0.003 -1.4587e-20 -1.30952e-20)
(0.003 -1.6987e-19 -1.49096e-19)
(0.003 -1.39122e-19 -2.9958e-19)
(0.003 -9.26509e-20 -3.03702e-19)
(0.003 -1.04418e-19 7.06869e-19)
(0.003 -2.24868e-19 1.2198e-18)
(0.003 -2.52081e-19 1.42068e-18)
(0.003 -1.52936e-20 1.37729e-18)
(0.003 9.22836e-20 1.24891e-18)
(0.003 -1.39922e-20 1.16047e-18)
(0.003 -1.42586e-19 1.08864e-18)
(0.003 -2.00088e-19 9.69968e-19)
(0.003 -6.75889e-20 9.10015e-19)
(0.003 -4.34008e-20 9.46205e-19)
(0.003 -3.72842e-20 8.6539e-19)
(0.003 1.17456e-19 7.74627e-19)
(0.003 1.53131e-19 7.03162e-19)
(0.003 5.26023e-20 6.06637e-19)
(0.003 6.22701e-20 4.14573e-19)
(0.003 1.59928e-20 3.41451e-19)
(0.003 -6.52349e-20 3.31945e-19)
(0.003 4.75557e-20 1.81354e-19)
(0.003 2.49028e-19 1.37183e-19)
(0.003 6.95582e-20 2.08599e-19)
(0.003 -1.45646e-19 2.6123e-19)
(0.003 -1.81062e-19 4.11946e-19)
(0.003 -7.30101e-20 4.70857e-19)
(0.003 -7.59722e-20 2.4313e-19)
(0.003 -3.87043e-20 7.48098e-21)
(0.003 -7.42454e-20 4.4681e-20)
(0.003 4.45578e-20 4.98736e-20)
(0.003 4.25053e-20 3.19475e-21)
(0.003 -1.19141e-19 1.88735e-20)
(0.003 4.31088e-21 2.16938e-20)
(0.003 -8.98071e-20 1.35695e-19)
(0.003 -9.00866e-20 1.18683e-20)
(0.003 -3.23558e-20 -1.88183e-19)
(0.003 4.59484e-20 -9.9157e-20)
(0.003 1.46076e-19 6.90606e-21)
(0.003 5.87812e-20 -9.09898e-20)
(0.003 4.19076e-20 -4.71353e-20)
(0.003 -5.89393e-20 -1.65086e-19)
(0.003 -5.68029e-20 -4.01995e-19)
(0.003 1.85467e-20 -3.61261e-19)
(0.003 4.15793e-20 7.44943e-19)
(0.003 4.95841e-20 1.19333e-18)
(0.003 -7.23268e-20 1.34168e-18)
(0.003 -1.60017e-19 1.34034e-18)
(0.003 -9.47764e-20 1.26619e-18)
(0.003 -1.18365e-19 1.16722e-18)
(0.003 -1.53828e-19 1.03845e-18)
(0.003 -1.62859e-19 9.32816e-19)
(0.003 -1.19387e-19 9.65716e-19)
(0.003 6.16543e-20 9.37481e-19)
(0.003 1.86018e-19 8.40702e-19)
(0.003 1.87231e-19 8.40716e-19)
(0.003 2.0101e-19 7.13972e-19)
(0.003 1.02344e-19 5.84457e-19)
(0.003 -1.20387e-20 5.00368e-19)
(0.003 -4.73353e-20 3.62722e-19)
(0.003 -1.55811e-19 1.3816e-19)
(0.003 -1.46714e-19 5.76707e-20)
(0.003 9.90095e-22 2.03932e-19)
(0.003 -1.45176e-19 2.10788e-19)
(0.003 -1.36769e-19 2.18866e-19)
(0.003 -1.37379e-20 4.41364e-19)
(0.003 -3.41438e-20 4.73419e-19)
(0.003 3.60514e-21 1.73057e-19)
(0.003 1.14844e-19 1.46837e-20)
(0.003 2.00263e-20 1.41966e-20)
(0.003 3.36958e-20 9.24133e-20)
(0.003 1.42827e-19 8.47334e-21)
(0.003 9.36003e-20 5.56312e-21)
(0.003 1.87038e-20 8.95719e-20)
(0.003 -9.57291e-20 1.44362e-19)
(0.003 -1.50154e-19 5.33134e-20)
(0.003 -2.00274e-19 -1.94357e-19)
(0.003 -1.11192e-19 -1.72893e-19)
(0.003 -1.48835e-20 -1.06165e-19)
(0.003 1.51365e-19 -5.34239e-20)
(0.003 1.33445e-19 -1.24155e-19)
(0.003 -6.30044e-20 -3.44947e-19)
(0.003 -1.71146e-19 -5.28745e-19)
(0.003 -1.16953e-19 -4.47773e-19)
(0.003 1.98493e-19 7.28182e-19)
(0.003 1.30402e-19 1.14148e-18)
(0.003 -1.43839e-19 1.29654e-18)
(0.003 -2.19174e-19 1.27788e-18)
(0.003 -1.08188e-19 1.27033e-18)
(0.003 -4.9744e-20 1.17911e-18)
(0.003 -4.17393e-20 1.01149e-18)
(0.003 -1.00058e-19 7.80956e-19)
(0.003 -1.25705e-19 8.13888e-19)
(0.003 1.0455e-19 1.05272e-18)
(0.003 2.97939e-19 1.1368e-18)
(0.003 1.25133e-19 9.53491e-19)
(0.003 4.30021e-20 7.1868e-19)
(0.003 1.2655e-19 5.08257e-19)
(0.003 -2.16835e-20 4.39818e-19)
(0.003 -1.40976e-19 3.10911e-19)
(0.003 -1.62796e-19 1.43547e-19)
(0.003 -1.2865e-19 5.4619e-20)
(0.003 -1.95403e-19 2.0013e-19)
(0.003 -1.64354e-19 2.19333e-19)
(0.003 -3.7971e-20 2.33424e-19)
(0.003 -7.0286e-20 3.45662e-19)
(0.003 -6.8191e-20 4.08133e-19)
(0.003 9.36342e-20 2.39898e-19)
(0.003 1.84417e-19 3.34009e-20)
(0.003 1.14916e-19 7.91716e-21)
(0.003 -4.72717e-20 6.30566e-20)
(0.003 9.41144e-20 -2.20008e-20)
(0.003 9.20515e-20 5.29856e-20)
(0.003 3.82603e-21 3.5836e-20)
(0.003 2.72473e-20 9.66416e-20)
(0.003 -1.10632e-19 1.45036e-20)
(0.003 -1.47347e-20 -2.17099e-19)
(0.003 -2.3755e-20 -1.6535e-19)
(0.003 -1.0305e-19 -1.70106e-19)
(0.003 1.44681e-19 -9.66797e-20)
(0.003 4.58932e-20 -5.86838e-20)
(0.003 -1.58077e-19 -3.55128e-19)
(0.003 -2.76063e-19 -6.34253e-19)
(0.003 -2.79788e-19 -5.38127e-19)
(0.003 1.67697e-19 7.76791e-19)
(0.003 3.82655e-20 1.16402e-18)
(0.003 -1.22354e-19 1.18556e-18)
(0.003 -1.56908e-19 1.14698e-18)
(0.003 -1.9092e-19 1.2102e-18)
(0.003 1.19127e-20 1.13659e-18)
(0.003 -2.65082e-20 1.05932e-18)
(0.003 -7.03404e-22 9.01307e-19)
(0.003 1.11792e-19 8.45533e-19)
(0.003 1.24976e-19 1.00964e-18)
(0.003 3.53483e-20 1.08558e-18)
(0.003 -8.98521e-21 8.48245e-19)
(0.003 3.93379e-20 6.83265e-19)
(0.003 -3.68212e-20 6.07977e-19)
(0.003 -9.95266e-20 4.39753e-19)
(0.003 -8.04541e-20 2.87823e-19)
(0.003 -1.50819e-19 8.98321e-20)
(0.003 -2.19575e-19 4.28791e-20)
(0.003 -3.36289e-19 1.31735e-19)
(0.003 -1.39003e-19 1.59197e-19)
(0.003 -2.53711e-20 3.66157e-19)
(0.003 -1.24885e-19 3.91997e-19)
(0.003 1.89503e-20 3.0723e-19)
(0.003 2.32546e-19 1.96554e-19)
(0.003 1.98686e-19 5.14355e-20)
(0.003 1.58587e-19 3.01946e-20)
(0.003 4.08288e-20 -2.01638e-20)
(0.003 4.67659e-20 -1.46503e-20)
(0.003 2.32548e-20 2.72705e-20)
(0.003 -1.93338e-20 2.13239e-20)
(0.003 1.45774e-19 3.39386e-20)
(0.003 2.02584e-19 2.32188e-20)
(0.003 1.80636e-19 -1.14512e-19)
(0.003 4.39848e-20 -1.93677e-19)
(0.003 -8.89753e-20 -1.51188e-19)
(0.003 -8.68935e-20 -1.06272e-19)
(0.003 -2.19496e-19 -1.65763e-19)
(0.003 -3.11189e-19 -3.42372e-19)
(0.003 -2.22536e-19 -3.24272e-19)
(0.003 -1.55386e-19 -1.42597e-19)
(0.003 -9.92943e-20 7.7119e-19)
(0.003 -1.14988e-19 1.18575e-18)
(0.003 -2.22776e-20 1.20622e-18)
(0.003 -7.27052e-20 1.11905e-18)
(0.003 -2.04014e-19 1.13022e-18)
(0.003 -7.1095e-20 1.16995e-18)
(0.003 5.92184e-21 1.00076e-18)
(0.003 1.48242e-19 7.23846e-19)
(0.003 9.35281e-20 7.81184e-19)
(0.003 -9.97526e-20 1.0123e-18)
(0.003 -1.46637e-19 1.02991e-18)
(0.003 -2.90856e-20 9.42774e-19)
(0.003 -4.90966e-20 7.78353e-19)
(0.003 -1.13884e-19 4.99717e-19)
(0.003 1.62941e-21 3.06935e-19)
(0.003 1.54157e-20 2.55645e-19)
(0.003 -4.98511e-20 8.92862e-20)
(0.003 -1.73175e-19 -1.85868e-20)