/*--------------------------------*- C++ -*----------------------------------*\
| =========                 |                                                 |
| \\      /  F ield         | OpenFOAM: The Open Source CFD Toolbox           |
|  \\    /   O peration     | Version:  v2012                                 |
|   \\  /    A nd           | Website:  www.openfoam.com                      |
|    \\/     M anipulation  |                                                 |
\*---------------------------------------------------------------------------*/
FoamFile
{
    version     2.0;
    format      ascii;
    class       surfaceScalarField;
    location    "250/topAir";
    object      phi;
}
// * * * * * * * * * * * * * * * * * * * * * * * * * * * * * * * * * * * * * //

dimensions      [1 0 -1 0 0 0 0];
oriented        oriented;


internalField   nonuniform List<scalar> 
3140
(
9.4667501e-06
-2.7145388e-07
7.3730498e-08
9.6306356e-06
-2.4902309e-07
8.5238302e-08
9.7934796e-06
-2.3911002e-07
7.6400966e-08
9.928348e-06
-1.9516731e-07
6.0456148e-08
1.0027921e-05
-1.3858554e-07
3.9189437e-08
1.0099376e-05
-8.413282e-08
1.28715e-08
1.0165109e-05
-3.6629963e-08
-2.8900605e-08
1.0253579e-05
8.9221911e-10
-8.9160257e-08
1.0369885e-05
5.8023051e-08
-1.74132e-07
1.0533743e-05
1.32345e-07
-2.9600864e-07
1.0747923e-05
2.5432947e-07
-4.6831996e-07
1.0989309e-05
4.6396666e-07
-7.0516749e-07
1.1207051e-05
7.9728972e-07
-1.0148534e-06
1.1390092e-05
1.2185919e-06
-1.4014691e-06
1.1514154e-05
1.7101366e-06
-1.8340498e-06
1.1587353e-05
2.1978035e-06
-2.2708698e-06
1.1622497e-05
2.6302591e-06
-2.6652939e-06
1.1621096e-05
2.9848345e-06
-2.9833572e-06
1.1582408e-05
3.2550275e-06
-3.216298e-06
1.152005e-05
3.4359275e-06
-3.3735564e-06
1.1461175e-05
3.5284113e-06
-3.4695431e-06
1.1431823e-05
3.5448545e-06
-3.515519e-06
1.1446433e-05
3.5034419e-06
-3.5180757e-06
1.1503536e-05
3.4225326e-06
-3.4796788e-06
1.1583801e-05
3.3189422e-06
-3.3993013e-06
1.1642907e-05
3.211353e-06
-3.2706413e-06
1.1589568e-05
3.1307391e-06
-3.0776931e-06
1.1239946e-05
3.1400181e-06
-2.7907882e-06
1.0220838e-05
3.3787896e-06
-2.3601182e-06
4.201886e-06
-1.7154512e-06
9.1240518e-06
-2.0690444e-07
8.0368358e-08
9.0843062e-06
-3.1371288e-07
1.0443964e-07
9.0689078e-06
-3.3489541e-07
1.1119188e-07
9.0927408e-06
-3.3308274e-07
1.1409458e-07
9.1552328e-06
-3.1392555e-07
1.1286467e-07
9.250608e-06
-2.8534802e-07
1.0586124e-07
9.3799039e-06
-2.5755189e-07
9.1652442e-08
9.5550196e-06
-2.4159848e-07
6.7437645e-08
9.8009391e-06
-2.1686719e-07
2.9081189e-08
1.013821e-05
-1.7000948e-07
-3.4726404e-08
1.0598379e-05
-6.3164974e-08
-1.4236744e-07
1.1181944e-05
1.8400791e-07
-3.032294e-07
1.1824693e-05
6.9134225e-07
-5.3640735e-07
1.2413237e-05
1.4729605e-06
-8.4256927e-07
1.2880313e-05
2.4346622e-06
-1.1913472e-06
1.3199642e-05
3.3975954e-06
-1.518971e-06
1.3362397e-05
4.2332623e-06
-1.7657125e-06
1.3381417e-05
4.8821962e-06
-1.9164306e-06
1.3285022e-05
5.3564163e-06
-2.0051277e-06
1.3128788e-05
5.6675972e-06
-2.0756404e-06
1.2971643e-05
5.828316e-06
-2.1430354e-06
1.2849754e-05
5.8620345e-06
-2.1956553e-06
1.2775594e-05
5.7962238e-06
-2.2191042e-06
1.2741967e-05
5.6558157e-06
-2.2002985e-06
1.2725366e-05
5.459614e-06
-2.1249217e-06
1.2681299e-05
5.2260261e-06
-1.9717109e-06
1.2519995e-05
4.9973158e-06
-1.7066695e-06
1.2072442e-05
4.8684788e-06
-1.2825773e-06
1.1072708e-05
5.0317123e-06
-6.548914e-07
5.7203512e-06
2.4308295e-07
9.1816904e-06
-2.0191117e-07
8.2276215e-08
9.026375e-06
-2.6659006e-07
1.0819228e-07
8.8532729e-06
-2.7941316e-07
1.1761967e-07
8.675023e-06
-2.7960145e-07
1.2476891e-07
8.5029842e-06
-2.726655e-07
1.3077916e-07
8.3427336e-06
-2.6040946e-07
1.3531297e-07
8.1936607e-06
-2.4758145e-07
1.3910387e-07
8.0477757e-06
-2.394027e-07
1.4369202e-07
7.91647e-06
-2.3825197e-07
1.5269538e-07
7.8273943e-06
-2.4814424e-07
1.6721967e-07
7.8602919e-06
-2.7846961e-07
1.8242368e-07
8.1560051e-06
-2.9169287e-07
1.8008678e-07
8.7971926e-06
-9.0064569e-08
1.4041343e-07
9.7682037e-06
4.4867372e-07
5.3485399e-08
1.0748604e-05
1.5002188e-06
-4.5816647e-08
1.1551068e-05
2.6682985e-06
-7.3091368e-08
1.2144745e-05
3.5932827e-06
4.6319775e-08
1.2493483e-05
4.2175123e-06
3.1590309e-07
1.2623172e-05
4.61938e-06
6.0725155e-07
1.261883e-05
4.8600403e-06
8.1177551e-07
1.2571044e-05
4.9690185e-06
9.0696005e-07
1.2526293e-05
4.9592711e-06
9.4741457e-07
1.2495162e-05
4.8502254e-06
9.7706961e-07
1.2462e-05
4.6666636e-06
1.0223045e-06
1.2398426e-05
4.4328616e-06
1.0903716e-06
1.2280931e-05
4.1742844e-06
1.1693433e-06
1.2064782e-05
3.9244625e-06
1.289175e-06
1.1687387e-05
3.7640747e-06
1.482038e-06
1.1020535e-05
3.8797477e-06
1.8191007e-06
4.665652e-06
2.4293762e-06
8.9866755e-06
8.0364901e-08
8.6149894e-06
1.0509573e-07
8.2221997e-06
1.1337621e-07
7.8237491e-06
1.1884893e-07
7.4281285e-06
1.2295485e-07
7.0420013e-06
1.2571756e-07
6.666102e-06
1.2831774e-07
6.293779e-06
1.329202e-07
5.9124539e-06
1.4307323e-07
5.4995966e-06
1.6471318e-07
5.0128204e-06
2.0830701e-07
4.427776e-06
2.933526e-07
3.8891808e-06
4.4852936e-07
3.6356805e-06
7.0216701e-07
4.0266613e-06
1.1091754e-06
4.9745084e-06
1.7203164e-06
6.0948539e-06
2.4727758e-06
7.0930618e-06
3.219133e-06
7.8836604e-06
3.8286018e-06
8.5062577e-06
4.2372762e-06
9.017356e-06
4.4577939e-06
9.4539873e-06
4.5225767e-06
9.8188605e-06
4.4853644e-06
1.0093148e-05
4.3924693e-06
1.0257338e-05
4.2688493e-06
1.0304088e-05
4.127801e-06
1.0257847e-05
3.9710625e-06
1.0190891e-05
3.8314779e-06
1.0357028e-05
3.7141198e-06
3.5424626e-06
9.5805276e-06
-2.7076576e-07
3.2995271e-08
9.8628363e-06
-2.4955715e-07
5.2580725e-08
1.0133337e-05
-2.5087766e-07
5.6901999e-08
1.0363934e-05
-2.2345917e-07
5.3461035e-08
1.0546519e-05
-1.8816555e-07
4.4926187e-08
1.0689381e-05
-1.6050367e-07
3.0676906e-08
1.0800039e-05
-1.4642209e-07
7.0266974e-09
1.088149e-05
-1.5001333e-07
-2.0445246e-08
1.0940708e-05
-1.7540037e-07
-5.7814881e-08
1.098498e-05
-2.2967782e-07
-1.104916e-07
1.1018426e-05
-3.1774236e-07
-1.8393538e-07
1.1045384e-05
-4.472775e-07
-2.8478293e-07
1.10708e-05
-6.2101002e-07
-4.1920781e-07
1.1148346e-05
-8.8154766e-07
-5.9742651e-07
1.1297679e-05
-1.1686868e-06
-8.1465036e-07
1.153121e-05
-1.4475024e-06
-1.0568576e-06
1.1819688e-05
-1.6536028e-06
-1.3001574e-06
1.2089781e-05
-1.7258531e-06
-1.5276304e-06
1.2281749e-05
-1.6748817e-06
-1.7334508e-06
1.2382756e-05
-1.5630803e-06
-1.9115494e-06
1.2425846e-05
-1.4532679e-06
-2.0593983e-06
1.2454125e-05
-1.3722315e-06
-2.1715497e-06
1.2499532e-05
-1.3212024e-06
-2.2422282e-06
1.257587e-05
-1.2894668e-06
-2.2665291e-06
1.2685011e-05
-1.2662768e-06
-2.2422955e-06
1.2822475e-05
-1.2400417e-06
-2.168497e-06
1.2965506e-05
-1.1809283e-06
-2.0406583e-06
1.3043437e-05
-1.0136391e-06
-1.8564247e-06
1.2916651e-05
-5.9336399e-07
-1.6417048e-06
6.9240914e-07
-1.374706e-06
9.2505883e-06
-2.0828931e-07
3.6273101e-08
9.3591521e-06
-3.1750913e-07
6.3831592e-08
9.4868738e-06
-3.4364538e-07
7.6244891e-08
9.6483278e-06
-3.5136313e-07
8.0555009e-08
9.8409562e-06
-3.477671e-07
7.985184e-08
1.0053812e-05
-3.409703e-07
7.3489913e-08
1.0279969e-05
-3.4069466e-07
5.9788114e-08
1.0516558e-05
-3.5553087e-07
3.6389035e-08
1.0763097e-05
-3.9403383e-07
1.198188e-09
1.1022275e-05
-4.6689123e-07
-5.6666456e-08
1.1292363e-05
-5.9013141e-07
-1.4004129e-07
1.1584624e-05
-7.8194698e-07
-2.6079559e-07
1.1914953e-05
-1.0568941e-06
-4.3082639e-07
1.2281583e-05
-1.4329115e-06
-6.5780955e-07
1.2728868e-05
-1.8693303e-06
-9.3796476e-07
1.3234114e-05
-2.2398496e-06
-1.2318653e-06
1.372012e-05
-2.4215986e-06
-1.4837474e-06
1.4076869e-05
-2.3132076e-06
-1.6858773e-06
1.4251645e-05
-1.9952304e-06
-1.8596085e-06
1.4265454e-05
-1.6304066e-06
-2.0221654e-06
1.4193564e-05
-1.3519266e-06
-2.1725228e-06
1.4089435e-05
-1.160952e-06
-2.3028583e-06
1.3979298e-05
-1.0344624e-06
-2.3958118e-06
1.3876038e-05
-9.6022153e-07
-2.4264748e-06
1.3800683e-05
-9.4109854e-07
-2.3750182e-06
1.3809996e-05
-9.8967631e-07
-2.2316968e-06
1.4013272e-05
-1.0885641e-06
-2.0025411e-06
1.465466e-05
-1.2287564e-06
-1.7089363e-06
1.6339653e-05
-1.4463221e-06
-1.4869261e-06
-1.4661653e-06
-1.5957563e-06
9.3102771e-06
-2.0429243e-07
3.6962004e-08
9.3055083e-06
-2.7018805e-07
6.5639693e-08
9.2841593e-06
-2.8472656e-07
8.0049714e-08
9.259225e-06
-2.8880994e-07
8.7150076e-08
9.2401253e-06
-2.8816745e-07
9.0279616e-08
9.2296896e-06
-2.8459777e-07
8.9376868e-08
9.2273741e-06
-2.829908e-07
8.3716562e-08
9.2320767e-06
-2.8903211e-07
7.2492211e-08
9.2442343e-06
-3.085385e-07
5.5044316e-08
9.2650741e-06
-3.5111235e-07
3.0603594e-08
9.2953232e-06
-4.3410465e-07
-3.8486776e-09
9.3579807e-06
-5.8301842e-07
-8.1493276e-08
9.472102e-06
-8.3431889e-07
-1.9627445e-07
9.6683045e-06
-1.2106351e-06
-3.649849e-07
9.9839963e-06
-1.6485112e-06
-5.8232656e-07
1.0404721e-05
-1.9576473e-06
-7.7603786e-07
1.0838902e-05
-1.9833553e-06
-8.2619955e-07
1.1201453e-05
-1.6657498e-06
-6.9429995e-07
1.1414853e-05
-1.137881e-06
-4.6370648e-07
1.1472555e-05
-5.6938818e-07
-3.0716562e-07
1.1424784e-05
-1.0501835e-07
-2.9241432e-07
1.1387243e-05
1.3453268e-07
-3.1082686e-07
1.1381155e-05
2.3447754e-07
-2.8602956e-07
1.1395453e-05
2.1751761e-07
-1.6980379e-07
1.1415456e-05
1.1959712e-07
9.8721403e-09
1.1395819e-05
-4.8821317e-08
2.4845509e-07
1.1373241e-05
-2.611061e-07
4.8424155e-07
1.1492257e-05
-5.5589765e-07
6.8968599e-07
1.2041931e-05
-7.8187268e-07
6.0407796e-07
-9.3438989e-07
4.8755355e-08
9.1090928e-06
3.5931206e-08
8.8806058e-06
6.3394301e-08
8.6323748e-06
7.6880385e-08
8.3792184e-06
8.3195129e-08
8.1283936e-06
8.5611951e-08
7.8853169e-06
8.4196334e-08
7.6521346e-06
7.8509086e-08
7.4277559e-06
6.8266652e-08
7.2088181e-06
5.3472484e-08
6.9874927e-06
3.4926318e-08
6.7465246e-06
1.5170418e-08
6.4636253e-06
-6.7665708e-09
6.1192854e-06
-4.1450728e-08
5.6908832e-06
-8.007316e-08
5.242214e-06
-9.0696397e-08
4.9904193e-06
1.437343e-08
5.1284308e-06
3.5122121e-07
5.4854103e-06
1.1961341e-06
5.7639359e-06
2.4118703e-06
6.0543886e-06
3.3771172e-06
6.4410719e-06
3.9658384e-06
6.8552018e-06
4.2428319e-06
7.2458656e-06
4.3290023e-06
7.5546659e-06
4.3010565e-06
7.7649645e-06
4.1780652e-06
7.9055883e-06
3.9382642e-06
8.061574e-06
3.5539982e-06
8.2464438e-06
3.0908181e-06
8.7895469e-06
2.3892583e-06
1.1458769e-06
9.5571781e-06
-2.7228886e-07
1.7132769e-08
9.8305299e-06
-2.4965966e-07
2.8986339e-08
1.010074e-05
-2.4742717e-07
3.4249514e-08
1.0334615e-05
-2.1526969e-07
3.5006885e-08
1.0521609e-05
-1.7489463e-07
3.2995189e-08
1.0665606e-05
-1.4204258e-07
2.8905032e-08
1.0770727e-05
-1.2087252e-07
2.2969908e-08
1.0845457e-05
-1.1068979e-07
1.5714627e-08
1.0894414e-05
-1.1247047e-07
5.9055494e-09
1.091942e-05
-1.2928747e-07
-5.9993623e-09
1.0920907e-05
-1.6651969e-07
-1.8687043e-08
1.0898661e-05
-2.2918505e-07
-3.312007e-08
1.0851367e-05
-3.2443566e-07
-4.7216416e-08
1.0838476e-05
-5.2285086e-07
-6.1381301e-08
1.0889449e-05
-7.9405557e-07
-7.120513e-08
1.1040154e-05
-1.1461935e-06
-6.093969e-08
1.1264242e-05
-1.5050381e-06
-1.873399e-08
1.1488376e-05
-1.7931204e-06
4.1810764e-08
1.1669122e-05
-2.0025194e-06
8.8789758e-08
1.1791975e-05
-2.1555236e-06
1.2166424e-07
1.1873243e-05
-2.2801304e-06
1.4008893e-07
1.1937821e-05
-2.397339e-06
1.6185899e-07
1.200174e-05
-2.5072542e-06
2.0165305e-07
1.2064896e-05
-2.5944718e-06
2.6505668e-07
1.212323e-05
-2.6473806e-06
3.4657543e-07
1.2188615e-05
-2.6701157e-06
4.3550166e-07
1.2298747e-05
-2.6660301e-06
5.1392673e-07
1.2492569e-05
-2.5710641e-06
5.1903732e-07
1.2651681e-05
-2.061443e-06
2.5856073e-07
-6.1044635e-07
-4.6123843e-07
9.2224557e-06
-2.0795136e-07
1.8449412e-08
9.3192716e-06
-3.1636067e-07
3.3720721e-08
9.4461462e-06
-3.4033326e-07
4.228392e-08
9.6106396e-06
-3.4446861e-07
4.5271892e-08
9.8073271e-06
-3.357632e-07
4.4048373e-08
1.0022276e-05
-3.2207909e-07
3.8597011e-08
1.0245083e-05
-3.1191656e-07
2.8049661e-08
1.0470547e-05
-3.1071314e-07
1.0976892e-08
1.0696901e-05
-3.2336309e-07
-1.4229692e-08
1.0919451e-05
-3.5787311e-07
-5.0591597e-08
1.1139387e-05
-4.2439624e-07
-1.0205559e-07
1.1359714e-05
-5.3743141e-07
-1.728187e-07
1.1596354e-05
-7.2592895e-07
-2.6589824e-07
1.1840203e-05
-1.0444086e-06
-3.7999974e-07
1.2147407e-05
-1.5423251e-06
-4.9676724e-07
1.2495179e-05
-2.146227e-06
-5.794635e-07
1.2755724e-05
-2.6016924e-06
-6.4752923e-07
1.2843786e-05
-2.7998086e-06
-7.6716207e-07
1.2773031e-05
-2.8268921e-06
-9.6440294e-07
1.2574691e-05
-2.7640156e-06
-1.2152821e-06
1.2296968e-05
-2.7015647e-06
-1.4733762e-06
1.1986698e-05
-2.6918959e-06
-1.69817e-06
1.1665192e-05
-2.7237171e-06
-1.8581726e-06
1.1330919e-05
-2.7585346e-06
-1.9286684e-06
1.0981656e-05
-2.7765551e-06
-1.8972137e-06
1.064476e-05
-2.814758e-06
-1.7506439e-06
1.0481584e-05
-2.9601349e-06
-1.5453937e-06
1.0904947e-05
-3.2110943e-06
-1.4921478e-06
1.2461158e-05
-3.2695585e-06
-1.8350348e-06
-2.4292095e-06
-2.7283242e-06
9.2831655e-06
-2.0389264e-07
1.8697548e-08
9.2674856e-06
-2.6936606e-07
3.4324755e-08
9.2462598e-06
-2.8275019e-07
4.3692271e-08
9.2263866e-06
-2.8519314e-07
4.7748012e-08
9.2155734e-06
-2.8235309e-07
4.7683063e-08
9.2152059e-06
-2.7568903e-07
4.3355165e-08
9.2226729e-06
-2.6943249e-07
3.3766671e-08
9.2347685e-06
-2.6773977e-07
1.7425105e-08
9.2486898e-06
-2.7427004e-07
-7.9676378e-09
9.2615283e-06
-2.9460041e-07
-4.5504454e-08
9.2738451e-06
-3.3946979e-07
-1.0108799e-07
9.2691205e-06
-4.3051519e-07
-1.8367932e-07
9.2435358e-06
-5.9686117e-07
-2.9974954e-07
9.1935293e-06
-9.0589179e-07
-4.5348342e-07
9.1696998e-06
-1.4726282e-06
-6.2818357e-07
9.168714e-06
-2.1802484e-06
-7.4111561e-07
9.0104772e-06
-2.5042271e-06
-7.6565719e-07
8.6811454e-06
-2.3725077e-06
-7.924788e-07
8.3176463e-06
-2.0251522e-06
-9.021847e-07
7.8711231e-06
-1.5262139e-06
-1.0987733e-06
7.3523935e-06
-1.1438456e-06
-1.3319096e-06
6.8172455e-06
-9.4746054e-07
-1.5209212e-06
6.3119944e-06
-9.2074309e-07
-1.5849039e-06
5.8751253e-06
-1.0169114e-06
-1.4759423e-06
5.5316936e-06
-1.2190722e-06
-1.2055537e-06
5.2719027e-06
-1.5263483e-06
-7.808311e-07
5.2754274e-06
-1.956285e-06
-5.2256213e-07
5.8525618e-06
-2.4319227e-06
-6.6505304e-07
7.2406172e-06
-2.6895954e-06
-1.3612164e-06
-1.8840111e-06
-3.0073708e-06
9.0827332e-06
1.8256833e-08
8.8434181e-06
3.3343045e-08
8.5953198e-06
4.2228193e-08
8.3474451e-06
4.5876422e-08
8.1052219e-06
4.5481831e-08
7.8727702e-06
4.0958796e-08
7.6504735e-06
3.1373253e-08
7.4357761e-06
1.5224173e-08
7.2245745e-06
-9.595942e-09
7.0109204e-06
-4.6019961e-08
6.7866988e-06
-1.000777e-07
6.5313835e-06
-1.8196634e-07
6.2018868e-06
-3.0881519e-07
5.7285558e-06
-5.1263509e-07
5.0302983e-06
-8.6509856e-07
4.2441893e-06
-1.3802643e-06
3.7012288e-06
-1.6110163e-06
3.5327389e-06
-1.0082642e-06
3.5602497e-06
3.585941e-07
3.6357768e-06
1.7746767e-06
3.8729632e-06
2.5842268e-06
4.1936815e-06
2.9742495e-06
4.5082156e-06
3.093456e-06
4.7074798e-06
3.084707e-06
4.7072311e-06
2.9591387e-06
4.5088956e-06
2.6102998e-06
4.4288882e-06
1.6778473e-06
4.5072935e-06
5.8053277e-07
5.0933991e-06
-8.8151886e-07
-3.2458903e-06
9.5517436e-06
-2.7242331e-07
6.8389857e-09
9.817813e-06
-2.4910268e-07
1.2116763e-08
1.0082438e-05
-2.4520173e-07
1.4956194e-08
1.0312123e-05
-2.1029575e-07
1.5769296e-08
1.0495644e-05
-1.6547766e-07
1.5121496e-08
1.0636951e-05
-1.2554592e-07
1.3328571e-08
1.074297e-05
-9.3319127e-08
1.0467654e-08
1.0819906e-05
-6.759912e-08
6.5851796e-09
1.0871398e-05
-4.7380649e-08
2.0118487e-09
1.0901396e-05
-3.1950919e-08
-3.8126517e-09
1.0915552e-05
-2.1698029e-08
-1.0887457e-08
1.0920133e-05
-1.9055738e-08
-1.8358151e-08
1.092891e-05
-3.1020077e-08
-2.4638064e-08
1.1016567e-05
-1.1794973e-07
-3.0676292e-08
1.1237788e-05
-2.6540736e-07
-2.6515668e-08
1.1553805e-05
-3.8872078e-07
1.2264222e-08
1.1850893e-05
-3.8496942e-07
6.9523072e-08
1.20579e-05
-3.0857182e-07
1.4371013e-07
1.2194284e-05
-2.7286211e-07
2.2566616e-07
1.2309966e-05
-3.0875335e-07
3.153995e-07
1.2432656e-05
-3.9727768e-07
4.1573377e-07
1.2576156e-05
-5.1577612e-07
5.3566505e-07
1.2732781e-05
-6.4175869e-07
6.8871798e-07
1.2878902e-05
-7.548092e-07
8.7581475e-07
1.3000289e-05
-8.5000021e-07
1.0770477e-06
1.3082573e-05
-9.0066972e-07
1.2552747e-06
1.3003499e-05
-7.5266783e-07
1.3461736e-06
1.2490668e-05
-2.4126363e-07
1.2720361e-06
1.0872621e-05
9.6040818e-07
9.1892495e-07
3.2905737e-06
2.7202704e-07
9.2153945e-06
-2.0770437e-07
7.3054748e-09
9.3016117e-06
-3.156678e-07
1.4072619e-08
9.4188869e-06
-3.3855997e-07
1.8374639e-08
9.574466e-06
-3.4064693e-07
2.0055531e-08
9.7619588e-06
-3.2831654e-07
1.9410389e-08
9.9671153e-06
-3.085261e-07
1.6441169e-08
1.0179577e-05
-2.8848442e-07
1.0778026e-08
1.0392859e-05
-2.7192156e-07
2.0475931e-09
1.0604126e-05
-2.6124119e-07
-1.1600574e-08
1.0812216e-05
-2.5986639e-07
-3.0723744e-08
1.1020409e-05
-2.7463167e-07
-5.7262109e-08
1.1241376e-05
-3.2007007e-07
-9.2704199e-08
1.1508803e-05
-4.2843238e-07
-1.3582119e-07
1.1860938e-05
-6.7253212e-07
-1.7742077e-07
1.2399065e-05
-1.1026003e-06
-1.9752642e-07
1.29819e-05
-1.3832549e-06
-1.6765512e-07
1.3373028e-05
-1.274513e-06
-1.4910876e-07
1.3537758e-05
-1.0561228e-06
-1.8439505e-07
1.3561074e-05
-9.9779705e-07
-2.628576e-07
1.3481317e-05
-1.0676308e-06
-3.7672289e-07
1.3332313e-05
-1.1963184e-06
-5.2542081e-07
1.3139088e-05
-1.3514109e-06
-6.6948149e-07
1.2892582e-05
-1.5012467e-06
-7.5249185e-07
1.2562059e-05
-1.6107759e-06
-7.4257872e-07
1.2168107e-05
-1.7027904e-06
-6.506183e-07
1.1875698e-05
-1.8317685e-06
-5.2645948e-07
1.1841725e-05
-1.7124635e-06
-5.4930787e-07
1.1823498e-05
-8.7291483e-07
-8.3771492e-07
1.1326626e-05
9.2038414e-07
-1.3070172e-06
3.253283e-06
-1.9535176e-06
9.2764549e-06
-2.0384641e-07
7.3444756e-09
9.2502445e-06
-2.6930899e-07
1.417604e-08
9.2190108e-06
-2.8232065e-07
1.8686593e-08
9.1893651e-06
-2.8388424e-07
2.0631166e-08
9.1680681e-06
-2.794921e-07
2.0156064e-08
9.1560236e-06
-2.7022125e-07
1.7095697e-08
9.150109e-06
-2.5971078e-07
1.0908934e-08
9.1456572e-06
-2.5130094e-07
1.258222e-09
9.1394184e-06
-2.4754623e-07
-1.5421302e-08
9.125825e-06
-2.5229685e-07
-3.9477145e-08
9.0990017e-06
-2.7399642e-07
-7.4895379e-08
9.0532576e-06
-3.3136263e-07
-1.2663608e-07
8.9931284e-06
-4.6866406e-07
-1.9937855e-07
8.9539087e-06
-7.9839846e-07
-2.8838084e-07
9.1087358e-06
-1.5356659e-06
-3.4995358e-07
9.196578e-06
-1.9157575e-06
-2.968702e-07
8.8682515e-06
-1.4607962e-06
-2.5157718e-07
8.117604e-06
-7.8050687e-07
-3.1777203e-07
7.3668057e-06
-6.9272946e-07
-4.567109e-07
6.6583109e-06
-7.7193196e-07
-6.8636237e-07
5.9423409e-06
-8.3611493e-07
-9.7675431e-07
5.1998861e-06
-9.1468323e-07
-1.2163101e-06
4.4754038e-06
-1.0978482e-06
-1.2654476e-06
3.7232926e-06
-1.3079832e-06
-1.0285359e-06
2.9189983e-06
-1.5961169e-06
-5.0943481e-07
2.4371496e-06
-2.0273559e-06
-1.0362304e-07
2.720278e-06
-2.2478021e-06
-2.7006604e-07
3.7833038e-06
-1.5126589e-06
-1.0857336e-06
4.8632115e-06
5.6260859e-07
-2.0800867e-06
2.7054851e-06
-2.9860037e-06
9.0762229e-06
7.1390453e-09
8.8265878e-06
1.3668794e-08
8.5686332e-06
1.7861831e-08
8.3111519e-06
1.9473244e-08
8.0585125e-06
1.8628842e-08
7.8140928e-06
1.5157032e-08
7.5772072e-06
8.5480131e-09
7.3428942e-06
-1.7638114e-09
7.1058019e-06
-2.0049886e-08
6.8542728e-06
-4.6787597e-08
6.5681897e-06
-8.7990796e-08
6.2082228e-06
-1.5336191e-07
5.6926482e-06
-2.6190473e-07
4.8377096e-06
-4.5610161e-07
3.2870874e-06
-8.5032331e-07
1.4126625e-06
-1.4242194e-06
-3.7845973e-07
-1.2841164e-06
-1.2275285e-06
-9.4062902e-07
-1.1638485e-06
-3.9823183e-07
-6.3254927e-07
4.6984399e-07
2.8274558e-08
1.0862791e-06
6.4332524e-07
1.4437951e-06
1.0159907e-06
1.6224066e-06
1.0346557e-06
1.7578884e-06
5.5339195e-07
1.8446868e-06
-5.6539468e-07
1.7042791e-06
-1.8318342e-06
6.9797742e-07
-2.0270156e-06
-7.3254228e-07
1.377278e-07
-2.4790306e-06
-3.6743141e-06
9.5488945e-06
-2.7272903e-07
-3.0014761e-10
9.8111769e-06
-2.4947812e-07
-5.9043662e-10
1.0072622e-05
-2.4549079e-07
-8.6764704e-10
1.0299953e-05
-2.1025968e-07
-1.149707e-09
1.048159e-05
-1.6488189e-07
-1.4609998e-09
1.0621126e-05
-1.2419674e-07
-1.8220023e-09
1.0725125e-05
-9.1084655e-08
-2.2441066e-09
1.0799038e-05
-6.4393476e-08
-2.7210606e-09
1.0847217e-05
-4.27002e-08
-3.2433888e-09
1.087345e-05
-2.5929111e-08
-3.8845865e-09
1.0882895e-05
-1.5481583e-08
-4.6049533e-09
1.088486e-05
-1.475171e-08
-5.3003108e-09
1.0901253e-05
-3.4138726e-08
-6.5688702e-09
1.1037281e-05
-1.5664541e-07
-9.6345772e-09
1.135803e-05
-3.2945358e-07
-1.7281678e-08
1.1730846e-05
-3.2832357e-07
-3.1801155e-08
1.2013783e-05
-1.6407112e-07
-4.911981e-08
1.2208722e-05
1.3419269e-08
-6.438046e-08
1.2359665e-05
1.5734109e-07
-8.232312e-08
1.2517598e-05
2.6302829e-07
-1.0522677e-07
1.2725813e-05
3.4313892e-07
-1.3520905e-07
1.3003214e-05
4.3106585e-07
-1.7226212e-07
1.3325266e-05
5.8134436e-07
-2.1394521e-07
1.3615147e-05
8.4219117e-07
-2.5528957e-07
1.3777546e-05
1.2039799e-06
-2.8809461e-07
1.3685659e-05
1.6542921e-06
-3.0559568e-07
1.3130935e-05
2.201773e-06
-2.9905473e-07
1.1796257e-05
2.8673389e-06
-2.5866313e-07
9.1608694e-06
3.7326657e-06
-1.7657256e-07
5.3052013e-06
-8.6128977e-08
9.2114632e-06
-2.0772843e-07
-1.887539e-10
9.2921259e-06
-3.1571345e-07
-3.5082512e-10
9.4039256e-06
-3.3845066e-07
-4.5743455e-10
9.5544087e-06
-3.4014682e-07
-5.2855635e-10
9.7366854e-06
-3.2714411e-07
-5.8757859e-10
9.9358972e-06
-3.062975e-07
-6.4840741e-10
1.0141087e-05
-2.8475481e-07
-7.1455054e-10
1.0345721e-05
-2.6616209e-07
-7.8594947e-10
1.0544967e-05
-2.5262286e-07
-8.8641442e-10
1.0737355e-05
-2.4799995e-07
-9.9607379e-10
1.0926738e-05
-2.6088453e-07
-1.1873591e-09
1.1131756e-05
-3.1067367e-07
-1.7270892e-09
1.1407747e-05
-4.4208486e-07
-3.7544392e-09
1.1834724e-05
-7.5031773e-07
-1.0541086e-08
1.2556544e-05
-1.220416e-06
-2.8144501e-08
1.3162072e-05
-1.0445354e-06
-5.6882823e-08
1.3579331e-05
-6.5995303e-07
-7.0509265e-08
1.3867706e-05
-3.8696844e-07
-7.3059467e-08
1.4092901e-05
-2.5601128e-07
-7.5944362e-08
1.4262167e-05
-2.0126974e-07
-8.363571e-08
1.4442707e-05
-2.7280172e-07
-9.2784919e-08
1.4690402e-05
-3.8929448e-07
-1.0050957e-07
1.5029077e-05
-4.1116297e-07
-1.0333104e-07
1.538587e-05
-1.6978188e-07
-9.298809e-08
1.5610138e-05
3.9901778e-07
-7.5768446e-08
1.5497782e-05
1.3055687e-06
-7.1823118e-08
1.4760195e-05
2.4298569e-06
-4.6964808e-08
1.3070634e-05
3.7117022e-06
-6.1131299e-10
1.0132672e-05
5.2393786e-06
1.1473892e-07
7.1003025e-06
2.5157748e-07
9.2725853e-06
-2.0382821e-07
-1.8125175e-10
9.2406875e-06
-2.6930872e-07
-3.3122755e-10
9.2035503e-06
-2.8220919e-07
-4.1776035e-10
9.1679918e-06
-2.8350363e-07
-4.5338938e-10
9.1401513e-06
-2.7869042e-07
-4.5660633e-10
9.120194e-06
-2.6880859e-07
-4.3492132e-10
9.1041783e-06
-2.574489e-07
-3.797821e-10
9.0873674e-06
-2.4781589e-07
-2.7472925e-10
9.0618832e-06
-2.4244825e-07
-1.0867466e-10
9.0196486e-06
-2.4561257e-07
3.7404026e-10
8.9502507e-06
-2.6751682e-07
1.1402017e-09
8.8437322e-06
-3.3294596e-07
2.1628073e-09
8.7071245e-06
-5.0753093e-07
2.6893899e-09
8.6471338e-06
-9.773602e-07
-1.3252472e-09
9.1956904e-06
-2.0892109e-06
-2.9840832e-08
9.1652119e-06
-1.2230081e-06
-8.8580179e-08
8.8590074e-06
-5.0647307e-07
-9.9161903e-08
8.4002853e-06
-1.6917375e-07
-7.6786541e-08
7.7535818e-06
-1.427272e-08
-5.1403117e-08
6.9724219e-06
-7.5031037e-08
-3.1012982e-08
6.0064626e-06
-2.6972855e-07
-1.3451924e-08
4.9570804e-06
-5.6309623e-07
7.0628464e-09
4.1515349e-06
-9.0264954e-07
3.1258051e-08
4.0996487e-06
-1.1849727e-06
3.7617281e-08
5.1892706e-06
-1.2553698e-06
5.305544e-08
6.9744056e-06
-7.4454496e-07
1.5863062e-07
8.2387205e-06
5.8528376e-07
3.0461252e-07
8.1002069e-06
2.3235684e-06
4.3370797e-07
6.4268817e-06
4.221879e-06
6.0112995e-07
6.1504213e-06
7.3012972e-07
9.0724389e-06
-1.7658762e-10
8.8171211e-06
-3.2239405e-10
8.5531794e-06
-4.0596839e-10
8.2895864e-06
-4.3771465e-10
8.0299597e-06
-4.3508389e-10
7.7767101e-06
-4.0216005e-10
7.5281329e-06
-3.2376792e-10
7.2787286e-06
-1.7546188e-10
7.0159485e-06
2.8204133e-10
6.7222997e-06
1.2488134e-09
6.3636076e-06
3.184692e-09
5.8702025e-06
7.0973924e-09
5.0858554e-06
1.4910091e-08
3.6228941e-06
2.9465982e-08
6.3433392e-07
4.8256001e-08
-2.0492113e-06
2.6641057e-08
-3.8197013e-06
-2.3399388e-08
-4.9408096e-06
8.2722012e-09
-5.3893172e-06
3.2802301e-08
-5.0409013e-06
4.3218042e-08
-4.2767002e-06
4.9075815e-08
-3.4716036e-06
7.266981e-08
-2.8878457e-06
1.3367146e-07
-2.563978e-06
2.4777549e-07
-2.3763984e-06
4.0188491e-07
-1.96035e-06
5.4489703e-07
-1.3473196e-06
6.7303967e-07
-6.6452398e-07
9.1542221e-07
-6.0763923e-08
1.1431265e-06
1.2139029e-06
9.5488472e-06
-2.7272853e-07
-7.392653e-09
9.8110727e-06
-2.4951452e-07
-1.3204652e-08
1.0072451e-05
-2.4555534e-07
-1.6560499e-08
1.0299715e-05
-2.103522e-07
-1.7908127e-08
1.0481297e-05
-1.6501113e-07
-1.7857944e-08
1.0620814e-05
-1.243769e-07
-1.67697e-08
1.072486e-05
-9.1331469e-08
-1.4751793e-08
1.0798871e-05
-6.4701287e-08
-1.1810833e-08
1.0846907e-05
-4.3053085e-08
-7.9975382e-09
1.0872876e-05
-2.6015907e-08
-3.6034621e-09
1.0882469e-05
-1.4749358e-08
7.9207781e-10
1.0883188e-05
-1.2442984e-08
6.6576496e-09
1.0894834e-05
-2.7931675e-08
9.919868e-09
1.1016461e-05
-1.4162491e-07
1.0449481e-08
1.1315883e-05
-3.150499e-07
-1.7179663e-09
1.1681201e-05
-3.555072e-07
-4.1561445e-08
1.1968085e-05
-2.1933994e-07
-1.1632103e-07
1.2148088e-05
-3.7980768e-08
-2.0583285e-07
1.2272461e-05
9.2999039e-08
-2.9917255e-07
1.2390878e-05
1.7362752e-07
-3.9681071e-07
1.2552812e-05
2.0335713e-07
-5.0012214e-07
1.2785946e-05
2.0974518e-07
-6.1486401e-07
1.3079433e-05
2.4438363e-07
-7.5164556e-07
1.3374609e-05
3.6875461e-07
-9.1914795e-07
1.3576791e-05
6.1990801e-07
-1.1102067e-06
1.3568627e-05
9.8877572e-07
-1.286325e-06
1.314129e-05
1.5042217e-06
-1.3761598e-06
1.1974486e-05
2.2076866e-06
-1.2998217e-06
9.5498925e-06
3.2164022e-06
-9.6869374e-07
5.0662373e-06
-3.0313426e-07
9.2114664e-06
-2.0772661e-07
-7.6875985e-09
9.2921064e-06
-3.1571964e-07
-1.4781661e-08
9.4038839e-06
-3.3847244e-07
-1.9310066e-08
9.5543603e-06
-3.401818e-07
-2.1163178e-08
9.7366678e-06
-3.2719203e-07
-2.0697085e-08
9.9359762e-06
-3.0635138e-07
-1.7959912e-08
1.0141355e-05
-2.8479291e-07
-1.2603761e-08
1.0346145e-05
-2.6612245e-07
-4.1200834e-09
1.054581e-05
-2.5235461e-07
8.7901649e-09
1.0738802e-05
-2.4707753e-07
2.7119596e-08
1.0928641e-05
-2.5816426e-07
5.2437671e-08
1.1131974e-05
-3.0347341e-07
8.6011939e-08
1.1398244e-05
-4.2438586e-07
1.2643805e-07
1.1795665e-05
-7.1395288e-07
1.6428847e-07
1.2467692e-05
-1.1919272e-06
1.765462e-07
1.3085212e-05
-1.1592056e-06
1.2936812e-07
1.3486562e-05
-7.768174e-07
8.5855437e-08
1.3742719e-05
-4.7332838e-07
1.064652e-07
1.3912498e-05
-3.3815792e-07
1.8631893e-07
1.4001226e-05
-3.0526456e-07
3.0789283e-07
1.4058753e-05
-4.1698521e-07
4.7183547e-07
1.4131275e-05
-6.0330848e-07
6.423821e-07
1.4255592e-05
-7.3924604e-07
7.5903744e-07
1.4471426e-05
-7.0514131e-07
7.6868808e-07
1.4728291e-05
-3.8263768e-07
6.7331892e-07
1.4890101e-05
2.1424636e-07
5.4241612e-07
1.4457024e-05
1.3630775e-06
5.2549406e-07
1.3134775e-05
2.6984341e-06
8.251004e-07
1.068031e-05
4.4168342e-06
1.3593328e-06
6.5659309e-06
2.00907e-06
9.2725862e-06
-2.0382771e-07
-7.7065132e-09
9.240688e-06
-2.6931005e-07
-1.4842965e-08
9.2035619e-06
-2.8221516e-07
-1.9549093e-08
9.1680534e-06
-2.8351322e-07
-2.161324e-08
9.1403392e-06
-2.7869919e-07
-2.1234711e-08
9.1206458e-06
-2.688066e-07
-1.8285274e-08
9.1051203e-06
-2.5741997e-07
-1.2225595e-08
9.0889732e-06
-2.4775859e-07
-2.4890817e-09
9.0649313e-06
-2.4207088e-07
1.3652589e-08
9.0253795e-06
-2.4446778e-07
3.7320176e-08
8.9606179e-06
-2.643652e-07
7.2107678e-08
8.8609689e-06
-3.2440774e-07
1.2275066e-07
8.729149e-06
-4.8368112e-07
1.9380446e-07
8.6400732e-06
-9.0811944e-07
2.8190596e-07
8.9975446e-06
-1.9277819e-06
3.4866026e-07
9.0490638e-06
-1.5817497e-06
2.8348766e-07
8.6253855e-06
-6.4749457e-07
1.9566858e-07
8.0867924e-06
-2.6789013e-07
2.5633512e-07
7.3473954e-06
-6.1301357e-08
4.1094099e-07
6.4700429e-06
-1.0344193e-07
6.4434019e-07
5.4003293e-06
-3.0500871e-07
9.4440744e-07
4.216084e-06
-6.1023978e-07
1.1991449e-06
3.1758443e-06
-9.4327989e-07
1.2773145e-06
2.6073545e-06
-1.2179667e-06
1.1212849e-06
3.0271843e-06
-1.4319858e-06
6.8467003e-07
4.5932476e-06
-1.400409e-06
2.0889566e-07
6.2859812e-06
-2.5145632e-07
2.2868166e-07
7.1042557e-06
1.224912e-06
1.0872747e-06
6.5449331e-06
3.2818287e-06
2.2896514e-06
5.5272408e-06
3.2487187e-06
9.0724359e-06
-7.488734e-09
8.8171175e-06
-1.4314322e-08
8.553194e-06
-1.8697906e-08
8.2896687e-06
-2.04259e-08
8.0302093e-06
-1.9675136e-08
7.777303e-06
-1.6302597e-08
7.5293244e-06
-9.7653084e-09
7.2812331e-06
1.5730981e-10
7.0209851e-06
1.8459247e-08
6.7328045e-06
4.4962e-08
6.3857513e-06
8.5873364e-08
5.9175368e-06
1.5090531e-07
5.1893703e-06
2.593987e-07
3.8556409e-06
4.5511094e-07
1.125755e-06
8.510686e-07
-1.8075519e-06
1.3882271e-06
-3.7922829e-06
1.3171381e-06
-5.0590761e-06
1.0097096e-06
-5.6355893e-06
5.5053817e-07
-5.3468405e-06
-3.4630515e-07
-4.6400883e-06
-9.5946569e-07
-3.9036097e-06
-1.2708871e-06
-3.3670185e-06
-1.343559e-06
-3.0232973e-06
-1.3126031e-06
-2.8101753e-06
-1.2438739e-06
-2.5799232e-06
-1.0882399e-06
-2.0302661e-06
-1.3077155e-07
-9.6116188e-07
1.0790943e-06
7.7270652e-07
2.6949832e-06
4.0414287e-06
9.5515966e-06
-2.7235931e-07
-1.7603819e-08
9.8174862e-06
-2.4907408e-07
-2.9923444e-08
1.0081904e-05
-2.4521802e-07
-3.5629658e-08
1.0311353e-05
-2.1037111e-07
-3.6832683e-08
1.0494614e-05
-1.6563905e-07
-3.5304184e-08
1.0635641e-05
-1.2583893e-07
-3.1763656e-08
1.0741362e-05
-9.3801273e-08
-2.6461977e-08
1.081795e-05
-6.8304691e-08
-1.9873907e-08
1.0869776e-05
-4.8241383e-08
-1.1351634e-08
1.0898732e-05
-3.3244293e-08
9.1835571e-10
1.0910611e-05
-2.3108391e-08
1.2241721e-08
1.0911568e-05
-1.9731144e-08
2.5627216e-08
1.0912346e-05
-2.9593708e-08
3.8884654e-08
1.0981696e-05
-1.1149229e-07
5.2637757e-08
1.117077e-05
-2.5474396e-07
6.3868276e-08
1.1476663e-05
-4.0630892e-07
5.8766873e-08
1.1783638e-05
-4.4591288e-07
2.2742601e-08
1.2000953e-05
-3.8814354e-07
-3.4674422e-08
1.2138705e-05
-3.5651958e-07
-8.0035895e-08
1.2247786e-05
-4.0443668e-07
-1.0120511e-07
1.236391e-05
-5.1238509e-07
-1.0387168e-07
1.2502247e-05
-6.5287111e-07
-1.0070844e-07
1.26555e-05
-8.0184457e-07
-1.0375109e-07
1.2801769e-05
-9.3427411e-07
-1.3210563e-07
1.2920085e-05
-1.0459512e-06