/*--------------------------------*- C++ -*----------------------------------*\
| =========                 |                                                 |
| \\      /  F ield         | OpenFOAM: The Open Source CFD Toolbox           |
|  \\    /   O peration     | Version:  v2012                                 |
|   \\  /    A nd           | Website:  www.openfoam.com                      |
|    \\/     M anipulation  |                                                 |
\*---------------------------------------------------------------------------*/
FoamFile
{
    version     2.0;
    format      ascii;
    class       volScalarField;
    location    "250/topAir";
    object      rho;
}
// * * * * * * * * * * * * * * * * * * * * * * * * * * * * * * * * * * * * * //

dimensions      [1 -3 0 0 0 0 0];


internalField   nonuniform List<scalar> 
1200
(
1.0845221
1.0237715
0.97436094
0.93284982
0.89692528
0.86516641
0.83672207
0.81117746
0.78881517
0.76926704
0.75232466
0.73792908
0.72630024
0.72302585
0.72245033
0.72477104
0.72968849
0.73633618
0.74361582
0.75060133
0.75672238
0.76171198
0.76548162
0.7680055
0.76925315
0.7691497
0.76751126
0.7639161
0.75746829
0.7470541
1.1569153
1.1537037
1.1493264
1.1439968
1.1378743
1.1310825
1.1237362
1.1158838
1.1052689
1.0913332
1.0724901
1.0473584
1.0159458
0.98220588
0.94977276
0.92197145
0.90013881
0.88394747
0.87252669
0.86507984
0.86080837
0.85875565
0.85792661
0.85739778
0.85634405
0.85396797
0.84932222
0.84099841
0.82659307
0.80407113
1.158582
1.1584745
1.1582749
1.1579637
1.1575242
1.1569421
1.1562058
1.1553045
1.1541709
1.1527246
1.1507773
1.1457946
1.1319822
1.1059134
1.0701948
1.0307654
0.99252126
0.95943354
0.93244444
0.91143062
0.89581161
0.88469858
0.87703523
0.87175051
0.86785688
0.86446576
0.86070107
0.85547761
0.84694415
0.83244134
1.1586181
1.1586145
1.158606
1.1585892
1.1585602
1.158514
1.158445
1.158346
1.1582073
1.1580135
1.1577326
1.1571908
1.1555908
1.1471028
1.1211053
1.0822731
1.0423136
1.0064884
0.97572675
0.95001298
0.92917232
0.91282981
0.90035123
0.89094098
0.88378215
0.87811472
0.87323054
0.8683361
0.86218564
0.8527776
1.0845292
1.024395
0.97601636
0.93585253
0.90159266
0.87186827
0.84587693
0.82317571
0.80358516
0.78715846
0.77407398
0.76463383
0.75927256
0.76497824
0.77436969
0.78651848
0.7996661
0.81159399
0.82092382
0.82751923
0.83199586
0.83501381
0.83696311
0.8379114
0.83772922
0.83619973
0.83293405
0.82704661
0.81657253
0.80016654
1.1569173
1.1537658
1.1495538
1.144526
1.1388725
1.1327508
1.1263108
1.119718
1.1131445
1.1068196
1.1009937
1.0959873
1.0921388
1.0900049
1.089511
1.0897575
1.0892094
1.0864237
1.0813353
1.0747405
1.0673732
1.0594368
1.0508818
1.0415288
1.0311724
1.0196687
1.0069976
0.99331939
0.97837574
0.95428134
1.1585822
1.1584775
1.1582883
1.1580009
1.1576061
1.1570978
1.1564741
1.1557382
1.154898
1.1539699
1.1529801
1.1519095
1.1506801
1.1493308
1.1472228
1.1420867
1.1316481
1.1144276
1.0934084
1.0723372
1.0536209
1.0360337
1.0191819
1.0029687
0.98735376
0.97225393
0.95650763
0.93979237
0.9222018
0.90324866
1.1586181
1.1586146
1.1586067
1.1585915
1.1585662
1.1585274
1.1584713
1.158394
1.1582915
1.158159
1.1579896
1.1577587
1.1573289
1.155706
1.1489716
1.130723
1.0995469
1.0623157
1.0261157
0.99388782
0.96698401
0.94645669
0.9307832
0.91813208
0.90743896
0.89823235
0.89077459
0.88429663
0.87793636
0.87097972
1.0845249
1.0242727
0.97576027
0.93545068
0.90101743
0.87107511
0.8447752
0.82155492
0.80107039
0.78316129
0.76784642
0.75529104
0.74601629
0.74861655
0.75587878
0.76835657
0.78483408
0.80260726
0.81945317
0.83419134
0.84641994
0.85614812
0.86338526
0.86798595
0.86979814
0.86884945
0.86526476
0.85881215
0.84739313
0.82372506
1.1569169
1.1537542
1.1495224
1.1444698
1.1387857
1.1326215
1.1261112
1.1193845
1.1125808
1.1058745
1.0994896
1.0937249
1.0890258
1.0863253
1.0862528
1.0883511
1.0902554
1.0900705
1.0873141
1.0821438
1.0750208
1.0661899
1.0554973
1.0426726
1.0276697
1.010708
0.99204864
0.97216358
0.94952857
0.92043223
1.1585821
1.158477
1.1582868
1.157998
1.1576018
1.1570927
1.1564686
1.1557313
1.1548877
1.1539517
1.1529497
1.1519298
1.1509695
1.1501984
1.1495773
1.1467546
1.1377998
1.1245792
1.109734
1.0940145
1.0782564
1.0619249
1.0435758
1.0225487
0.99943484
0.9756709
0.95289829
0.93245024
0.91330502
0.8887605
1.1586181
1.1586146
1.1586066
1.1585914
1.1585661
1.1585274
1.1584719
1.158396
1.1582961
1.1581687
1.1580106
1.1578189
1.1575853
1.1572347
1.1558693
1.1450114
1.1171377
1.0880719
1.0614986
1.0284147
0.9971314
0.97192186
0.95251887
0.93719167
0.92450845
0.9136084
0.904226
0.89616716
0.88616496
0.86699202
1.0845142
1.0242187
0.97562278
0.9351879
0.90056424
0.87032282
0.84354936
0.81960946
0.79804731
0.77852753
0.76082233
0.74483272
0.7308931
0.72856172
0.72922094
0.73177539
0.73336346
0.73281112
0.73124698
0.73005415
0.73001638
0.73147114
0.73435926
0.73827094
0.74267732
0.74666317
0.74765576
0.74178846
0.73116107
0.71716482
1.1569165
1.1537494
1.1495044
1.1444258
1.1386964
1.1324554
1.125816
1.1188752
1.1117236
1.1044604
1.0972177
1.0902149
1.0838916
1.0794277
1.0776402
1.076654
1.0740913
1.0701731
1.0655372
1.0602652
1.0539829
1.0461313
1.0360905
1.0234702
1.0083664
0.99083193
0.97094728
0.94976362
0.90722641
0.83861155
1.1585821
1.1584768
1.1582858
1.1579952
1.1575954
1.1570798
1.1564442
1.1556872
1.1548102
1.1538191
1.1527289
1.1515757
1.1504454
1.1495108
1.1483854
1.1401896
1.1255922
1.1136444
1.103597
1.092947
1.0795693
1.0621473
1.0397577
1.0135127
0.98536333
0.95544916
0.92577454
0.90457744
0.88465412
0.8433637
1.1586181
1.1586146
1.1586065
1.1585912
1.1585657
1.1585265
1.15847
1.1583923
1.1582892
1.1581565
1.1579895
1.1577832
1.1575238
1.157032
1.1533745
1.1153497
1.0580076
1.0246294
1.0269572
1.0219298
1.0006391
0.97706466
0.9601165
0.94544874
0.93180688
0.91524091
0.89202151
0.87373066
0.85566856
0.82825191
1.0845127
1.0242034
0.97558543
0.93512254
0.90046366
0.87017606
0.84334125
0.81931985
0.79764327
0.77797657
0.76010661
0.74396712
0.73006025
0.73063333
0.73423658
0.73685763
0.73524302
0.72915388
0.72240954
0.71545665
0.70865778
0.70234698
0.69683201
0.69234004
0.68895116
0.68650581
0.68436068
0.68123128
0.67545869
0.6648109
1.1569164
1.1537476
1.1494972
1.1444086
1.1386631
1.132398
1.125723
1.1187308
1.1115052
1.1041379
1.0967637
1.0896351
1.0833097
1.0792817
1.0779954
1.0749032
1.070087
1.0638008
1.052529
1.0382663
1.0225896
1.0056103
0.98562066
0.96043477
0.93063972
0.89780041
0.86285175
0.82607566
0.78643314
0.74039855
1.1585821
1.1584767
1.1582853
1.1579939
1.1575925
1.1570739
1.1564336
1.1556692
1.1547807
1.1537723
1.1526579
1.1514781
1.1503422
1.1494426
1.1472275
1.1310546
1.1194078
1.1122612
1.1069255
1.0997655
1.08797
1.0688597
1.041628
1.0100463
0.97908542
0.95227438
0.92445644
0.88948341
0.84439053
0.78672633
1.1586181
1.1586146
1.1586065
1.1585911
1.1585654
1.1585259
1.1584689
1.1583902
1.1582855
1.1581498
1.1579777
1.1577618
1.1574737
1.1566696
1.1476452
1.0435695
0.99986402
0.99018463
0.98493366
0.98021469
0.97184144
0.95989198
0.94734578
0.93447591
0.92148789
0.9083843
0.89674117
0.88180142
0.84487994
0.79655689
1.0845232
1.0242212
0.97560944
0.93515332
0.90050273
0.87022615
0.84340573
0.81939941
0.79773533
0.77806905
0.76017605
0.74397787
0.72992885
0.73019056
0.73353738
0.73672159
0.73612886
0.73068101
0.72393497
0.71707206
0.71045769
0.70441819
0.69923589
0.69512223
0.69215999
0.69017869
0.68851342
0.68582997
0.68034448
0.66996262
1.1569167
1.1537483
1.1494986
1.1444109
1.1386667
1.1324032
1.1257305
1.1187408
1.1115174
1.1041494
1.0967641
1.0895969
1.0831653
1.078923
1.077543
1.0750119
1.0705591
1.0649968
1.0560335
1.0446507
1.0329705
1.0215372
1.0087243
0.99176136
0.9689082
0.94021748
0.90601947
0.8662351
0.81967454
0.76404612
1.1585821
1.1584767
1.1582854
1.157994
1.1575926
1.1570742
1.1564341
1.1556699
1.1547817
1.1537732
1.1526577
1.1514721
1.1503173
1.149394
1.1476672
1.1321695
1.1187648
1.1101294
1.1040708
1.0964071
1.0837994
1.0633041
1.0341874
1.000109
0.96809571
0.94587538
0.93161747
0.90741627
0.86808915
0.8110889
1.1586181
1.1586146
1.1586065
1.1585911
1.1585654
1.158526
1.1584689
1.1583903
1.1582856
1.1581501
1.1579783
1.1577635
1.1574838
1.1568231
1.1501167
1.0654465
1.0022984
0.98971549
0.98342515
0.97789324
0.96944119
0.95694521
0.94352182
0.92985204
0.9165532
0.90412772
0.89328396
0.88767389
0.86152059
0.81989534
1.0845369
1.0242591
0.97568036
0.93526367
0.90066093
0.87044526
0.84370232
0.81979251
0.79825545
0.7787578
0.76106226
0.74504967
0.73102791
0.72850954
0.72891553
0.73183351
0.73457387
0.73534496
0.73499818
0.73496475
0.73607495
0.73858217
0.74232211
0.74684293
0.75160866
0.75587499
0.75744205
0.75215488
0.73914195
0.72444181
1.156917
1.153751
1.1495075
1.1444311
1.1387045
1.1324674
1.125833
1.1188984
1.1117535
1.1044958
1.0972522
1.0902281
1.0838317
1.0791987
1.0772277
1.0767593
1.074895
1.071363
1.0669772
1.0619581
1.0559751
1.0484981
1.0388861
1.0266569
1.0117401
0.99413124
0.97396694
0.95337376
0.91924368
0.85342439
1.1585821
1.1584769
1.1582859
1.1579954
1.1575958
1.1570805
1.1564453
1.1556888
1.1548124
1.1538218
1.1527312
1.151574
1.1504289
1.1494639
1.1485058
1.1421928
1.1273107
1.1135564
1.1025767
1.0912716
1.0770952
1.0586267
1.0349086
1.0074037
0.97916072
0.95179013
0.92429352
0.90622848
0.89131828
0.8577014
1.1586181
1.1586146
1.1586065
1.1585912
1.1585657
1.1585265
1.1584701
1.1583924
1.1582895
1.1581569
1.1579901
1.1577843
1.1575287
1.1570996
1.1544435
1.1262475
1.0682165
1.0237759
1.0238952
1.0229474
1.001868
0.97809905
0.96096392
0.94633613
0.93303254
0.91926942
0.89721537
0.87956634
0.86292725
0.83775533
1.0845588
1.0243338
0.97584716
0.93556396
0.90115837
0.87124636
0.84497691
0.82178569
0.80132183
0.78342026
0.76810226
0.75552487
0.74619006
0.74866639
0.75570496
0.76808026
0.7848668
0.8032532
0.82072851
0.83594934
0.84843573
0.85816618
0.86516883
0.8693802
0.87074614
0.86937348
0.86545384
0.8588478
0.84762899
0.82415243
1.1569177
1.1537566
1.1495272
1.1444777
1.1387977
1.1326385
1.1261343
1.1194147
1.1126183
1.1059168
1.0995316
1.0937546
1.0890154
1.0862208
1.0860022
1.0881846
1.0905379
1.0907432
1.0882031
1.083088
1.0759061
1.0669546
1.0561243
1.0431949
1.0281957
1.0114528
0.99324988
0.97419427
0.95359417
0.92756161
1.1585822
1.1584771
1.1582869
1.1579983
1.1576024
1.1570937
1.15647
1.1557334
1.1548905
1.1539551
1.152953
1.1519312
1.1509641
1.1501768
1.1495906
1.1474903
1.1394978
1.1261047
1.110777
1.0944808
1.0780882
1.0610909
1.042085
1.0205853
0.99756707
0.97483556
0.95343677
0.93437872
0.91709235
0.89684763
1.1586181
1.1586146
1.1586066
1.1585914
1.1585661
1.1585275
1.158472
1.1583962
1.1582963
1.1581691
1.1580112
1.1578197
1.1575873
1.1572544
1.1561759
1.1481287
1.1227436
1.0907129
1.0631191
1.0296481
0.99819547
0.97285785
0.95341121
0.93813321
0.92559406
0.91497238
0.9058456
0.89799
0.88862207
0.8721188
1.0845742
1.0244752
0.97612846
0.93599471
0.90176434
0.87207148
0.84610972
0.82342719
0.80384586
0.78741821
0.77432593
0.76486848
0.75947067
0.76509966
0.77430505
0.78615958
0.79904668
0.81087062
0.82026881
0.8270634
0.83180794
0.83510256
0.83728146
0.83837272
0.83822976
0.83663874
0.8332419
0.82718309
0.8165454
0.8003955
1.1569184
1.153769
1.1495599
1.144536
1.1388873
1.1327713
1.1263379
1.119752
1.1131849
1.1068668
1.1010457
1.096038
1.0921734
1.089989
1.0893835
1.0895011
1.0889516
1.0863128
1.0814319
1.07504
1.0678421
1.0600445
1.0516002
1.0423454
1.0321016
1.0207632
1.0083377
0.99502238
0.98068942
0.95637778
1.1585822
1.1584776
1.1582885
1.1580014
1.1576068
1.1570989
1.1564758
1.1557405
1.1549011
1.1539738
1.1529847
1.1519136
1.1506765
1.1492974
1.1471293
1.1419697
1.1317827
1.1149667
1.0942339
1.0733489
1.0547289
1.0373483
1.0207103
1.0046934
0.98921898
0.97406768
0.95833851
0.94165595
0.9240354
0.90491659
1.1586181
1.1586146
1.1586067
1.1585915
1.1585663
1.1585274
1.1584714
1.1583942
1.1582917
1.1581593
1.15799
1.1577586
1.1573225
1.1556388
1.1485839
1.129858
1.0982728
1.060962
1.0250464
0.99322984
0.96670482
0.94634239
0.93081891
0.91831232
0.90779418
0.89889433
0.8916288
0.88527031
0.87898089
0.87203509
1.084572
1.02386
0.97448268
0.93300104
0.89710411
0.8653714
0.83694652
0.81140508
0.78903581
0.76947165
0.75250834
0.73809101
0.72644043
0.72315209
0.72254828
0.72481618
0.72967353
0.73628615
0.74357779
0.7506325
0.75687512
0.76202207
0.76596055
0.76863871
0.77000526
0.76997586
0.76837252
0.76478663
0.75834688
0.7480237
1.1569165
1.1537072
1.1493332
1.1440079
1.1378905
1.1311046
1.1237651
1.1159376
1.1053623
1.0914737
1.0726777
1.0475394
1.0160508
0.98217319
0.94957995
0.92167207
0.89985733
0.88379462
0.87254959
0.8652857
0.86119604
0.85932972
0.85869176
0.85834986
0.85746262
0.85521917
0.85066809
0.84237674
0.82788946
0.8052524
1.1585821
1.1584746
1.1582752
1.1579642
1.1575251
1.1569434
1.1562077
1.1553077
1.1541763
1.1527333
1.1507904
1.1458296
1.1319694
1.1057211
1.0697065
1.0300285
0.99163676
0.95858587
0.93177253
0.91099988
0.89564011
0.8847813
0.87735733
0.87229198
0.86859247
0.86536454
0.86173035
0.85659741
0.8480936
0.83357054
1.1586181
1.1586145
1.158606
1.1585892
1.1585602
1.1585141
1.1584451
1.1583463
1.1582076
1.1580141
1.1577334
1.1571909
1.1555735
1.1468996
1.1203878
1.0810946
1.0409352
1.005157
0.9746213
0.94921016
0.92868132
0.9126269
0.9004037
0.89121728
0.88425306
0.87875296
0.87400899
0.86922912
0.86316729
0.85381905
)
;

boundaryField
{
    maxY
    {
        type            calculated;
        value           nonuniform List<scalar> 
300
(
1.1586175
1.1586175
1.1586175
1.1586175
1.1586175
1.1586175
1.1586175
1.1586175
1.1586175
1.1586175
1.158614
1.1586141
1.1586141
1.1586141
1.1586141
1.1586141
1.1586141
1.1586141
1.1586141
1.158614
1.1586054
1.1586061
1.1586061
1.158606
1.158606
1.158606
1.158606
1.1586061
1.1586061
1.1586054
1.1585887
1.158591
1.1585909
1.1585907
1.1585906
1.1585906
1.1585907
1.1585909
1.158591
1.1585887
1.1585597
1.1585657
1.1585656
1.1585651
1.1585649
1.1585649
1.1585652
1.1585656
1.1585657
1.1585597
1.1585135
1.1585269
1.1585269
1.1585259
1.1585254
1.1585254
1.158526
1.158527
1.1585269
1.1585136
1.1584444
1.1584708
1.1584714
1.1584695
1.1584684
1.1584684
1.1584695
1.1584715
1.1584709
1.1584446
1.1583455
1.1583935
1.1583955
1.1583918
1.1583897
1.1583898
1.1583919
1.1583956
1.1583937
1.1583457
1.1582067
1.158291
1.1582956
1.1582887
1.158285
1.1582851
1.1582889
1.1582958
1.1582912
1.1582071
1.158013
1.1581585
1.1581681
1.158156
1.1581493
1.1581496
1.1581563
1.1581685
1.1581588
1.1580136
1.157732
1.1579891
1.1580101
1.157989
1.1579772
1.1579778
1.1579896
1.1580107
1.1579895
1.1577329
1.1571902
1.1577582
1.1578184
1.1577827
1.1577613
1.1577629
1.1577838
1.1578192
1.157758
1.1571903
1.1555903
1.1573283
1.1575848
1.1575233
1.1574732
1.1574832
1.1575281
1.1575868
1.157322
1.155573
1.1471023
1.1557055
1.1572341
1.1570315
1.1566691
1.1568225
1.1570991
1.1572539
1.1556383
1.1468991
1.1211048
1.1489711
1.1558687
1.153374
1.1476446
1.1501162
1.154443
1.1561753
1.1485834
1.1203873
1.0822727
1.1307225
1.1450109
1.1153492
1.0435691
1.0654461
1.126247
1.1481282
1.1298575
1.0810942
1.0423132
1.0995464
1.1171372
1.0580072
0.99986362
1.002298
1.0682161
1.1227431
1.0982723
1.0409347
1.006488
1.0623152
1.0880715
1.024629
0.99018425
0.98971511
1.0237755
1.0907124
1.0609616
1.0051566
0.97572638
1.0261153
1.0614982
1.0269568
0.98493328
0.98342477
1.0238948
1.0631186
1.025046
0.97462093
0.95001263
0.99388743
1.0284143
1.0219293
0.98021431
0.97789286
1.022947
1.0296476
0.99322945
0.94920981
0.92917198
0.96698365
0.99713101
1.0006387
0.97184107
0.96944082
1.0018676
0.99819508
0.96670445
0.92868099
0.91282948
0.94645634
0.97192149
0.97706429
0.95989161
0.95694485
0.97809868
0.97285748
0.94634204
0.91262658
0.90035091
0.93078286
0.95251852
0.96011614
0.94734543
0.94352147
0.96096356
0.95341085
0.93081857
0.90040339
0.89094067
0.91813175
0.93719133
0.94544839
0.93447557
0.9298517
0.94633578
0.93813287
0.91831199
0.89121697
0.88378184
0.90743864
0.92450811
0.93180654
0.92148756
0.91655287
0.9330322
0.92559373
0.90779386
0.88425275
0.87811441
0.89823203
0.91360807
0.91524058
0.90838398
0.9041274
0.91926909
0.91497205
0.89889401
0.87875265
0.87323024
0.89077428
0.90422568
0.8920212
0.89674086
0.89328364
0.89721506
0.90584528
0.89162849
0.87400869
0.8683358
0.88429632
0.89616685
0.87373036
0.88180112
0.88767358
0.87956604
0.89798969
0.88527001
0.86922883
0.86218535
0.87793606
0.88616465
0.85566828
0.84487966
0.8615203
0.86292696
0.88862176
0.87898059
0.863167
0.85277732
0.87097942
0.86699172
0.82825164
0.79655664
0.81989508
0.83775506
0.87211851
0.87203479
0.85381877
)
;
    }
    minX
    {
        type            calculated;
        value           nonuniform List<scalar> 
40
(
1.1586221
1.1586211
1.15862
1.158619
1.1586221
1.1586211
1.15862
1.158619
1.1586221
1.1586211
1.15862
1.158619
1.1586221
1.1586211
1.15862
1.158619
1.1586221
1.1586211
1.15862
1.158619
1.1586221
1.1586211
1.15862
1.158619
1.1586221
1.1586211
1.15862
1.158619
1.1586221
1.1586211
1.15862
1.158619
1.1586221
1.1586211
1.15862
1.158619
1.1586221
1.1586211
1.15862
1.158619
)
;
    }
    maxX
    {
        type            calculated;
        value           nonuniform List<scalar> 
40
(
0.74704333
0.80405261
0.83244941
0.85279041
0.80014012
0.95422089
0.90321178
0.87098093
0.82370807
0.92047375
0.88893017
0.86760121
0.71720125
0.83817929
0.84332897
0.82999871
0.66482754
0.74007338
0.78632815
0.79765796
0.66993396
0.76369194
0.81075566
0.82086241
0.72435122
0.85325312
0.85791012
0.8384679
0.82408619
0.9276373
0.89703131
0.87250469
0.8003234
0.95633899
0.90488858
0.87202576
0.74798492
0.80519465
0.83353737
0.85380501
)
;
    }
    minZ
    {
        type            calculated;
        value           nonuniform List<scalar> 
120
(
1.0845221
1.1569153
1.158582
1.1586181
1.0237715
1.1537037
1.1584745
1.1586145
0.97436094
1.1493264
1.1582749
1.158606
0.93284982
1.1439968
1.1579637
1.1585892
0.89692528
1.1378743
1.1575242
1.1585602
0.86516641
1.1310825
1.1569421
1.158514
0.83672207
1.1237362
1.1562058
1.158445
0.81117746
1.1158838
1.1553045
1.158346
0.78881517
1.1052689
1.1541709
1.1582073
0.76926704
1.0913332
1.1527246
1.1580135
0.75232466
1.0724901
1.1507773
1.1577326
0.73792908
1.0473584
1.1457946
1.1571908
0.72630024
1.0159458
1.1319822
1.1555908
0.72302585
0.98220588
1.1059134
1.1471028
0.72245033
0.94977276
1.0701948
1.1211053
0.72477104
0.92197145
1.0307654
1.0822731
0.72968849
0.90013881
0.99252126
1.0423136
0.73633618
0.88394747
0.95943354
1.0064884
0.74361582
0.87252669
0.93244444
0.97572675
0.75060133
0.86507984
0.91143062
0.95001298
0.75672238
0.86080837
0.89581161
0.92917232
0.76171198
0.85875565
0.88469858
0.91282981
0.76548162
0.85792661
0.87703523
0.90035123
0.7680055
0.85739778
0.87175051
0.89094098
0.76925315
0.85634405
0.86785688
0.88378215
0.7691497
0.85396797
0.86446576
0.87811472
0.76751126
0.84932222
0.86070107
0.87323054
0.7639161
0.84099841
0.85547761
0.8683361
0.75746829
0.82659307
0.84694415
0.86218564
0.7470541
0.80407113
0.83244134
0.8527776
)
;
    }
    maxZ
    {
        type            calculated;
        value           nonuniform List<scalar> 
120
(
1.084572
1.1569165
1.1585821
1.1586181
1.02386
1.1537072
1.1584746
1.1586145
0.97448268
1.1493332
1.1582752
1.158606
0.93300104
1.1440079
1.1579642
1.1585892
0.89710411
1.1378905
1.1575251
1.1585602
0.8653714
1.1311046
1.1569434
1.1585141
0.83694652
1.1237651
1.1562077
1.1584451
0.81140508
1.1159376
1.1553077
1.1583463
0.78903581
1.1053623
1.1541763
1.1582076
0.76947165
1.0914737
1.1527333
1.1580141
0.75250834
1.0726777
1.1507904
1.1577334
0.73809101
1.0475394
1.1458296
1.1571909
0.72644043
1.0160508
1.1319694
1.1555735
0.72315209
0.98217319
1.1057211
1.1468996
0.72254828
0.94957995
1.0697065
1.1203878
0.72481618
0.92167207
1.0300285
1.0810946
0.72967353
0.89985733
0.99163676
1.0409352
0.73628615
0.88379462
0.95858587
1.005157
0.74357779
0.87254959
0.93177253
0.9746213
0.7506325
0.8652857
0.91099988
0.94921016
0.75687512
0.86119604
0.89564011
0.92868132
0.76202207
0.85932972
0.8847813
0.9126269
0.76596055
0.85869176
0.87735733
0.9004037
0.76863871
0.85834986
0.87229198
0.89121728
0.77000526
0.85746262
0.86859247
0.88425306
0.76997586
0.85521917
0.86536454
0.87875296
0.76837252
0.85066809
0.86173035
0.87400899
0.76478663
0.84237674
0.85659741
0.86922912
0.75834688
0.82788946
0.8480936
0.86316729
0.7480237
0.8052524
0.83357054
0.85381905
)
;
    }
    topAir_to_rightSolid
    {
        type            calculated;
        value           nonuniform List<scalar> 
130
(
0.48691664
0.48214392
0.47725498
0.47253601
0.46816631
0.46424556
0.46082379
0.45791956
0.45552561
0.45362555
0.45220532
0.45126043
0.45078618
0.49043037
0.48479127
0.4791769
0.4738889
0.46910207
0.46488724
0.46126097
0.45821975
0.45573825
0.45378596
0.45233389
0.45136882
0.45088454
0.49768315
0.48998737
0.48276865
0.47632107
0.47073207
0.46597537
0.4619923
0.45871567
0.45608162
0.45403685
0.45253431
0.45154164
0.45104531
0.50900544
0.49724775
0.48735651
0.47921493
0.47256608
0.46715143
0.46276002
0.45922636
0.45643097
0.45428485
0.45272207
0.4516984
0.45119103
0.52322391
0.50447418
0.49129527
0.48148037
0.47392927
0.46800516
0.46331242
0.45959656
0.45668934
0.45447493
0.45287227
0.45182881
0.45131352
0.52337173
0.50463664
0.49145794
0.48163277
0.47407258
0.46814185
0.46344114
0.4597161
0.4567952
0.45456963
0.45295724
0.45190701
0.45138885
0.50932279
0.49764106
0.48778221
0.47964593
0.4729781
0.46754478
0.46312988
0.45956834
0.45673927
0.45456548
0.45297954
0.45193952
0.45142681
0.49803357
0.49043487
0.48330398
0.47691773
0.47134679
0.46658376
0.46257938
0.45926887
0.45659037
0.45449736
0.45295665
0.45193938
0.45143732
0.49077906
0.48524764
0.47974931
0.47455782
0.46982697
0.46563223
0.46199192
0.45891275
0.4563776
0.45437611
0.452888
0.45190193
0.45141181
0.48724406
0.48258259
0.47782796
0.47321963
0.46892116
0.4650345
0.46161108
0.45867268
0.45622733
0.45428386
0.45283243
0.45186706
0.45138461
)
;
    }
    topAir_to_heater
    {
        type            calculated;
        value           nonuniform List<scalar> 
40
(
0.49872298
0.49741192
0.49486525
0.491272
0.50471347
0.50315052
0.50005972
0.49568747
0.51782266
0.51569664
0.51140383
0.50519327
0.54088352
0.53791902
0.53164224
0.52181324
0.57867617
0.57566652
0.5677215
0.55225642
0.57865938
0.57567271
0.56776549
0.55235008
0.54083929
0.53793234
0.53174803
0.52202731
0.51784427
0.51573192
0.51152746
0.5054333
0.50473044
0.50320706
0.50020431
0.49593119
0.4987474
0.4975024
0.49502157
0.49150311
)
;
    }
    topAir_to_leftSolid
    {
        type            calculated;
        value           nonuniform List<scalar> 
130
(
0.433184
0.43318801
0.43320979
0.43325534
0.43332634
0.43342013
0.43354409
0.43369736
0.43387495
0.43406836
0.43423633
0.43435715
0.43442964
0.43315093
0.43315655
0.43317924
0.43322683
0.43330104
0.43339654
0.43352308
0.43368795
0.43387818
0.43407612
0.43424219
0.43438234
0.43445951
0.43310991
0.43312088
0.4331504
0.43320559
0.43328949
0.43339984
0.43353652
0.43370675
0.43389882
0.43409659
0.43427915
0.43443378
0.43452332
0.43306881
0.43309064
0.43313328
0.43320627
0.4333077
0.43343539
0.43358716
0.43376641
0.43397104
0.43418642
0.43440245
0.43459359
0.43471292
0.43305695
0.4330821
0.43314029
0.4332302
0.43334995
0.43349695
0.4336685
0.4338626
0.43408027
0.43431902
0.4345521
0.43473355
0.43484121
0.43309854
0.43312242
0.43318368
0.43328241
0.43341578
0.43358409
0.43378352
0.43399015
0.43419902
0.43440018
0.43458202
0.4347277
0.43482675
0.4331593
0.43319031
0.43325589
0.43335509
0.43348942
0.43366096
0.43385525
0.43403668
0.43420908
0.43437212
0.4345183
0.43462758
0.43468863
0.4332448
0.43327383
0.43333624
0.43342713
0.43354671
0.43369979
0.4338639
0.43401632
0.43415994
0.43429476
0.43441671
0.43451145
0.43456676
0.43333011
0.43335406
0.43341105
0.43348813
0.43358869
0.43371776
0.43385228
0.4339796
0.43410241
0.43422069
0.43432666
0.43440985
0.43445943
0.43338231
0.43340462
0.43345347
0.43352073
0.43361368
0.43372835
0.43384397
0.43395537
0.43406463
0.43417494
0.43427203
0.43434732
0.43439071
)
;
    }
}


// ************************************************************************* //
