/*--------------------------------*- C++ -*----------------------------------*\
| =========                 |                                                 |
| \\      /  F ield         | OpenFOAM: The Open Source CFD Toolbox           |
|  \\    /   O peration     | Version:  v2012                                 |
|   \\  /    A nd           | Website:  www.openfoam.com                      |
|    \\/     M anipulation  |                                                 |
\*---------------------------------------------------------------------------*/
FoamFile
{
    version     2.0;
    format      ascii;
    class       volScalarField;
    location    "250/topAir";
    object      T;
}
// * * * * * * * * * * * * * * * * * * * * * * * * * * * * * * * * * * * * * //

dimensions      [0 0 0 1 0 0 0];


internalField   nonuniform List<scalar> 
1200
(
320.49749
339.51582
356.73291
372.60725
387.53128
401.75692
415.41463
428.49635
440.64387
451.84123
462.01671
471.02975
478.57143
480.73874
481.1217
479.58114
476.34918
472.04866
467.42753
463.07739
459.33159
456.32273
454.07555
452.58333
451.84928
451.91005
452.87475
455.00608
458.87923
465.27617
300.44234
301.27868
302.42613
303.83505
305.46987
307.30414
309.31309
311.48971
314.48122
318.49695
324.09279
331.8695
342.13074
353.88334
365.96784
377.0033
386.14741
393.2205
398.36748
401.79674
403.79051
404.75571
405.14683
405.39672
405.89555
407.02491
409.25132
413.30189
420.50466
432.28294
300.00984
300.03768
300.08938
300.17003
300.284
300.4351
300.62643
300.86094
301.15644
301.5343
302.04455
303.35804
307.05959
314.29768
324.78761
337.21155
350.20509
362.28251
372.76858
381.36308
388.01237
392.88634
396.3193
398.72186
400.51073
402.08185
403.84054
406.30635
410.40013
417.55013
300.00024
300.00116
300.00337
300.00771
300.01522
300.02717
300.04506
300.07068
300.10664
300.15685
300.22969
300.37026
300.78613
303.0118
310.03841
321.16265
333.47516
345.34499
356.23265
365.87472
374.08104
380.77826
386.05573
390.13331
393.29348
395.83184
398.04582
400.28943
403.14492
407.59251
320.49541
339.30918
356.12786
371.41173
385.5251
398.6687
410.91863
422.25078
432.54479
441.57129
449.03533
454.5791
457.78891
454.37443
448.86384
441.93055
434.66459
428.27638
423.40899
420.03437
417.77433
416.26439
415.29489
414.82489
414.91509
415.674
417.30373
420.27435
425.66515
434.39265
300.4418
301.26246
302.36631
303.69457
305.20214
306.85154
308.60603
310.42308
312.25623
314.04063
315.70237
317.14448
318.26202
318.88507
319.02963
318.95747
319.11797
319.93621
321.44171
323.41414
325.64641
328.08588
330.75675
333.72698
337.07868
340.88153
345.17086
349.92392
355.26863
364.23869
300.00981
300.0369
300.08592
300.16038
300.26277
300.39467
300.55667
300.74805
300.96684
301.20889
301.46747
301.74768
302.07006
302.42468
302.98037
304.3429
307.15024
311.89642
317.89217
324.13868
329.8966
335.49676
341.04408
346.55715
352.03792
357.50533
363.39068
369.85399
376.90878
384.81756
300.00024
300.00112
300.00319
300.00711
300.01366
300.02372
300.03825
300.05825
300.08482
300.11915
300.16304
300.22291
300.33442
300.75614
302.51894
307.40127
316.11721
327.19623
338.73927
349.72327
359.45341
367.24946
373.43359
378.57921
383.04033
386.96638
390.20616
393.06464
395.91222
399.07443
320.49669
339.34969
356.22132
371.57128
385.77123
399.03171
411.45454
423.08381
433.90266
443.82502
452.6772
460.20215
465.92355
464.30519
459.8443
452.37662
442.87901
433.07176
424.16888
416.67482
410.65493
405.98877
402.58565
400.45177
399.61744
400.05377
401.71114
404.72935
410.18325
421.96902
300.44191
301.26548
302.37455
303.70947
305.22539
306.88656
308.66074
310.51557
312.41446
314.30902
316.13425
317.8005
319.17177
319.96521
319.98656
319.36964
318.81181
318.86586
319.67421
321.20155
323.3298
326.00782
329.31041
333.36089
338.22758
343.90372
350.37217
357.53883
366.06188
377.63367
300.00981
300.03703
300.08632
300.16114
300.26387
300.39598
300.55811
300.74984
300.96954
301.21366
301.47544
301.74236
301.99411
302.19655
302.35984
303.10408
305.4896
309.08093
313.21559
317.71606
322.35929
327.31692
333.0721
339.92119
347.78253
356.2533
364.76713
372.76625
380.58038
391.0907
300.00024
300.00113
300.00321
300.00714
300.01369
300.0237
300.03808
300.05774
300.08363
300.11664
300.1576
300.20731
300.26788
300.35886
300.71367
303.56526
311.13952
319.45102
327.44808
337.98204
348.58565
357.62721
364.91215
370.88007
375.96814
380.45373
384.40139
387.85815
392.23594
400.90997
320.49984
339.36759
356.27152
371.67569
385.96536
399.37663
412.05246
424.08806
435.54633
446.46664
456.85642
466.66393
475.56415
477.08594
476.65464
474.99075
473.96217
474.3194
475.33396
476.1106
476.13522
475.18828
473.31942
470.81156
468.01818
465.51979
464.90175
468.57897
475.38974
484.66749
300.44202
301.26674
302.3793
303.72116
305.24934
306.93157
308.74168
310.65691
312.65533
314.71143
316.78884
318.82366
320.68364
322.00982
322.54394
322.83937
323.60964
324.79444
326.20754
327.82956
329.78361
332.25873
335.47868
339.61543
344.70233
350.80243
357.98673
365.97131
383.13063
414.47822
300.00982
300.03708
300.08657
300.16187
300.26553
300.39934
300.56444
300.76131
300.98972
301.24827
301.53317
301.83513
302.13168
302.37732
302.67366
304.8493
308.80277
312.11579
314.95734
318.02639
321.96727
327.24839
334.29518
342.95178
352.74905
363.79328
375.45424
384.25232
392.90608
412.14246
300.00024
300.00113
300.00322
300.00718
300.0138
300.02395
300.03858
300.05871
300.0854
300.11979
300.16307
300.21656
300.28384
300.41147
301.36411
311.63831
328.52854
339.23066
338.4617
340.1268
347.36371
355.74484
362.02452
367.641
373.02336
379.77513
389.66072
397.81796
406.21541
419.66191
320.50027
339.37263
356.28516
371.70166
386.00847
399.44399
412.15414
424.23796
435.76695
446.78283
457.2866
467.20689
476.10667
475.73323
473.39858
471.71466
472.75054
476.69846
481.14886
485.82471
490.48571
494.89286
498.8096
502.04592
504.51542
506.3125
507.89953
510.23268
514.59324
522.83512
300.44204
301.26722
302.38118
303.72572
305.25825
306.94713
308.76717
310.69701
312.71678
314.80335
316.91998
318.99331
320.85589
322.05337
322.43765
323.36522
324.82058
326.74001
330.23914
334.77564
339.90791
345.6471
352.65724
361.90512
373.49174
387.15314
402.83425
420.76805
441.97814
469.45833
300.00982
300.03711
300.08669
300.16221
300.2663
300.40087
300.5672
300.76602
300.99742
301.2605
301.55174
301.86071
302.15878
302.39526
302.97913
307.31143
310.50882
312.50393
314.01029
316.05463
319.48123
325.19329
333.69495
344.12876
355.01089
365.00613
375.98957
390.77288
411.64129
441.81313
300.00024
300.00113
300.00323
300.00721
300.01386
300.02409
300.03886
300.05924
300.08637
300.12153
300.16614
300.2221
300.29683
300.5056
302.86861
333.07383
347.63297
351.0312
352.90265
354.60161
357.65681
362.1092
366.9048
371.95793
377.20054
382.64172
387.60988
394.1769
411.40256
436.36031
320.49717
339.36673
356.27639
371.68943
385.99172
399.421
412.12263
424.19677
435.71666
446.72973
457.24483
467.20014
476.19238
476.0217
473.84981
471.80176
472.18165
475.70215
480.13501
484.73025
489.24309
493.43773
497.09477
500.03651
502.17651
503.61809
504.83616
506.81143
510.89777
518.81474
300.44197
301.26703
302.38081
303.72511
305.2573
306.94572
308.76514
310.69423
312.71334
314.80008
316.91984
319.00451
320.89868
322.16044
322.57301
323.33252
324.67733
326.37309
329.14324
332.72966
336.49197
340.25805
344.58004
350.47368
358.74013
369.68707
383.64103
401.26086
424.05397
454.92837
300.00982
300.0371
300.08668
300.16219
300.26625
300.40079
300.56707
300.76582
300.99716
301.26024
301.55181
301.86229
302.16533
302.40805
302.86306
307.0088
310.68729
313.10402
314.8222
317.02275
320.71064
326.89237
336.09575
347.54812
359.04093
367.47545
373.09946
383.0502
400.40357
428.54243
300.00024
300.00113
300.00323
300.00721
300.01386
300.02408
300.03885
300.05922
300.08634
300.12145
300.16598
300.22168
300.29423
300.46574
302.21775
326.23477
346.78866
351.19759
353.44398
355.4434
358.54234
363.22426
368.39182
373.80756
379.23138
384.44318
389.11002
391.56919
403.45613
423.93922
320.49312
339.3542
356.2505
371.64558
385.92392
399.32045
411.97776
423.99336
435.43276
446.33463
456.71239
466.52804
475.47645
477.12011
476.85436
474.95303
473.18119
472.685
472.90801
472.92951
472.2162
470.61319
468.24215
465.40776
462.45674
459.84652
458.89514
462.12087
470.25672
479.79902
300.44187
301.26632
302.37846
303.71975
305.24715
306.92832
308.737
310.65046
312.64692
314.70135
316.77888
318.8198
320.70137
322.07814
322.66744
322.8078
323.36766
324.43371
325.76731
327.30696
329.16143
331.50873
334.57592
338.56126
343.5529
349.63819
356.87683
364.58548
378.12196
407.28414
300.00981
300.03707
300.08654
300.16181
300.26542
300.39917
300.56416
300.7609
300.98915
301.24755
301.53257
301.83559
302.13601
302.38967
302.64192
304.31465
308.33201
312.14043
315.24881
318.51463
322.70685
328.33667
335.86153
345.03146
354.98358
365.19183
376.05584
383.55225
389.96841
405.25289
300.00024
300.00113
300.00322
300.00718
300.0138
300.02394
300.03856
300.05867
300.08535
300.1197
300.16291
300.21628
300.28258
300.39393
301.08506
308.62283
325.38881
339.51344
339.47388
339.78843
346.93764
355.36862
361.70527
367.29626
372.53334
378.11084
387.40502
395.17854
402.79844
414.90128
320.48667
339.32946
356.1896
371.52629
385.71089
398.95328
411.35632
422.96499
433.76652
443.6783
452.52642
460.05972
465.81505
464.27429
459.95008
452.53936
442.86055
432.72351
423.50976
415.79856
409.67926
405.03405
401.75571
399.80955
399.18236
399.81263
401.62337
404.71254
410.06911
421.75021
300.44169
301.26485
302.3733
303.70737
305.22219
306.88195
308.65441
310.50719
312.40392
314.29698
316.12216
317.79187
319.17483
319.99601
320.0604
319.41852
318.72921
318.66923
319.41305
320.92155
323.06375
325.77418
329.11491
333.19398
338.05457
343.65049
349.94843
356.79354
364.5012
374.73111
300.00981
300.03701
300.08627
300.16106
300.26371
300.39574
300.55773
300.7493
300.9688
301.21277
301.47456
301.74198
301.99553
302.20223
302.35634
302.90976
305.03438
308.66222
312.92147
317.58069
322.40958
327.57418
333.54858
340.57512
348.43369
356.55857
364.56112
371.99688
379.00869
387.56411
300.00024
300.00113
300.0032
300.00714
300.01368
300.02369
300.03805
300.0577
300.08356
300.11654
300.15745
300.20709
300.26736
300.35375
300.63393
302.74105
309.586
318.67754
326.94897
337.57719
348.21406
357.28313
364.57061
370.50784
375.52717
379.88658
383.7141
387.07083
391.15137
398.5532
320.48211
339.28262
356.08696
371.35531
385.4517
398.57581
410.80557
422.12182
432.40451
441.42562
448.88922
454.43965
457.66949
454.30232
448.9013
442.1323
435.00154
428.65844
423.7471
420.26588
417.86872
416.22015
415.13699
414.59663
414.66733
415.45589
417.14955
420.205
425.67929
434.26838
300.44151
301.26163
302.36468
303.69191
305.19817
306.84598
308.59861
310.41365
312.2449
314.02722
315.68745
317.12981
318.25194
318.88972
319.06696
319.03253
319.1935
319.96887
321.41301
323.32404
325.50342
327.89778
330.5308
333.46553
336.7752
340.51603
344.71213
349.32503
354.43046
363.44026
300.0098
300.03688
300.08586
300.16027
300.26258
300.39437
300.55623
300.74744
300.96604
301.20788
301.46628
301.74659
302.07099
302.43348
303.00507
304.37408
307.11372
311.74561
317.65235
323.83317
329.55004
335.0716
340.53343
345.96221
351.37413
356.83964
362.69643
369.12203
376.16086
384.10827
300.00024
300.00112
300.00319
300.0071
300.01365
300.0237
300.03822
300.05821
300.08476
300.11906
300.16295
300.22295
300.33606
300.77363
302.62107
307.6366
316.48394
327.6137
339.09263
349.95495
359.55722
367.29381
373.41926
378.5049
382.89044
386.68141
389.83232
392.63231
395.44174
398.59145
320.48276
339.48646
356.68834
372.54686
387.45403
401.66175
415.30322
428.37614
440.52066
451.72108
461.90393
470.92641
478.47908
480.65482
481.05647
479.55128
476.35895
472.08074
467.45144
463.05815
459.2389
456.13704
453.79163
452.21049
451.40793
451.42516
452.36713
454.48816
458.3476
464.67307
300.44202
301.27775
302.42432
303.83211
305.46553
307.29813
309.30514
311.47469
314.45464
318.45596
324.03612
331.81216
342.0954
353.89511
366.04215
377.12576
386.2682
393.28851
398.35703
401.70115
403.60875
404.48531
404.78582
404.94705
405.36606
406.42943
408.60383
412.62563
419.84619
431.64881
300.00983
300.03765
300.08931
300.1699
300.28378
300.43476
300.62593
300.86012
301.15503
301.53202
302.0411
303.34876
307.06306
314.35233
324.93587
337.4528
350.51745
362.60287
373.03739
381.5434
388.08667
392.84961
396.1738
398.47436
400.17154
401.66423
403.35818
405.7752
409.8439
416.98449
300.00024
300.00115
300.00337
300.0077
300.01521
300.02715
300.04503
300.07063
300.10655
300.1567
300.22948
300.37023
300.79063
303.06549
310.23696
321.51274
333.91678
345.80242
356.6367
366.18417
374.27881
380.86292
386.03323
390.01236
393.08403
395.54434
397.69129
399.87818
402.68644
407.09534
)
;

boundaryField
{
    maxY
    {
        type            zeroGradient;
    }
    minX
    {
        type            fixedValue;
        value           uniform 300;
    }
    maxX
    {
        type            inletOutlet;
        inletValue      uniform 300;
        value           nonuniform List<scalar> 
40
(
465.2829
432.29291
417.54609
407.58637
434.407
364.26172
384.83326
399.07386
421.97773
377.6166
391.01603
400.62845
484.64291
414.69197
412.15943
418.77869
522.82209
469.66463
442.03688
435.75797
518.83699
455.13938
428.71859
423.43977
479.85907
407.36589
405.1543
414.54868
421.78411
374.7005
387.48473
398.37691
434.30751
363.45495
384.12014
398.59571
464.69719
431.67977
417.0011
407.10202
)
;
    }
    minZ
    {
        type            zeroGradient;
    }
    maxZ
    {
        type            zeroGradient;
    }
    topAir_to_rightSolid
    {
        type            compressible::turbulentTemperatureCoupledBaffleMixed;
        refValue        nonuniform List<scalar> 
130
(
713.93012
721.00027
728.38902
735.66576
742.53454
748.80751
754.3692
759.15473
763.14511
766.3419
768.74849
770.35723
771.16579
708.82815
717.07641
725.48085
733.57851
741.06598
747.78625
753.66628
758.66923
762.80066
766.08243
768.54114
770.1829
771.00745
698.49481
709.47047
720.08345
729.83437
738.50277
746.04385
752.47766
757.85382
762.2313
765.66406
768.20572
769.89305
770.73658
682.94114
699.09291
713.28433
725.4052
735.61385
744.14256
751.20642
756.98885
761.6267
765.22565
767.86649
769.60484
770.46746
664.37748
689.07457
707.56151
721.98671
733.49117
742.7766
750.30052
756.36721
761.18259
764.89168
767.59837
769.37006
770.24607
664.19012
688.85301
707.32761
721.7586
733.26987
742.56024
750.09272
756.17125
761.00701
764.73327
767.45543
769.23808
770.11876
682.51604
698.54104
712.66272
724.75448
734.97439
743.51799
750.6081
756.42721
761.11432
764.75504
767.432
769.19578
770.06651
698.00335
708.82319
719.28598
728.92145
737.53976
745.07116
751.52269
756.94095
761.38193
764.88817
767.48932
769.21541
770.06724
708.32432
716.40177
724.61501
732.54428
739.92239
746.58966
752.47371
757.52344
761.73191
765.08731
767.60068
769.27413
770.10675
713.45026
720.34472
727.51541
734.60282
741.33905
747.53698
753.08248
757.90815
761.97124
765.23134
767.68386
769.32299
770.1434
)
;
        refGradient     uniform 0;
        valueFraction   uniform 0.99967867;
        value           nonuniform List<scalar> 
130
(
713.8524
720.91879
728.30377
735.57696
742.44257
748.71281
754.27223
759.05599
763.0451
766.24118
768.64768
770.25714
771.0675
708.738
716.98205
725.3827
733.47704
740.96161
747.67941
753.5574
758.55877
762.68912
765.97036
768.42924
770.0722
770.89929
698.40952
709.37879
719.98595
729.73181
738.39592
745.93349
752.36455
757.73871
762.11493
765.54712
768.08893
769.77748
770.62452
682.8741
699.02101
713.20812
725.3251
735.53016
744.05552
751.11631
756.89599
761.53154
765.12914
767.77033
769.51029
770.37562
664.31717
689.00775
707.49026
721.91232
733.4145
742.6982
750.22074
756.28628
761.10068
764.80909
767.51566
769.28818
770.16656
664.12955
688.78594
707.25608
721.68388
733.19281
742.48136
750.01237
756.08964
760.92431
764.64976
767.37168
769.15507
770.03802
682.44862
698.46854
712.58569
724.67334
734.88945
743.42955
750.51646
756.33276
761.01753
764.65678
767.33393
769.09974
769.97326
697.91811
708.73151
719.18846
728.81887
737.43292
744.96085
751.40968
756.82599
761.26575
764.77144
767.37276
769.10002
769.95533
708.23446
716.30774
724.51722
732.44316
739.81838
746.48316
752.36514
757.41328
761.62065
764.97551
767.48906
769.16374
769.99885
713.37271
720.26346
727.43044
734.51434
741.24741
747.44259
752.9858
757.80966
761.87146
765.13081
767.58322
769.22307
770.04525
)
;
        Tnbr            T;
        thicknessLayers List<scalar> 0();
        kappaLayers     List<scalar> 0();
        kappaMethod     fluidThermo;
        kappa           none;
        alphaAni        none;
        alpha           none;
        field           T;
    }
    topAir_to_heater
    {
        type            compressible::turbulentTemperatureCoupledBaffleMixed;
        refValue        nonuniform List<scalar> 
40
(
697.02281
698.86027
702.45802
707.59808
688.75647
690.89819
695.17166
701.30704
671.31303
674.08264
679.74465
688.10589
642.68077
646.22359
653.8555
666.17487
600.69847
603.84054
612.29368
629.44391
600.71582
603.83389
612.2462
629.33734
642.73332
646.20752
653.7254
665.90188
671.28502
674.03648
679.58028
687.77904
688.73332
690.82053
694.97059
700.96223
696.9887
698.73317
702.23615
707.26528
)
;
        refGradient     uniform 0;
        valueFraction   uniform 0.99967867;
        value           nonuniform List<scalar> 
40
(
696.95332
698.79031
702.38641
707.52377
688.68116
690.82041
695.09028
701.22136
671.24651
674.0138
679.67159
688.02709
642.62755
646.1691
653.79802
666.11311
600.65831
603.79862
612.24851
629.39356
600.67575
603.79213
612.20107
629.28684
642.6801
646.1531
653.66795
665.83995
671.2185
673.96769
679.50732
687.70034
688.658
690.7428
694.88935
700.87677
696.91919
698.66322
702.1646
707.19108
)
;
        Tnbr            T;
        thicknessLayers List<scalar> 0();
        kappaLayers     List<scalar> 0();
        kappaMethod     fluidThermo;
        kappa           none;
        alphaAni        none;
        alpha           none;
        field           T;
    }
    topAir_to_leftSolid
    {
        type            compressible::turbulentTemperatureCoupledBaffleMixed;
        refValue        nonuniform List<scalar> 
130
(
802.55474
802.54116
802.49524
802.40572
802.26941
802.09118
801.8574
801.56975
801.23768
800.87698
800.56384
800.33819
800.20217
802.61602
802.59953
802.55204
802.45893
802.3169
802.13584
801.89772
801.58915
801.23432
800.86598
800.55722
800.29709
800.15387
802.69205
802.66562
802.60546
802.49822
802.33823
802.12961
801.87268
801.55413
801.19576
800.82748
800.48791
800.2005
800.03373
802.76824
802.72166
802.63716
802.49694
802.30443
802.0637
801.77881
801.44355
801.06187
800.6609
800.25932
799.90411
799.68163
802.79023
802.7375
802.62416
802.45259
802.2262
801.94978
801.62838
801.26579
800.8602
800.41632
799.98353
799.64636
799.44546
802.71312
802.66276
802.54377
802.35589
802.10433
801.78857
801.4158
801.03026
800.64114
800.26676
799.92846
799.65714
799.47203
802.60051
802.53695
802.41
802.22131
801.96807
801.64646
801.28332
800.94445
800.62269
800.31859
800.04596
799.84158
799.72634
802.4421
802.38225
802.26121
802.088
801.86215
801.57479
801.26755
800.98235
800.71385
800.46204
800.23443
800.05749
799.95377
802.2841
802.23368
802.12275
801.97516
801.78459
801.5417
801.28919
801.05041
800.82042
800.59932
800.40154
800.24644
800.15405
802.18746
802.14002
802.04404
801.91446
801.73772
801.52114
801.30309
801.09312
800.88752
800.68038
800.49804
800.35633
800.27392
)
;
        refGradient     uniform 0;
        valueFraction   uniform 0.99967867;
        value           nonuniform List<scalar> 
130
(
802.39985
802.39238
802.352
802.26762
802.13614
801.96254
801.73322
801.44987
801.12181
800.76482
800.45505
800.23238
800.09882
802.4611
802.45066
802.40859
802.32042
802.18298
802.0062
801.77209
801.46726
801.11585
800.75053
800.44426
800.186
800.04386
802.53711
802.51674
802.46203
802.35975
802.20437
802.00009
801.74723
801.43251
801.07773
800.71276
800.37614
800.09125
799.92637
802.61328
802.57278
802.49374
802.35851
802.17065
801.93431
801.65358
801.3223
800.94442
800.54709
800.14897
799.79703
799.57748
802.63525
802.58861
802.48074
802.31418
802.09245
801.82044
801.50323
801.14464
800.74288
800.30268
799.87341
799.53953
799.34157
802.55817
802.51389
802.40037
802.2175
801.97062
801.65928
801.29071
800.90917
800.52388
800.15316
799.81835
799.55031
799.36815
802.44559
802.38812
802.26664
802.08295
801.83439
801.51718
801.15823
800.82332
800.50534
800.20484
799.93564
799.73448
799.62215
802.28723
802.23346
802.11788
801.94964
801.72843
801.44542
801.14226
800.86088
800.59594
800.34739
800.12271
799.94823
799.8464
802.12929
802.08492
801.97942
801.83679
801.65081
801.41221
801.16372
800.92865
800.70204
800.48391
800.28859
800.13532
800.044
802.03268
801.99136
801.90093
801.77649
801.6046
801.39265
801.17906
800.97335
800.77173
800.56825
800.38924
800.25048
800.17052
)
;
        Tnbr            T;
        thicknessLayers List<scalar> 0();
        kappaLayers     List<scalar> 0();
        kappaMethod     fluidThermo;
        kappa           none;
        alphaAni        none;
        alpha           none;
        field           T;
    }
}


// ************************************************************************* //
