/*--------------------------------*- C++ -*----------------------------------*\
| =========                 |                                                 |
| \\      /  F ield         | OpenFOAM: The Open Source CFD Toolbox           |
|  \\    /   O peration     | Version:  v2012                                 |
|   \\  /    A nd           | Website:  www.openfoam.com                      |
|    \\/     M anipulation  |                                                 |
\*---------------------------------------------------------------------------*/
FoamFile
{
    version     2.0;
    format      ascii;
    class       volVectorField;
    location    "250/topAir";
    object      U;
}
// * * * * * * * * * * * * * * * * * * * * * * * * * * * * * * * * * * * * * //

dimensions      [0 1 -1 0 0 0 0];


internalField   nonuniform List<vector> 
1200
(
(0.10341667 -0.0021397834 0.00086629181)
(0.11493192 -0.0022970942 0.0013009653)
(0.12485856 -0.0021898949 0.0013931142)
(0.13255113 -0.0017729148 0.0012860587)
(0.13923119 -0.0010969834 0.00099967673)
(0.14545632 -0.00030844093 0.00049991051)
(0.15139394 0.00051059223 -0.00024507492)
(0.15730029 0.0012898861 -0.0013174242)
(0.16331863 0.0020791747 -0.0029237705)
(0.16970471 0.0030265082 -0.0053264003)
(0.17664792 0.004372114 -0.0088522709)
(0.18399401 0.006461184 -0.013872315)
(0.1907229 0.0096997473 -0.020684423)
(0.19561625 0.013847416 -0.029331531)
(0.19838692 0.018795156 -0.039416196)
(0.19933971 0.023819997 -0.050109472)
(0.19888755 0.028240497 -0.060331472)
(0.19741962 0.031724077 -0.069112649)
(0.19520764 0.034201106 -0.075940416)
(0.19254375 0.035663468 -0.080774355)
(0.18989234 0.036154819 -0.083854288)
(0.1877982 0.035831326 -0.085491115)
(0.18666185 0.034916151 -0.085952161)
(0.18660776 0.03363723 -0.085422339)
(0.1874648 0.03220903 -0.083997746)
(0.18874535 0.030878748 -0.08165331)
(0.18946859 0.030064546 -0.078155332)
(0.18770371 0.030631355 -0.072946408)
(0.18003604 0.034582117 -0.065041095)
(0.13853256 0.048095604 -0.052208775)
(0.098713549 -0.0034397264 0.00084845152)
(0.098440913 -0.0042751687 0.0012846556)
(0.098641421 -0.0044176843 0.0014740607)
(0.099166847 -0.0040720035 0.0015711983)
(0.10014157 -0.0034033733 0.0016073856)
(0.10160685 -0.002625224 0.001573048)
(0.10353117 -0.0018702832 0.0014520483)
(0.10594042 -0.0012735623 0.0012104081)
(0.10929009 -0.00059215751 0.0007551031)
(0.11394391 0.00048725601 -7.3801242e-05)
(0.12060579 0.0025724221 -0.0015096356)
(0.12980738 0.0066244814 -0.0039035679)
(0.14146089 0.013613187 -0.007714887)
(0.15435702 0.0231714 -0.013264782)
(0.1667279 0.034720274 -0.020453537)
(0.17713058 0.046640346 -0.028527088)
(0.18478902 0.057512753 -0.036413923)
(0.18947952 0.066758313 -0.043251306)
(0.19137936 0.074153213 -0.048729159)
(0.19108583 0.079412773 -0.052901814)
(0.1895779 0.082399249 -0.055926433)
(0.18784388 0.08336663 -0.057898435)
(0.1865262 0.082806887 -0.058857257)
(0.1858657 0.081235344 -0.058831409)
(0.18579605 0.079079613 -0.057825428)
(0.18600177 0.076760393 -0.055722789)
(0.18579192 0.075033503 -0.052102769)
(0.18380691 0.075481546 -0.045952926)
(0.17868926 0.081387697 -0.035053308)
(0.14932844 0.097847219 -0.014546253)
(0.098870996 -0.0027338698 0.00087381737)
(0.098156807 -0.0039731562 0.0013299494)
(0.096665369 -0.0043703094 0.0015380756)
(0.094710812 -0.004457948 0.0016662832)
(0.092747457 -0.004411596 0.0017670281)
(0.090958966 -0.0043068171 0.0018523956)
(0.089347913 -0.0042244818 0.0019364218)
(0.087840839 -0.0042758615 0.0020465262)
(0.086430054 -0.0043075158 0.0022421486)
(0.085305213 -0.0042291066 0.0025723209)
(0.084853295 -0.0038356787 0.0030164358)
(0.086377433 -0.0021420959 0.0033005059)
(0.092648696 0.0033773344 0.0028598778)
(0.10443457 0.014818314 0.0012599862)
(0.1198355 0.03121224 -0.0016488267)
(0.13568669 0.049179623 -0.0051472235)
(0.14992328 0.066053749 -0.0082088865)
(0.16120234 0.07977127 -0.010343871)
(0.16898841 0.090167514 -0.011761884)
(0.17355882 0.097414302 -0.012914143)
(0.17595528 0.10170493 -0.014171607)
(0.17729522 0.10332751 -0.015581347)
(0.1782196 0.10273153 -0.016755052)
(0.17887005 0.10043856 -0.017323775)
(0.17907934 0.096928776 -0.0171235)
(0.17861197 0.092670461 -0.015938227)
(0.17716615 0.088395536 -0.013412566)
(0.17419236 0.08573936 -0.0088588702)
(0.16995741 0.088336493 -0.00086497213)
(0.14841893 0.10260774 0.013736104)
(0.096889746 -0.0014990303 0.00083979122)
(0.094764713 -0.002210341 0.0012579583)
(0.091180702 -0.0024306883 0.0014270523)
(0.086754392 -0.0024680458 0.001514089)
(0.082283335 -0.0024172572 0.0015746305)
(0.078012862 -0.0023037457 0.0016234555)
(0.073915069 -0.0021605856 0.0016796009)
(0.069907313 -0.0020289384 0.0017785794)
(0.065880558 -0.0019241975 0.0019808033)
(0.06165736 -0.001941 0.0023873523)
(0.056905542 -0.0023948414 0.0031699999)
(0.051211936 -0.0034820407 0.0046363884)
(0.044000864 -0.004008284 0.0072879385)
(0.037997749 0.00065511284 0.011299215)
(0.040637959 0.014449933 0.01601249)
(0.052095872 0.032064517 0.020725759)
(0.067280087 0.047504994 0.025643818)
(0.082762138 0.059229777 0.030883682)
(0.096698862 0.067791246 0.036010389)
(0.10844297 0.073787223 0.040153914)
(0.11827132 0.077492167 0.042911523)
(0.126688 0.078987685 0.044425452)
(0.13392605 0.078464847 0.044953158)
(0.13984976 0.076270222 0.044837619)
(0.14415979 0.072823457 0.044408942)
(0.14666142 0.068605624 0.044013337)
(0.14748826 0.064237178 0.044025227)
(0.14732205 0.061002657 0.044843511)
(0.14982294 0.061804831 0.046392192)
(0.16322789 0.072711029 0.047701983)
(0.10468045 -0.002136453 0.0010226817)
(0.11705538 -0.0022992541 0.0014536999)
(0.12823599 -0.0022666611 0.0014957422)
(0.13728808 -0.0020107888 0.0013255539)
(0.14516127 -0.0015914376 0.00097161324)
(0.15233933 -0.0011624622 0.00040315402)
(0.15887682 -0.00083710915 -0.00042204651)
(0.1647142 -0.00068635339 -0.0016087045)
(0.16981144 -0.0007610748 -0.0033648368)
(0.17415074 -0.0011328561 -0.0059294054)
(0.17769588 -0.0018868054 -0.0095990468)
(0.18035683 -0.0031205231 -0.014681342)
(0.18173403 -0.0048866937 -0.021356151)
(0.18161166 -0.0076035147 -0.029449633)
(0.18103051 -0.010833857 -0.03834277)
(0.18112692 -0.014134948 -0.047022322)
(0.18230246 -0.016889833 -0.054465867)
(0.1841471 -0.018538828 -0.06019211)
(0.1857884 -0.019125066 -0.064334864)
(0.18660465 -0.019189917 -0.067214877)
(0.18661473 -0.019291521 -0.069052944)
(0.18632754 -0.019631194 -0.069975187)
(0.18631608 -0.020139431 -0.070048868)
(0.18694705 -0.020679417 -0.069299338)
(0.1883511 -0.021134709 -0.067716873)
(0.1905321 -0.021345667 -0.065217022)
(0.19339638 -0.020872997 -0.061555253)
(0.19662041 -0.018487759 -0.056303468)
(0.19947114 -0.010642073 -0.048991932)
(0.18970863 0.012776982 -0.038834627)
(0.10001122 -0.0034463974 0.0010763297)
(0.10069181 -0.0043125178 0.0016458492)
(0.10229098 -0.0045755378 0.0018741886)
(0.10440055 -0.0044599016 0.0019612682)
(0.10688712 -0.0041380582 0.0019557948)
(0.10971056 -0.0038287739 0.0018447192)
(0.11279214 -0.003688149 0.0015992232)
(0.11605683 -0.0038277082 0.0011639605)
(0.11947258 -0.0043467515 0.00044213232)
(0.12302491 -0.0053746707 -0.00071793446)
(0.12668613 -0.0070724605 -0.0024871271)
(0.13047172 -0.0096274947 -0.0050877428)
(0.1344721 -0.013145316 -0.0087745247)
(0.13869572 -0.018022556 -0.0135511)
(0.14332756 -0.023606363 -0.018944533)
(0.14867697 -0.028846145 -0.023869396)
(0.15451008 -0.032309943 -0.027244319)
(0.16002588 -0.032830359 -0.029095012)
(0.16415124 -0.030687536 -0.030273432)
(0.16637223 -0.027263224 -0.031449114)
(0.16705537 -0.024080515 -0.032757247)
(0.16703552 -0.021841059 -0.034038199)
(0.16696289 -0.020460224 -0.035013164)
(0.16712238 -0.019675191 -0.035290744)
(0.16768928 -0.019419004 -0.034425271)
(0.16906309 -0.019703874 -0.031942169)
(0.17220932 -0.020356029 -0.027320701)
(0.17940603 -0.020612889 -0.019769221)
(0.19667763 -0.018362328 -0.0079131559)
(0.2532542 -0.0067793082 0.0063809082)
(0.10017719 -0.0027613788 0.0010957999)
(0.10042675 -0.0040243792 0.0016891587)
(0.10038245 -0.0044614329 0.0019588654)
(0.10012995 -0.0046218211 0.002110602)
(0.099876541 -0.0046863938 0.0022084944)
(0.099737017 -0.0047340591 0.0022586103)
(0.099723527 -0.0048384758 0.0022627849)
(0.099811373 -0.0050814504 0.0022282286)
(0.099986181 -0.005559774 0.0021798662)
(0.10025508 -0.0064191349 0.002115895)
(0.10062911 -0.0078927663 0.0019554269)
(0.10123726 -0.010269858 0.001500738)
(0.10234998 -0.013909094 0.0006125017)
(0.10417828 -0.019278962 -0.00053366414)
(0.10693171 -0.026079217 -0.0013551316)
(0.11104768 -0.03272986 -0.00013862403)
(0.11656149 -0.037213805 0.0046562628)
(0.12320151 -0.037124543 0.011942125)
(0.12947497 -0.033290774 0.019330837)
(0.13404951 -0.028221998 0.025168228)
(0.1366991 -0.024077427 0.028862969)
(0.13797191 -0.02070179 0.03175873)
(0.13944988 -0.018388469 0.034310276)
(0.14168329 -0.01724245 0.036852255)
(0.14451515 -0.017194117 0.039603895)
(0.14688854 -0.018501403 0.041892397)
(0.14894068 -0.02049023 0.044212266)
(0.15187112 -0.022650583 0.046963185)
(0.15923112 -0.025043238 0.05146764)
(0.18568416 -0.027540138 0.059674052)
(0.098139536 -0.001525917 0.0010701044)
(0.096919841 -0.0022658032 0.0016445453)
(0.094711295 -0.0025178131 0.0018996658)
(0.091906014 -0.0025979345 0.0020340322)
(0.089058037 -0.0026042519 0.002111598)
(0.086354012 -0.0025652477 0.0021421427)
(0.083791182 -0.0025160188 0.0021346249)
(0.081338471 -0.0025008453 0.0021078703)
(0.078966819 -0.0025743381 0.002096216)
(0.076625467 -0.0028265655 0.0021603639)
(0.074196539 -0.0034259386 0.0024120537)
(0.07148192 -0.0046468451 0.0030670025)
(0.068195423 -0.006869998 0.0044037837)
(0.063961127 -0.010060113 0.0069605484)
(0.059072364 -0.012705276 0.012650424)
(0.055553766 -0.011788042 0.02423466)
(0.056420946 -0.0057845194 0.041387989)
(0.061874072 0.0038104724 0.060681694)
(0.068585455 0.014236251 0.077731967)
(0.074658387 0.023421515 0.090619933)
(0.080824098 0.03040217 0.099300162)
(0.087900646 0.034319005 0.10378195)
(0.094927503 0.035260795 0.10535592)
(0.10106094 0.033935682 0.10521285)
(0.10585534 0.031071911 0.10378597)
(0.10925519 0.027076785 0.10097368)
(0.11213128 0.021939976 0.096244426)
(0.11499245 0.016725776 0.090706653)
(0.12009443 0.012200999 0.085914464)
(0.1425439 0.0093586425 0.08147449)
(0.10455605 -0.0021530831 0.00037650039)
(0.11673369 -0.0023124704 0.00062726828)
(0.12783022 -0.0022538313 0.00074565843)
(0.13691266 -0.0019496853 0.00077677713)
(0.14487148 -0.0014675137 0.00074830788)
(0.15213211 -0.00097134687 0.00066747632)
(0.15870475 -0.00056472509 0.00052239533)
(0.16455892 -0.00027539803 0.00029014642)
(0.1697161 -0.00011913631 -4.2219095e-05)
(0.17417181 -0.0001211612 -0.00049438292)
(0.17785425 -0.00032850118 -0.0011045782)
(0.18062575 -0.00079515381 -0.0019096863)
(0.18192641 -0.0015978761 -0.0029393153)
(0.18126444 -0.0033886877 -0.004284358)
(0.17957534 -0.0060965049 -0.0059583776)
(0.17807465 -0.0097823186 -0.0076961896)
(0.17734417 -0.014022344 -0.0093305057)
(0.17712455 -0.018206746 -0.011066485)
(0.17679054 -0.022067265 -0.01324657)
(0.17603079 -0.025552664 -0.015933144)
(0.17496276 -0.028733766 -0.018808577)
(0.1739471 -0.031692242 -0.021468885)
(0.17333743 -0.034375909 -0.023582028)
(0.17330261 -0.036618933 -0.024924349)
(0.17381635 -0.038279343 -0.025404794)
(0.17486628 -0.039374954 -0.024982543)
(0.17664359 -0.040001309 -0.023723115)
(0.17977233 -0.03957917 -0.022566377)
(0.18556766 -0.034419689 -0.024213915)
(0.18890256 -0.013774084 -0.029476781)
(0.099888278 -0.0034545119 0.00037491111)
(0.10034148 -0.0043060299 0.00064573431)
(0.10182743 -0.004526904 0.00078609544)
(0.10394954 -0.0043420789 0.00083706517)
(0.10649496 -0.003931348 0.00081737033)
(0.10936765 -0.0035198429 0.00071728465)
(0.11245532 -0.0032415152 0.00051231129)
(0.11565774 -0.0031404529 0.00016715821)
(0.11891785 -0.0032572343 -0.00036773002)
(0.12218874 -0.0036712708 -0.0011593539)
(0.12542724 -0.0044978786 -0.0023180461)
(0.12861808 -0.0058752382 -0.003974612)
(0.13180061 -0.0080496918 -0.0062773888)
(0.1349136 -0.011917995 -0.0093263385)
(0.13805378 -0.017644839 -0.013034059)
(0.14143862 -0.024772684 -0.016968746)
(0.14473637 -0.031183315 -0.02089536)
(0.14698717 -0.03547418 -0.024999434)
(0.14762334 -0.037886797 -0.029339239)
(0.14678897 -0.03898137 -0.033846536)
(0.14491901 -0.039562 -0.038213341)
(0.1425437 -0.040265619 -0.042049837)
(0.1401193 -0.041245665 -0.04494063)
(0.13786249 -0.042277872 -0.046488357)
(0.13570876 -0.043168519 -0.046428633)
(0.1337273 -0.044213173 -0.044426882)
(0.13259127 -0.045968883 -0.040471917)
(0.13598059 -0.047628448 -0.03651829)
(0.15173045 -0.043593358 -0.040430528)
(0.20022464 -0.021825649 -0.059263394)
(0.1000585 -0.0027550548 0.00038061082)
(0.10009208 -0.004010254 0.000658674)
(0.099943975 -0.0044261993 0.00081474398)
(0.099717678 -0.0045536525 0.00088785233)
(0.09955262 -0.0045729914 0.00089577544)
(0.099521557 -0.0045563226 0.00083021906)
(0.099618228 -0.0045609104 0.00067089054)
(0.099800685 -0.0046383553 0.00038779197)
(0.10002929 -0.0048524176 -6.6837571e-05)
(0.10027276 -0.0053070944 -0.0007676031)
(0.10052007 -0.0061561902 -0.0018311516)
(0.10069888 -0.007651172 -0.0034015617)
(0.10071334 -0.010216749 -0.0057293121)
(0.10052436 -0.014657838 -0.0091134608)
(0.10025112 -0.02191677 -0.013660272)
(0.099931106 -0.030958901 -0.01864264)
(0.099372992 -0.03742498 -0.022800105)
(0.098006461 -0.039624239 -0.024819641)
(0.095989507 -0.039178227 -0.025061768)
(0.092891754 -0.037520307 -0.026606145)
(0.088656685 -0.036423643 -0.02983455)
(0.083667479 -0.036630114 -0.033265927)
(0.078607024 -0.038017512 -0.035393794)
(0.074194259 -0.040015515 -0.035037256)
(0.07055232 -0.04239229 -0.031441363)
(0.068823651 -0.045308399 -0.023846403)
(0.06883074 -0.049704741 -0.01364411)
(0.074176967 -0.055141921 -0.0048385374)
(0.088248588 -0.057245831 -0.013018694)
(0.12985542 -0.045289565 -0.050785898)
(0.098023582 -0.0015202974 0.00037150627)
(0.096591727 -0.0022541578 0.00063836949)
(0.09428198 -0.0024971086 0.00078478158)
(0.091504203 -0.0025660397 0.00084968959)
(0.088747044 -0.0025580968 0.00085180369)
(0.086156107 -0.0024989519 0.00078475842)
(0.083712355 -0.0024188959 0.00063108348)
(0.081371833 -0.0023529833 0.00036513289)
(0.079093149 -0.0023388503 -5.3265828e-05)
(0.076825059 -0.0024299911 -0.00068081937)
(0.074498133 -0.0027216172 -0.001602435)
(0.071976576 -0.0034091811 -0.0029474429)
(0.068961658 -0.0048278555 -0.0049599265)
(0.064911699 -0.0077462856 -0.0081776299)
(0.059319338 -0.013758181 -0.013520782)
(0.051189426 -0.02176271 -0.021071554)
(0.042294613 -0.024444141 -0.023239492)
(0.038170467 -0.02011751 -0.0080804586)
(0.042614304 -0.011994245 0.023836433)
(0.044228992 -0.00067337489 0.051620379)
(0.047049619 0.0089388283 0.069534861)
(0.05184928 0.014949854 0.079128994)
(0.057240327 0.017384817 0.083336866)
(0.061786361 0.016885699 0.084190021)
(0.064180947 0.013817485 0.082323592)
(0.063684281 0.0081834229 0.077494428)
(0.061973463 -8.8320773e-05 0.069672279)
(0.063473217 -0.0097982266 0.058845964)
(0.064599272 -0.017121682 0.032637448)
(0.10137692 -0.0052639888 -0.025896632)
(0.10452907 -0.0021532149 0.00020413351)
(0.11663301 -0.0023071344 0.00037207447)
(0.1276498 -0.0022347718 0.00048142275)
(0.13667453 -0.0019034491 0.00053578943)
(0.14460403 -0.001372735 0.0005443382)
(0.15186876 -0.00079594981 0.00051149675)
(0.15851234 -0.00026088504 0.00043834217)
(0.16453575 0.00021371658 0.00033578612)
(0.16997546 0.00063351415 0.00020797106)
(0.17487724 0.0010162211 5.4443363e-05)
(0.17929351 0.0013822243 -0.00011538424)
(0.18326499 0.0017403487 -0.00026163802)
(0.18639083 0.0020642873 -0.00028999601)
(0.18837111 0.0016738028 -0.00012388818)
(0.19052129 0.00090090818 0.00053186006)
(0.19425616 0.00035095463 0.0024596791)
(0.1992992 0.00068018249 0.0058748471)
(0.20409994 0.0013775006 0.010124983)
(0.20761928 0.0016261659 0.014556337)
(0.21000564 0.0012139701 0.018831234)
(0.21188046 0.00021478441 0.022932886)
(0.21363882 -0.0012767972 0.026994105)
(0.21535213 -0.0031111938 0.031191338)
(0.21684507 -0.0051088368 0.035628256)
(0.21789121 -0.0071412184 0.040081005)
(0.21842157 -0.0087533342 0.04392542)
(0.21828592 -0.0084613235 0.046283703)
(0.21617553 -0.0044766853 0.045996457)
(0.20498447 0.0064443638 0.037991238)
(0.13503882 0.03647141 0.015758272)
(0.099860157 -0.0034543677 0.0002052527)
(0.10022073 -0.0042984228 0.00038454308)
(0.1015889 -0.0044987384 0.00050312664)
(0.1036038 -0.004272899 0.00055904202)
(0.10605265 -0.0037897632 0.00055763921)
(0.10882813 -0.0032588037 0.00049674458)
(0.1118147 -0.0027905921 0.00036628197)
(0.11490977 -0.0024100517 0.00015118158)
(0.11805057 -0.002121392 -0.00017190537)
(0.12120868 -0.0019330527 -0.0006439293)
(0.12438489 -0.0018820193 -0.0013089514)
(0.12764339 -0.0020761422 -0.002209784)
(0.13118398 -0.002784517 -0.0033444682)
(0.13527892 -0.0051262677 -0.0045706808)
(0.1404196 -0.0090984946 -0.0053930853)
(0.14686499 -0.012182095 -0.0050117658)
(0.15332936 -0.011979386 -0.0042967459)
(0.157827 -0.010301837 -0.0046415484)
(0.15969085 -0.0097603374 -0.0066747023)
(0.15986652 -0.01071246 -0.010095998)
(0.15925019 -0.012546435 -0.014289588)
(0.15830817 -0.014773927 -0.018402955)
(0.15712865 -0.017031651 -0.021439431)
(0.15564039 -0.018868853 -0.02267332)
(0.15363952 -0.020299002 -0.021932181)
(0.15117583 -0.02139801 -0.019755667)
(0.15037282 -0.019082698 -0.019842383)
(0.15538852 -0.0076362578 -0.026262293)
(0.16651755 0.017157676 -0.037527776)
(0.1573795 0.059855001 -0.054279498)
(0.10003155 -0.0027517442 0.00020701688)
(0.099975861 -0.0040031071 0.00038761307)
(0.099709765 -0.0044093934 0.00051082406)
(0.099369593 -0.0045182517 0.00057284835)
(0.099095358 -0.0045062883 0.00057651631)
(0.098947602 -0.0044380114 0.000517069)
(0.098911313 -0.0043583751 0.00038108192)
(0.098934984 -0.0043018628 0.00014796701)
(0.09896782 -0.0043046322 -0.00021077862)
(0.098965111 -0.0044263479 -0.00074373237)
(0.098871944 -0.0047852877 -0.0015267756)
(0.098636994 -0.0056319434 -0.002678302)
(0.09829368 -0.0075126227 -0.0042935387)
(0.098164345 -0.011618607 -0.0063306051)
(0.098631223 -0.019450913 -0.0081743446)
(0.099301357 -0.025194171 -0.0080927762)
(0.099497395 -0.024037903 -0.0070895631)
(0.096900715 -0.019581498 -0.0071826463)
(0.088966899 -0.016962463 -0.010374595)
(0.080359457 -0.017252239 -0.015065324)
(0.072712294 -0.019664235 -0.020069442)
(0.06563545 -0.023057447 -0.024023511)
(0.058036787 -0.026989086 -0.025101466)
(0.050373053 -0.030559106 -0.02192)
(0.042779692 -0.034301629 -0.013820113)
(0.035047466 -0.039325287 -0.0038980224)
(0.029450132 -0.040042485 -0.0096509791)
(0.037699539 -0.026609019 -0.031178542)
(0.06748915 0.0066463583 -0.056736699)
(0.079294008 0.054645888 -0.084340934)
(0.097997127 -0.0015216767 0.00020189488)
(0.096478436 -0.002257317 0.0003754405)
(0.094053657 -0.0024996697 0.00049152446)
(0.091163851 -0.0025644304 0.00054642051)
(0.088298638 -0.0025474561 0.0005428104)
(0.085590321 -0.0024716559 0.00047601614)
(0.083006874 -0.0023630832 0.00033229216)
(0.080486868 -0.0022512795 8.9745143e-05)
(0.077967545 -0.0021661218 -0.00028340649)
(0.075366153 -0.0021490624 -0.00084473531)
(0.072527461 -0.0022793187 -0.0016938439)
(0.069162398 -0.0027415431 -0.0030131785)
(0.064710625 -0.0040093433 -0.0051372255)
(0.057982814 -0.0074424336 -0.0087195905)
(0.04761205 -0.016223185 -0.015282076)
(0.026669488 -0.020289359 -0.025669233)
(0.0041890314 -0.011725343 -0.030438952)
(-0.015586774 -0.00030344144 -0.024470025)
(-0.017956225 -0.0025214145 -0.0090791785)
(-0.008691311 -0.0036208841 0.017211647)
(-0.0040126267 -0.00099328461 0.03410809)
(0.0051099996 0.0013339003 0.043417305)
(0.011307298 0.00086323769 0.046802214)
(0.01437888 -0.0012707003 0.048036372)
(0.012601202 -0.0057383434 0.047355062)
(0.0038709989 -0.01387046 0.040498322)
(-0.020024771 -0.020099127 0.0091109284)
(-0.03642559 -0.0079381838 -0.032522283)
(-0.028542517 0.026646752 -0.072394741)
(0.043483951 0.067409137 -0.10602482)
(0.10451368 -0.0021558949 5.4000914e-05)
(0.1165788 -0.0023114719 9.6176451e-05)
(0.1275499 -0.0022395971 0.00011935054)
(0.13653565 -0.0019068877 0.0001241145)
(0.14443612 -0.0013720264 0.00011350261)
(0.15167862 -0.00078851256 8.9412588e-05)
(0.15830214 -0.00024516231 5.1822984e-05)
(0.16430064 0.00023814162 -9.4475969e-07)
(0.16971142 0.00067127635 -7.3880103e-05)
(0.17458434 0.0010666757 -0.00017106507)
(0.17896643 0.0014329353 -0.00029589285)
(0.18290178 0.0017643795 -0.00045112954)
(0.1859221 0.0020056212 -0.00063798633)
(0.1877541 0.0012853913 -0.00091189287)
(0.19032976 0.0002718325 -0.0012196599)
(0.19544002 0.00051205298 -0.0012699819)
(0.20188328 0.001782074 -0.0010265012)
(0.20792768 0.0032660705 -0.0006808008)
(0.21285357 0.004746806 -0.00030158412)
(0.21742188 0.0064013804 0.00021998635)
(0.22252172 0.0081869439 0.0010189708)
(0.22871437 0.010136531 0.00230393)
(0.23591475 0.01254468 0.0043594605)
(0.24316557 0.015616321 0.0074258089)
(0.24881246 0.019225415 0.01148037)
(0.25082671 0.023469478 0.015964582)
(0.24655375 0.028995489 0.019672767)
(0.23214446 0.036983404 0.02085583)
(0.20346689 0.049775287 0.016734581)
(0.097604381 0.078072134 0.0051947682)
(0.099843449 -0.0034568607 5.4605496e-05)
(0.10015527 -0.0043018863 0.00010044574)
(0.1014595 -0.004500574 0.00012662069)
(0.10341314 -0.0042693167 0.00013162681)
(0.10580562 -0.0037757457 0.00011716929)
(0.10852222 -0.0032291452 8.3078177e-05)
(0.11143917 -0.0027403826 2.6057002e-05)
(0.11444962 -0.0023343785 -5.9920924e-05)
(0.1174819 -0.0020081112 -0.00018223756)
(0.12049489 -0.0017768573 -0.00035481814)
(0.12348839 -0.0016997073 -0.00059591911)
(0.12655885 -0.0019281558 -0.00092458518)
(0.13003735 -0.0028368589 -0.0013465047)
(0.13448748 -0.0058503834 -0.0018146428)
(0.14063012 -0.010162713 -0.00218638)
(0.14895064 -0.0092926024 -0.0019933424)
(0.15649145 -0.0054981206 -0.001673714)
(0.16194129 -0.0020864171 -0.0018677755)
(0.16648422 -2.159849e-06 -0.0025674746)
(0.17098491 0.00091763155 -0.0036522289)
(0.17561101 0.0014073737 -0.0050979285)
(0.18090696 0.0022833186 -0.0066571014)
(0.18777896 0.0046747633 -0.0076766149)
(0.19772253 0.010221862 -0.007347543)
(0.2086745 0.019492257 -0.0055385293)
(0.21749353 0.031799836 -0.0029959601)
(0.22098339 0.046947762 -0.00086946695)
(0.21397072 0.065701989 -0.00083924376)
(0.19428904 0.08990377 -0.0050527392)
(0.113447 0.12602375 -0.01614857)
(0.10001489 -0.0027513848 5.469274e-05)
(0.099910788 -0.0040027693 0.00010035654)
(0.099578816 -0.0044072997 0.0001270727)
(0.09917125 -0.0045116759 0.00013266431)
(0.098829589 -0.0044921682 0.00011771731)
(0.098605884 -0.0044126385 8.0657792e-05)
(0.098474883 -0.004316878 1.6460151e-05)
(0.098378999 -0.0042373144 -8.3077699e-05)
(0.09824756 -0.0042075749 -0.00022747474)
(0.097997115 -0.0042929301 -0.00043972106)
(0.097534985 -0.0046356637 -0.00075464369)
(0.096778337 -0.0055619547 -0.0012225395)
(0.095828179 -0.0078429475 -0.0019101641)
(0.095549411 -0.013250455 -0.0029004023)
(0.095793502 -0.023679563 -0.0043469655)
(0.099270664 -0.021527371 -0.0044168445)
(0.10151415 -0.01548631 -0.0029840064)
(0.09865192 -0.0099178188 -0.0028804456)
(0.092821854 -0.0054326372 -0.0041267145)
(0.084748724 -0.0038592961 -0.0070190989)
(0.075168768 -0.0058247177 -0.01112018)
(0.06422928 -0.0099377419 -0.014954909)
(0.053671246 -0.013721757 -0.016465144)
(0.046625545 -0.014874669 -0.014149891)
(0.053811402 -0.010204058 -0.0082202165)
(0.078024266 0.0028166743 -0.0023753914)
(0.10577292 0.024575459 -2.4164727e-05)
(0.11881028 0.051615543 -0.0029891255)
(0.11838012 0.086330235 -0.011343722)
(0.064007747 0.13151753 -0.025041159)
(0.097980628 -0.0015213407 5.3263407e-05)
(0.096414146 -0.0022566035 9.6845887e-05)
(0.093923793 -0.0024977027 0.00012128085)
(0.090965236 -0.0025601154 0.00012426896)
(0.088029124 -0.0025397496 0.00010602594)
(0.085237937 -0.0024592488 6.4486872e-05)
(0.082547121 -0.0023443141 -6.2961106e-06)
(0.079885095 -0.0022235727 -0.00011589089)
(0.077156216 -0.002126281 -0.00027506062)
(0.074207867 -0.0020968954 -0.00051525129)
(0.070781508 -0.0022302049 -0.00088926854)
(0.066375518 -0.0027706541 -0.0014928851)
(0.059941358 -0.0044261999 -0.002527688)
(0.049069882 -0.0094913303 -0.0045231746)
(0.031656168 -0.023109463 -0.0092800581)
(-0.016150283 -0.0074083981 -0.018253051)
(-0.040366681 0.004716669 -0.012945514)
(-0.058517522 0.0062391728 -0.0074018619)
(-0.068279002 0.004592982 -0.0023963331)
(-0.06715546 0.00025284399 0.0038045785)
(-0.059376065 -0.0042069917 0.010620134)
(-0.049646112 -0.0077832193 0.015322241)
(-0.04141258 -0.011374084 0.018544973)
(-0.035825835 -0.015747285 0.021516893)
(-0.032720441 -0.019528231 0.023797552)
(-0.031967939 -0.01688599 0.022664245)
(-0.030479808 0.0043347031 0.013800139)
(-0.013682988 0.043336166 0.0053320513)
(-0.0039066886 0.082077925 -0.01423858)
(0.012711245 0.12507596 -0.032050203)
(0.10451281 -0.0021558966 -6.4135403e-05)
(0.11657604 -0.0023117545 -0.00011731788)
(0.12754499 -0.002240192 -0.00015209429)
(0.13652836 -0.0019078856 -0.00016959302)
(0.14442608 -0.0013735884 -0.00017378851)
(0.15166543 -0.00079089908 -0.00016758927)
(0.15828568 -0.00024874748 -0.00015180251)
(0.16428131 0.00023303739 -0.00012503548)
(0.1696884 0.00066415013 -8.2116621e-05)
(0.1745572 0.0010603746 -1.6395842e-05)
(0.1789418 0.0014348667 7.0613918e-05)
(0.1828835 0.0017834746 0.0001763521)
(0.18589696 0.0020593102 0.00028915582)
(0.1876604 0.0013963974 0.00042732358)
(0.19000015 0.00037166841 0.00043308816)
(0.19468715 0.00033754514 -0.00012728844)
(0.20079533 0.0014862223 -0.0011624113)
(0.20658902 0.0029500626 -0.0022866737)
(0.211175 0.0043036535 -0.0034627143)
(0.21512135 0.0055965489 -0.0049122755)
(0.2193603 0.0067448024 -0.0068856002)
(0.22458564 0.0077247992 -0.0096120662)
(0.23092843 0.0088180759 -0.013306459)
(0.23772268 0.010459084 -0.018062086)
(0.24352986 0.012804891 -0.023602834)
(0.24643839 0.015697559 -0.029107211)
(0.243866 0.020039782 -0.033033476)
(0.23198643 0.027437918 -0.033167782)
(0.20648143 0.04084692 -0.026678779)
(0.10624973 0.071790444 -0.011633091)
(0.099843443 -0.0034568337 -6.0892305e-05)
(0.10015513 -0.0043021615 -0.00011205977)
(0.10145906 -0.004501199 -0.00014185348)
(0.10341241 -0.004270369 -0.00014943111)
(0.10580485 -0.0037773392 -0.00013735199)
(0.10852191 -0.0032314308 -0.00010599299)
(0.11144011 -0.0027434794 -5.2271314e-05)
(0.1144522 -0.002337991 2.9815315e-05)
(0.11748716 -0.0020113922 0.00014778232)
(0.12050537 -0.0017739557 0.00031489058)
(0.12350562 -0.0016759255 0.00054699251)
(0.12657424 -0.0018570938 0.00085479933)
(0.13000829 -0.0026619388 0.0012170274)
(0.13428656 -0.0055018569 0.0015121764)
(0.14012424 -0.0099321124 0.0014238827)
(0.14787294 -0.010320688 0.00039282605)
(0.15530645 -0.0068772289 -0.00062305037)
(0.16050639 -0.0033418897 -0.00071913573)
(0.16424514 -0.0012468583 -0.00010183869)
(0.16742787 -0.00066788255 0.00087043721)
(0.17010553 -0.00099171719 0.0021732815)
(0.17254796 -0.0015350508 0.0036446725)
(0.1755099 -0.0014261402 0.0046982175)
(0.18010773 0.00059621181 0.0046258988)
(0.18782741 0.006023916 0.0030764599)
(0.19777119 0.015974925 0.00054834845)
(0.20400162 0.029645082 -0.0013135971)
(0.20205609 0.047700997 7.6430768e-05)
(0.19030593 0.073632111 0.0073740493)
(0.12851571 0.11448777 0.022395338)
(0.10001489 -0.0027513673 -6.0679307e-05)
(0.09991078 -0.0040028095 -0.0001112653)
(0.099578841 -0.0044074252 -0.00014093865)
(0.099171549 -0.0045118607 -0.00014795042)
(0.098830744 -0.004492326 -0.00013353575)
(0.098608996 -0.0044125804 -9.6390893e-05)
(0.098481819 -0.0043162226 -3.1213059e-05)
(0.098391825 -0.00423539 7.1012716e-05)
(0.098270755 -0.004201252 0.0002211207)
(0.098040439 -0.0042758852 0.00044377744)
(0.097613941 -0.0045915631 0.0007761657)
(0.096909781 -0.005449037 0.001268213)
(0.095988934 -0.0075551665 0.0019708179)
(0.09548466 -0.012557268 0.0028794496)
(0.095736027 -0.022500278 0.0037584623)
(0.096853003 -0.023266922 0.0025382224)
(0.099200031 -0.017388017 5.991734e-05)
(0.095816528 -0.011429394 0.00010821003)
(0.089189102 -0.0065977509 0.0020966483)
(0.080016744 -0.0048402162 0.0057248096)
(0.069114349 -0.0070356751 0.010537044)
(0.056596855 -0.011858571 0.015128069)
(0.043776025 -0.016748903 0.017521806)
(0.034334731 -0.019475184 0.016178581)
(0.032593297 -0.019149586 0.011243051)
(0.041748486 -0.013252872 0.0071569603)
(0.074994601 0.0047419267 0.0079208961)
(0.096027483 0.03127617 0.01501109)
(0.10729524 0.067950874 0.028971591)
(0.080725806 0.11689977 0.047055837)
(0.097980617 -0.0015213436 -5.9072888e-05)
(0.096414102 -0.0022566191 -0.00010744499)
(0.0939238 -0.0024977462 -0.00013475637)
(0.090965637 -0.0025601852 -0.00013908242)
(0.088030679 -0.0025398214 -0.00012123286)
(0.085242047 -0.0024592562 -7.9267552e-05)
(0.082555981 -0.0023441357 -6.6130683e-06)
(0.079903542 -0.0022231303 0.00010785435)
(0.077193715 -0.0021234563 0.0002777616)
(0.074284551 -0.0020879263 0.00054056614)
(0.070941538 -0.0022041 0.00096138573)
(0.066712062 -0.0026932914 0.001660837)
(0.060651913 -0.0041834531 0.0028894177)
(0.050588405 -0.0086736923 0.0052507764)
(0.034907766 -0.020852786 0.010466234)
(-0.0076295098 -0.014247039 0.018466824)
(-0.040630215 0.002964117 0.012483475)
(-0.059212441 0.0054236724 0.0079374283)
(-0.070780139 0.0042012781 0.0040205481)
(-0.071109196 0.00013510111 -0.0016498378)
(-0.063759325 -0.0043820456 -0.0082270294)
(-0.054886188 -0.0080451037 -0.011788618)
(-0.04755052 -0.011540448 -0.012215065)
(-0.042333599 -0.015361056 -0.010205601)
(-0.038845061 -0.019359378 -0.0062003682)
(-0.037380168 -0.019797855 -0.00042122718)
(-0.040650976 -0.0061338611 0.0098629346)
(-0.025225285 0.02431739 0.02271787)
(-0.002272728 0.064720318 0.047426289)
(0.044360977 0.10867018 0.067073201)
(0.10452689 -0.0021526629 -0.00021312088)
(0.11662592 -0.002306734 -0.00039072426)
(0.12763681 -0.0022347547 -0.00051022059)
(0.13665471 -0.0019041088 -0.00057574169)
(0.14457599 -0.0013745177 -0.00059728894)
(0.15183065 -0.00079956095 -0.00058020749)
(0.15846225 -0.00026731619 -0.00052629697)
(0.16447221 0.00020347059 -0.00044498514)
(0.16990263 0.0006192521 -0.00034326792)
(0.17479191 0.00099286649 -0.00022309634)