/*--------------------------------*- C++ -*----------------------------------*\
| =========                 |                                                 |
| \\      /  F ield         | OpenFOAM: The Open Source CFD Toolbox           |
|  \\    /   O peration     | Version:  v2012                                 |
|   \\  /    A nd           | Website:  www.openfoam.com                      |
|    \\/     M anipulation  |                                                 |
\*---------------------------------------------------------------------------*/
FoamFile
{
    version     2.0;
    format      ascii;
    class       surfaceScalarField;
    location    "450/topAir";
    object      phi;
}
// * * * * * * * * * * * * * * * * * * * * * * * * * * * * * * * * * * * * * //

dimensions      [1 0 -1 0 0 0 0];
oriented        oriented;


internalField   nonuniform List<scalar> 
3140
(
9.4962113e-06
-3.0043035e-07
7.320975e-08
9.6780383e-06
-2.6576972e-07
8.3969916e-08
9.8518493e-06
-2.4761058e-07
7.3838575e-08
9.9918513e-06
-1.9671738e-07
5.6762354e-08
1.0091927e-05
-1.3418917e-07
3.4162554e-08
1.0160913e-05
-7.6149551e-08
7.2107161e-09
1.0230943e-05
-2.8318772e-08
-4.1668662e-08
1.0327021e-05
1.1905958e-08
-1.0794792e-07
1.0456172e-05
7.5126854e-08
-2.0425138e-07
1.0642697e-05
1.5636806e-07
-3.4286904e-07
1.0884749e-05
2.971102e-07
-5.3913406e-07
1.1154469e-05
5.3734286e-07
-8.0702683e-07
1.1397401e-05
9.0862151e-07
-1.151518e-06
1.1618489e-05
1.3520944e-06
-1.5731799e-06
1.1789748e-05
1.8505719e-06
-2.0218525e-06
1.1896046e-05
2.3383357e-06
-2.4446596e-06
1.1924629e-05
2.7706545e-06
-2.799235e-06
1.1876011e-05
3.1190212e-06
-3.0703511e-06
1.1774175e-05
3.3644017e-06
-3.2624632e-06
1.1659704e-05
3.5007396e-06
-3.3861511e-06
1.1570375e-05
3.5404398e-06
-3.4510399e-06
1.1525501e-05
3.5091745e-06
-3.4643509e-06
1.1524641e-05
3.4325101e-06
-3.4318858e-06
1.1552845e-05
3.3303791e-06
-3.3590432e-06
1.1584736e-05
3.2174527e-06
-3.2500385e-06
1.1577928e-05
3.1094785e-06
-3.103617e-06
1.1448127e-05
3.0356314e-06
-2.9070714e-06
1.1019513e-05
3.0589904e-06
-2.6319742e-06
9.9266754e-06
3.3191808e-06
-2.228302e-06
4.1479749e-06
-1.6301994e-06
9.1136487e-06
-2.2550794e-07
8.0398949e-08
9.0809382e-06
-3.381513e-07
1.0509461e-07
9.0788213e-06
-3.574551e-07
1.1196525e-07
9.1208783e-06
-3.5308398e-07
1.1431419e-07
9.205755e-06
-3.3073292e-07
1.1167137e-07
9.3277556e-06
-3.0010534e-07
1.0195774e-07
9.4900042e-06
-2.7359479e-07
8.3029516e-08
9.7079135e-06
-2.5790873e-07
5.1956968e-08
1.0007206e-05
-2.3044587e-07
6.4877717e-09
1.0420665e-05
-1.7592384e-07
-8.0789348e-08
1.0975387e-05
-4.6170214e-08
-2.1111867e-07
1.1665847e-05
2.4805355e-07
-4.0127364e-07
1.2398433e-05
8.4125374e-07
-6.6598849e-07
1.3048834e-05
1.6852958e-06
-9.8493374e-07
1.3547002e-05
2.6494886e-06
-1.2985929e-06
1.3827874e-05
3.5952319e-06
-1.539067e-06
1.3880033e-05
4.4007114e-06
-1.6830895e-06
1.3745286e-05
5.0258037e-06
-1.772483e-06
1.3504328e-05
5.4595324e-06
-1.8543309e-06
1.3244962e-05
5.7091084e-06
-1.9490472e-06
1.3026285e-05
5.79954e-06
-2.0405034e-06
1.2866394e-05
5.7703806e-06
-2.1015205e-06
1.2759133e-05
5.6570456e-06
-2.1176332e-06
1.2685482e-05
5.4870923e-06
-2.0835874e-06
1.2619765e-05
5.2770829e-06
-1.9946521e-06
1.2522486e-05
5.0422658e-06
-1.8366316e-06
1.231093e-05
4.8232521e-06
-1.5778701e-06
1.1820749e-05
4.716199e-06
-1.1698929e-06
1.078662e-05
4.9165956e-06
-5.6746127e-07
5.6444109e-06
2.8688808e-07
9.1698941e-06
-2.0887613e-07
8.2435423e-08
9.000329e-06
-2.7778481e-07
1.0919981e-07
8.8149615e-06
-2.9125047e-07
1.1916402e-07
8.6261799e-06
-2.9097787e-07
1.266766e-07
8.4462175e-06
-2.8360966e-07
1.3284024e-07
8.2804413e-06
-2.7150383e-07
1.3717551e-07
8.1264991e-06
-2.6001613e-07
1.4036402e-07
7.9794958e-06
-2.5521693e-07
1.4431368e-07
7.8564667e-06
-2.5969849e-07
1.5228846e-07
7.7973054e-06
-2.8082657e-07
1.6407551e-07
7.9141459e-06
-3.3295341e-07
1.6993688e-07
8.3748213e-06
-3.6078788e-07
1.4786306e-07
9.2527033e-06
-1.1285931e-07
7.4833317e-08
1.0434515e-05
5.2966335e-07
-2.868654e-08
1.150801e-05
1.6463354e-06
-7.3560848e-08
1.2315262e-05
2.7805326e-06
4.1280781e-09
1.276309e-05
3.6435857e-06
3.0620333e-07
1.29041e-05
4.258362e-06
6.2392164e-07
1.2860134e-05
4.6666911e-06
8.3491503e-07
1.2753458e-05
4.8973362e-06
9.170218e-07
1.266171e-05
4.9737118e-06
9.1641361e-07
1.2594619e-05
4.9168132e-06
9.1959075e-07
1.2539834e-05
4.7621827e-06
9.4857226e-07
1.246911e-05
4.5428791e-06
1.0138073e-06
1.2355759e-05
4.2864465e-06
1.1027932e-06
1.2185168e-05
4.0181861e-06
1.1933793e-06
1.1923742e-05
3.7719701e-06
1.3112293e-06
1.151858e-05
3.625124e-06
1.4944035e-06
1.083888e-05
3.7671184e-06
1.8267548e-06
4.5884538e-06
2.4257925e-06
8.9795536e-06
8.0523444e-08
8.5957288e-06
1.0604109e-07
8.1896324e-06
1.1484715e-07
7.778001e-06
1.2065477e-07
7.3694928e-06
1.2489972e-07
6.970464e-06
1.2752605e-07
6.5807961e-06
1.2965295e-07
6.1921809e-06
1.3339935e-07
5.7901883e-06
1.4229532e-07
5.3473516e-06
1.6201078e-07
4.8132399e-06
2.0115626e-07
4.1723037e-06
2.8011852e-07
3.63679e-06
4.2245502e-07
3.5367465e-06
6.279429e-07
4.2283837e-06
9.5123946e-07
5.4224092e-06
1.5827627e-06
6.4677311e-06
2.5948789e-06
7.2908742e-06
3.4325483e-06
7.9614856e-06
3.9941674e-06
8.551268e-06
4.3062278e-06
9.0772777e-06
4.4467357e-06
9.5366802e-06
4.4566213e-06
9.9023603e-06
4.3957844e-06
1.015047e-05
4.2940763e-06
1.0268466e-05
4.1677662e-06
1.0265976e-05
4.0200135e-06
1.0173777e-05
3.863535e-06
1.008905e-05
3.7092191e-06
1.0273187e-05
3.582255e-06
3.4546218e-06
9.6085141e-06
-3.0008908e-07
3.3775674e-08
9.906371e-06
-2.6683624e-07
5.2974641e-08
1.018455e-05
-2.6114052e-07
5.6833755e-08
1.0416222e-05
-2.2768005e-07
5.2809834e-08
1.0594397e-05
-1.8721778e-07
4.3246676e-08
1.0730665e-05
-1.5622477e-07
2.7207157e-08
1.0831054e-05
-1.419781e-07
-5.2084021e-11
1.0901121e-05
-1.486486e-07
-2.9358834e-08
1.0951162e-05
-1.8149795e-07
-7.2812305e-08
1.0989264e-05
-2.4705638e-07
-1.3395575e-07
1.1024259e-05
-3.5586158e-07
-2.183303e-07
1.1067337e-05
-5.187985e-07
-3.3142069e-07
1.1136286e-05
-7.4609316e-07
-4.74637e-07
1.1311102e-05
-1.1009448e-06
-6.4762268e-07
1.1595758e-05
-1.4865976e-06
-8.2081075e-07
1.1946942e-05
-1.8207956e-06
-9.7615662e-07
1.2269965e-05
-1.999809e-06
-1.1235659e-06
1.2489978e-05
-2.0088039e-06
-1.2825479e-06
1.2591711e-05
-1.9097612e-06
-1.4552876e-06
1.261241e-05
-1.7820977e-06
-1.6256014e-06
1.2603672e-05
-1.6730756e-06
-1.7702887e-06
1.2599035e-05
-1.5848016e-06
-1.8764111e-06
1.2608685e-05
-1.5076338e-06
-1.9359876e-06
1.2629026e-05
-1.4335146e-06
-1.9485874e-06
1.2658418e-05
-1.3614786e-06
-1.9212375e-06
1.2698124e-05
-1.2856666e-06
-1.8615196e-06
1.2732925e-05
-1.1795581e-06
-1.7669142e-06
1.2695858e-05
-9.7262334e-07
-1.6278553e-06
1.2448544e-05
-5.2416388e-07
-1.4631981e-06
8.5311619e-07
-1.2662272e-06
9.238805e-06
-2.270295e-07
3.7504461e-08
9.3535263e-06
-3.422031e-07
6.5742341e-08
9.492492e-06
-3.667367e-07
7.8598914e-08
9.6690558e-06
-3.7284516e-07
8.2918824e-08
9.8793436e-06
-3.6730146e-07
8.1470016e-08
1.0111493e-05
-3.5961209e-07
7.3196482e-08
1.0357665e-05
-3.6098129e-07
5.5857227e-08
1.061558e-05
-3.8127217e-07
2.6657122e-08
1.0890811e-05
-4.3092428e-07
-1.9329438e-08
1.1178973e-05
-5.269938e-07
-8.9034944e-08
1.1492725e-05
-6.9277868e-07
-1.8799478e-07
1.1850035e-05
-9.5404213e-07
-3.234364e-07
1.2278733e-05
-1.3463891e-06
-4.9461155e-07
1.2772781e-05
-1.8999064e-06
-6.8042446e-07
1.3322685e-05
-2.494585e-06
-8.4098684e-07
1.3824939e-05
-2.8867781e-06
-9.7572422e-07
1.415944e-05
-2.8757537e-06
-1.141812e-06
1.4283389e-05
-2.5440698e-06
-1.3611081e-06
1.4229628e-05
-2.1014676e-06
-1.6086375e-06
1.4079123e-05
-1.7310659e-06
-1.8492428e-06
1.3911803e-05
-1.4951306e-06
-2.0506921e-06
1.3746735e-05
-1.3279308e-06
-2.1927017e-06
1.3586506e-05
-1.2027318e-06
-2.2613334e-06
1.3431935e-05
-1.1053607e-06
-2.2556477e-06
1.3311161e-05
-1.0529805e-06
-2.180181e-06
1.3288782e-05
-1.0593277e-06
-2.0376265e-06
1.3483686e-05
-1.1223616e-06
-1.8261227e-06
1.4134214e-05
-1.2348195e-06
-1.5534101e-06
1.5799085e-05
-1.4146957e-06
-1.3360386e-06
-1.3233402e-06
-1.3869212e-06
9.2974219e-06
-2.1126161e-07
3.8206985e-08
9.278279e-06
-2.8151033e-07
6.7651039e-08
9.2448352e-06
-2.9683675e-07
8.2709019e-08
9.2093074e-06
-3.0076357e-07
9.0123935e-08
9.1820202e-06
-3.0011398e-07
9.2940909e-08
9.1660735e-06
-2.9715931e-07
9.0670158e-08
9.16107e-06
-2.9761049e-07
8.1996977e-08
9.1668918e-06
-3.0832675e-07
6.5546224e-08
9.1850555e-06
-3.3721409e-07
4.0413391e-08
9.2135916e-06
-3.9895571e-07
7.4989486e-09
9.2746191e-06
-5.2009227e-07
-6.3783433e-08
9.3807296e-06
-7.4353976e-07
-1.6877212e-07
9.554222e-06
-1.1288343e-06
-3.1626325e-07
9.8252212e-06
-1.7195581e-06
-4.8010284e-07
1.0175059e-05
-2.3416673e-06
-5.7609854e-07
1.0478345e-05
-2.6332942e-06
-5.5208776e-07
1.0728089e-05
-2.3640003e-06
-4.5444002e-07
1.0857638e-05
-1.709663e-06
-3.3921949e-07
1.0883617e-05
-9.7567834e-07
-3.163674e-07
1.0847142e-05
-3.5376772e-07
-4.2403112e-07
1.0800596e-05
1.4458045e-09
-5.3466227e-07
1.0787078e-05
1.3698991e-07
-5.3367317e-07
1.0815532e-05
1.4639204e-07
-4.3155433e-07
1.0853167e-05
8.0724968e-08
-2.12929e-07
1.0879096e-05
-2.0450479e-08
4.2467509e-08
1.0864738e-05
-1.621963e-07
3.0988265e-07
1.0889209e-05
-3.9158239e-07
5.5638269e-07
1.1070692e-05
-6.4981793e-07
7.287508e-07
1.1701627e-05
-8.5786411e-07
6.3971514e-07
-9.1054137e-07
2.8220643e-07
9.1010744e-06
3.7140554e-08
8.8602813e-06
6.5325046e-08
8.5988815e-06
7.941135e-08
8.3327966e-06
8.5977322e-08
8.0696306e-06
8.7952959e-08
7.8151024e-06
8.4896018e-08
7.5715279e-06
7.5618102e-08
7.3377107e-06
5.8890843e-08
7.1089215e-06
3.3871474e-08
6.8711442e-06
8.3318313e-10
6.6204722e-06
-6.8263941e-08
6.3264632e-06
-1.6941613e-07
5.9621674e-06
-3.4209759e-07
5.5089894e-06
-6.3837549e-07
5.0812571e-06
-9.6174812e-07
4.8729249e-06
-8.4133366e-07
4.9250472e-06
1.7846096e-07
5.02809e-06
1.6193788e-06
5.2088273e-06
2.837746e-06
5.617246e-06
3.5443278e-06
6.1462172e-06
3.9194818e-06
6.671751e-06
4.0683689e-06
7.1212849e-06
4.0931424e-06
7.4578294e-06
4.0391255e-06
7.6833771e-06
3.9222773e-06
7.8267041e-06
3.7147766e-06
7.9331516e-06
3.365652e-06
8.1191785e-06
2.8734448e-06
8.8426414e-06
2.0009289e-06
9.1193422e-07
9.5858685e-06
-3.0191621e-07
1.8814116e-08
9.874729e-06
-2.6728997e-07
3.1429355e-08
1.0152321e-05
-2.5795604e-07
3.7233596e-08
1.0386647e-05
-2.1992843e-07
3.8454276e-08
1.0567897e-05
-1.7473823e-07
3.6780717e-08
1.0701464e-05
-1.3915748e-07
3.2843232e-08
1.0792183e-05
-1.1754919e-07
2.6819697e-08
1.0852495e-05
-1.0887127e-07
1.9237054e-08
1.0887006e-05
-1.1563678e-07
8.336447e-09
1.0901606e-05
-1.4361402e-07
-4.9631522e-09
1.0903336e-05
-2.0236417e-07
-1.7795719e-08
1.0907131e-05
-3.0657169e-07
-2.8905729e-08
1.094204e-05
-4.8067817e-07
-2.9447318e-08
1.1109513e-05
-8.0904737e-07
-6.9176533e-09
1.137144e-05
-1.159902e-06
7.6709461e-08
1.1630242e-05
-1.4298846e-06
1.9556578e-07
1.180982e-05
-1.6070576e-06
3.0582948e-07
1.190478e-05
-1.7598227e-06
3.8520398e-07
1.1938968e-05
-1.9171482e-06
4.3103984e-07
1.194093e-05
-2.0756758e-06
4.5142621e-07
1.1939883e-05
-2.225767e-06
4.592748e-07
1.1945428e-05
-2.3491854e-06
4.6904541e-07
1.194375e-05
-2.4251309e-06
4.9156388e-07
1.1916408e-05
-2.4483872e-06
5.2686604e-07
1.1862329e-05
-2.4333954e-06
5.6507257e-07
1.1811431e-05
-2.4071495e-06
5.9464416e-07
1.1819335e-05
-2.3793161e-06
6.0204668e-07
1.1909872e-05
-2.2700274e-06
5.4893878e-07
1.189462e-05
-1.745297e-06
2.9483308e-07
-4.1144121e-07
-3.3256711e-07
9.2109637e-06
-2.2682984e-07
2.0424431e-08
9.3134465e-06
-3.4123141e-07
3.720331e-08
9.450594e-06
-3.6359746e-07
4.7096342e-08
9.6284379e-06
-3.6603974e-07
5.1190583e-08
9.8398019e-06
-3.5530781e-07
5.0679993e-08
1.0069273e-05
-3.4075119e-07
4.5322382e-08
1.0305846e-05
-3.322185e-07
3.3954577e-08
1.0545603e-05
-3.3676962e-07
1.4793343e-08
1.0787473e-05
-3.6270456e-07
-1.4149393e-08
1.1033988e-05
-4.2372863e-07
-5.5480914e-08
1.1295626e-05
-5.4044277e-07
-1.1166097e-07
1.1598913e-05
-7.5486262e-07
-1.7867242e-07
1.1995375e-05
-1.1322353e-06
-2.399911e-07
1.2474467e-05
-1.7137915e-06
-2.5533402e-07
1.2918519e-05
-2.2283865e-06
-2.1652009e-07
1.3138622e-05
-2.4026478e-06
-2.2234284e-07
1.3100155e-05
-2.3761797e-06
-3.331696e-07
1.2898877e-05
-2.3747424e-06
-5.4382281e-07
1.2596509e-05
-2.396708e-06
-8.2574627e-07
1.224363e-05
-2.4360007e-06
-1.1352829e-06
1.1875164e-05
-2.493164e-06
-1.4142549e-06
1.1498378e-05
-2.5463911e-06
-1.6180874e-06
1.1102299e-05
-2.5583764e-06
-1.7309308e-06
1.0687059e-05
-2.5286939e-06
-1.7581131e-06
1.0278342e-05
-2.4907329e-06
-1.7107365e-06
9.9409504e-06
-2.5238909e-06
-1.5786052e-06
9.8813552e-06
-2.7251648e-06
-1.4144924e-06
1.0501527e-05
-3.0366033e-06
-1.3997448e-06
1.2284528e-05
-3.0980149e-06
-1.7578201e-06
-2.5255287e-06
-2.5268909e-06
9.2705986e-06
-2.1091616e-07
2.0656064e-08
9.2400257e-06
-2.8079599e-07
3.7789651e-08
9.205595e-06
-2.9500248e-07
4.8545823e-08
9.1732296e-06
-2.9731419e-07
5.3765014e-08
9.1510141e-06
-2.9452718e-07
5.4376944e-08
9.1397387e-06
-2.886541e-07
4.9849508e-08
9.1357384e-06
-2.8481513e-07
3.8594598e-08
9.1351227e-06
-2.8881643e-07
1.8208852e-08
9.1350107e-06
-3.0732691e-07
-1.4853551e-08
9.1379147e-06
-3.5309503e-07
-6.6043609e-08
9.1306318e-06
-4.5311683e-07
-1.4384174e-07
9.1177625e-06
-6.5999232e-07
-2.5081259e-07
9.1305157e-06
-1.0843025e-06
-3.7699849e-07
9.2293828e-06
-1.8349416e-06
-4.5730365e-07
9.159919e-06
-2.3363867e-06
-3.9644285e-07
8.7037914e-06
-2.1150913e-06
-3.8135209e-07
8.0236384e-06
-1.6136769e-06
-5.3601011e-07
7.4954914e-06
-1.4248459e-06
-7.6134657e-07
7.0011133e-06
-1.1432262e-06
-1.0765377e-06
6.4803507e-06
-9.2767115e-07
-1.4133086e-06
5.9354136e-06
-8.3987287e-07
-1.6452056e-06
5.4225915e-06
-8.6615933e-07
-1.7031578e-06
4.9925581e-06
-9.5073605e-07
-1.6103818e-06
4.7230336e-06
-1.072898e-06
-1.3988158e-06
4.6295161e-06
-1.2573873e-06
-1.0947027e-06
4.6554802e-06
-1.5432798e-06
-6.9211044e-07
5.0070133e-06
-1.9967168e-06
-5.1784237e-07
6.1008425e-06
-2.569128e-06
-8.2588336e-07
7.9153077e-06
-2.7825458e-06
-1.4810543e-06
-2.2906619e-06
-2.791436e-06
9.0750194e-06
2.0158082e-08
8.8228747e-06
3.6674961e-08
8.5604219e-06
4.686284e-08
8.2975143e-06
5.1571965e-08
8.0392477e-06
5.1693582e-08
7.7888462e-06
4.6644564e-08
7.5450162e-06
3.4634132e-08
7.3026491e-06
1.2442707e-08
7.0535215e-06
-2.4326658e-08
6.7871507e-06
-8.5889743e-08
6.4565867e-06
-1.9081481e-07
5.9962446e-06
-3.6905302e-07
5.2576496e-06
-6.8758517e-07
4.0077514e-06
-1.2206782e-06
2.4893851e-06
-1.7706919e-06
1.284944e-06
-1.7457179e-06
1.2489506e-06
-1.3963482e-06
1.5663384e-06
-1.2374255e-07
2.0219995e-06
1.2401453e-06
2.5643718e-06
2.0765039e-06
3.1538357e-06
2.4922579e-06
3.7048417e-06
2.6529183e-06
4.1693165e-06
2.6793827e-06
4.5020216e-06
2.6349084e-06
4.6197582e-06
2.5483633e-06
4.4227731e-06
2.3694942e-06
4.2361779e-06
1.556408e-06
4.5674382e-06
-2.5813555e-08
5.3586879e-06
-1.565955e-06
-3.5315815e-06
9.580427e-06
-3.0216819e-07
9.545928e-09
9.8620745e-06
-2.6688727e-07
1.6693421e-08
1.0134031e-05
-2.5585053e-07
2.1160933e-08
1.036391e-05
-2.149525e-07
2.3569133e-08
1.0541236e-05
-1.6503373e-07
2.4532754e-08
1.0671606e-05
-1.2186051e-07
2.4379927e-08
1.0763726e-05
-8.840957e-08
2.3152634e-08
1.0825826e-05
-6.3669664e-08
2.0839631e-08
1.0864238e-05
-4.7701384e-08
1.7631866e-08
1.0888274e-05
-4.3167474e-08
1.4122258e-08
1.0915883e-05
-5.7190055e-08
1.1612883e-08
1.0980431e-05
-1.0685771e-07
1.2968365e-08
1.1142112e-05
-2.194443e-07
2.7468214e-08
1.1476588e-05
-4.1775263e-07
7.5612578e-08
1.1844858e-05
-4.3812049e-07
1.4686807e-07
1.2115369e-05
-2.9252102e-07
2.1938901e-07
1.2269217e-05
-1.4018697e-07
2.9540267e-07
1.2357213e-05
-8.5157541e-08
3.8669507e-07
1.242533e-05
-1.2833126e-07
4.9650163e-07
1.2508513e-05
-2.5086694e-07
6.250471e-07
1.2622835e-05
-4.1897538e-07
7.7022961e-07
1.2749773e-05
-5.854259e-07
9.3382001e-07
1.2845961e-05
-7.1564981e-07
1.1171162e-06
1.2877182e-05
-8.114804e-07
1.3130386e-06
1.2841144e-05
-8.9545085e-07
1.502299e-06
1.2757851e-05
-9.6283726e-07
1.6463885e-06
1.2574896e-05
-8.9137941e-07
1.6820506e-06
1.2011201e-05
-4.2770338e-07
1.5465093e-06
1.0455278e-05
6.9193441e-07
1.163225e-06
3.008076e-06
4.603064e-07
9.2036958e-06
-2.2664021e-07
1.0170746e-08
9.2952062e-06
-3.4063557e-07
1.9443524e-08
9.4221732e-06
-3.6193173e-07
2.6214044e-08
9.5902305e-06
-3.6225076e-07
3.0436154e-08
9.7911686e-06
-3.4766885e-07
3.2382037e-08
1.0009247e-05
-3.2659496e-07
3.1982624e-08
1.0233641e-05
-3.0756568e-07
2.8719339e-08
1.0459041e-05
-2.9615917e-07
2.1878459e-08
1.0684983e-05
-2.987855e-07
1.0971929e-08
1.0920145e-05
-3.2879424e-07
-5.0792611e-09
1.119068e-05
-4.1329028e-07
-2.6260735e-08
1.1554506e-05
-6.0799971e-07
-4.1740369e-08
1.2122888e-05
-9.9101932e-07
-3.7484519e-08
1.2883387e-05
-1.4362424e-06
2.3783767e-09
1.3498379e-05
-1.3420821e-06
7.3005018e-08
1.3870094e-05
-9.6475556e-07
7.9195745e-08
1.4041998e-05
-6.9283389e-07
4.8876257e-08
1.4056641e-05
-6.3878209e-07
-3.261462e-09
1.3933437e-05
-7.5004609e-07
-7.8934034e-08
1.3710316e-05
-9.8029679e-07
-1.8049207e-07
1.3416096e-05
-1.2313709e-06
-3.0490079e-07
1.305214e-05
-1.4225206e-06
-4.1332811e-07
1.2591523e-05
-1.5206663e-06
-4.6022348e-07
1.2023453e-05
-1.5577303e-06
-4.3742001e-07
1.1403711e-05
-1.6246425e-06
-3.5460806e-07
1.0949198e-05
-1.819229e-06
-2.6031774e-07
1.0910611e-05
-1.9558317e-06
-3.0316648e-07
1.1024903e-05
-1.2934864e-06
-6.3677032e-07
1.1037348e-05
1.095825e-07
-1.169218e-06
2.3899638e-06
-1.8390977e-06
9.2636697e-06
-2.1089017e-07
1.0197699e-08
9.2220739e-06
-2.8077716e-07
1.9528159e-08
9.1767541e-06
-2.9462591e-07
2.6560895e-08
9.1331871e-06
-2.9606106e-07
3.1143561e-08
9.0982568e-06
-2.917165e-07
3.3356103e-08
9.0719064e-06
-2.8326063e-07
3.2866859e-08
9.0494767e-06
-2.7533149e-07
2.8791075e-08
9.0248835e-06
-2.7330245e-07
1.9945631e-08
8.9901432e-06
-2.8468509e-07
5.7842296e-09
8.9412443e-06
-3.2504031e-07
-2.0906357e-08
8.8747403e-06
-4.2990355e-07
-6.0749424e-08
8.8139885e-06
-6.8858674e-07
-1.0953653e-07
8.8803981e-06
-1.3089199e-06
-1.2547785e-07
9.2533605e-06
-2.1692093e-06
-9.5278302e-08
9.2108819e-06
-1.6643058e-06
-2.9877114e-08
8.6686592e-06
-7.897823e-07
-1.4890858e-08
7.9703675e-06
-4.2632328e-07
-1.0728311e-07
7.1117905e-06
-2.6202663e-07
-2.8381584e-07
6.1975262e-06
-3.9642188e-07
-5.2061087e-07
5.2533753e-06
-6.5293218e-07
-8.0173981e-07
4.3418751e-06
-9.2673928e-07
-1.0444726e-06
3.5546941e-06
-1.1782257e-06
-1.1668777e-06
2.9314724e-06
-1.3579365e-06
-1.1559717e-06
2.5237335e-06
-1.5588059e-06
-9.9348821e-07
2.2986907e-06
-1.8395125e-06
-6.5513212e-07
2.5093952e-06
-2.3028248e-06
-4.1691333e-07
3.5100433e-06
-2.8041457e-06
-6.6377314e-07
4.9514935e-06
-1.965184e-06
-1.5841143e-06
6.1385576e-06
-8.8987142e-08
-2.4524551e-06
1.4476787e-06
-3.1881119e-06
9.0683005e-06
9.9204343e-09
8.8053412e-06
1.88584e-08
8.5321089e-06
2.5470379e-08
8.258021e-06
2.9599997e-08
7.9867166e-06
3.128276e-08
7.7200008e-06
3.0100904e-08
7.4543017e-06
2.5002982e-08
7.1788169e-06
1.4626311e-08
6.873055e-06
-3.2485761e-09
6.5043438e-06
-4.2217385e-08
5.9940607e-06
-1.1043168e-07
5.1738286e-06
-2.3736217e-07
3.6672262e-06
-4.8911076e-07
1.2458009e-06
-9.5904081e-07
-1.0347518e-06
-1.1405102e-06
-2.5904116e-06
-9.8138724e-07
-3.5688138e-06
-8.4793881e-07
-3.4206634e-06
-5.3707438e-07
-2.6511658e-06
7.3976324e-08
-1.7068385e-06
4.8238605e-07
-8.3279405e-07
6.9480579e-07
-1.0771651e-07
7.5252708e-07
4.5118782e-07
7.6426752e-07
7.7404833e-07
7.5549839e-07
7.4195755e-07
7.4312654e-07
1.7644753e-07
6.34325e-07
-7.3906004e-07
-3.23321e-07
-7.6527004e-07
-1.9553597e-06
7.1891137e-07
-3.1236913e-06
-3.7728698e-06
9.577766e-06
-3.0253419e-07
3.3046969e-09
9.8559678e-06
-2.6734979e-07
5.8648705e-09
1.0125095e-05
-2.5621561e-07
8.2816663e-09
1.0352915e-05
-2.1500343e-07
1.0790762e-08
1.0528525e-05
-1.6455927e-07
1.3526049e-08
1.0656973e-05
-1.2077116e-07
1.674799e-08
1.0746513e-05
-8.6856727e-08
2.0510249e-08
1.0804561e-05
-6.2277388e-08
2.5093537e-08
1.0839032e-05
-4.7654687e-08
3.0800625e-08
1.0862462e-05
-4.7175137e-08
3.7762585e-08
1.090111e-05
-7.2875702e-08
4.5519986e-08
1.1011365e-05
-1.4958392e-07
5.1517791e-08
1.1280959e-05
-2.9122083e-07
4.7813725e-08
1.1703082e-05
-3.7801738e-07
3.0959334e-08
1.2079756e-05
-2.4156935e-07
1.2603965e-08
1.2345346e-05
-3.9231476e-08
-4.8937804e-09
1.2529231e-05
1.3358573e-07
-2.0034851e-08
1.2662063e-05
2.851943e-07
-2.9270585e-08
1.2780814e-05
4.0799036e-07
-2.8055537e-08
1.2914807e-05
5.0454603e-07
-1.1080956e-08
1.3088491e-05
5.8367598e-07
1.5613467e-08
1.3287856e-05
6.7756324e-07
5.9922814e-08
1.3462445e-05
8.3934889e-07
1.0640651e-07
1.3560556e-05
1.0720573e-06
1.4616235e-07
1.3530294e-05
1.3597657e-06
1.7599684e-07
1.329176e-05
1.6923187e-06
1.9560622e-07
1.2681609e-05
2.0928888e-06
2.021862e-07
1.1409977e-05
2.6366877e-06
1.8465048e-07
9.0018724e-06
3.4423223e-06
1.3328566e-07
4.9609726e-06
6.1905158e-08
9.1998561e-06
-2.2669267e-07
3.4431635e-09
9.2860157e-06
-3.4072679e-07
6.6632223e-09
9.4077496e-06
-3.6187466e-07
1.0142866e-08
9.5708816e-06
-3.6183511e-07
1.4140771e-08
9.7665198e-06
-3.4665785e-07
1.8848348e-08
9.9779705e-06
-3.2480628e-07
2.457316e-08
1.0193506e-05
-3.0511025e-07
3.1441395e-08
1.0407176e-05
-2.939759e-07
3.9903027e-08
1.0619738e-05
-2.9971675e-07
5.0444725e-08
1.0843981e-05
-3.3967067e-07
6.3080323e-08
1.1122634e-05
-4.5429318e-07
7.6248598e-08
1.1569101e-05
-7.2111028e-07
8.2724497e-08
1.2353653e-05
-1.1827634e-06
6.861901e-08
1.3122472e-05
-1.1776132e-06
3.3127517e-08
1.3691916e-05
-7.4230615e-07
4.8641457e-09
1.4125044e-05
-3.8266686e-07
-9.4657567e-09
1.4457457e-05
-1.3795483e-07
-7.4636907e-09
1.4693857e-05
4.8107867e-08
6.0277475e-09
1.4881321e-05
1.218658e-07
3.3896693e-08
1.5057171e-05
8.8788622e-08
8.2009137e-08
1.5253043e-05
-1.9859368e-08
1.4033044e-07
1.5495443e-05
-1.024346e-07
1.7849362e-07
1.5707501e-05
4.8762991e-08
1.8905138e-07
1.5811996e-05
4.306247e-07
1.8147767e-07
1.5768192e-05
9.6811773e-07
1.7140707e-07
1.5493557e-05
1.6312793e-06
1.7013648e-07
1.4779295e-05
2.4268784e-06
1.7064061e-07
1.3282913e-05
3.4503435e-06
1.3004602e-07
1.0768146e-05
4.8223555e-06
3.2001928e-08
6.5681472e-06
-1.4286653e-07
9.2598723e-06
-2.1087589e-07
3.4699869e-09
9.2127312e-06
-2.8078231e-07
6.7258667e-09
9.161602e-06
-2.9452217e-07
1.0338831e-08
9.1119825e-06
-2.9570548e-07
1.4634669e-08
9.0697767e-06
-2.9101328e-07
1.9918618e-08
9.0334328e-06
-2.8221887e-07
2.6624861e-08
8.996251e-06
-2.7428962e-07
3.5153649e-08
8.9492705e-06
-2.7349077e-07
4.64421e-08
8.882785e-06
-2.8934724e-07
6.1899266e-08
8.7825606e-06
-3.4348669e-07
8.3124872e-08
8.6476643e-06
-4.9223254e-07
1.1205139e-07
8.5630774e-06
-8.9066543e-07
1.4452853e-07
8.9878753e-06
-1.8727133e-06
1.4007737e-07
9.3358369e-06
-1.7039867e-06
8.5906318e-08
9.1270369e-06
-6.162189e-07
5.3118795e-08
8.87432e-06
-2.192707e-07
7.2385632e-08
8.4201353e-06
7.5771259e-08
1.3118609e-07
7.7664876e-06
2.0471324e-07
2.1254179e-07
6.9448106e-06
1.1826213e-07
3.0577962e-07
5.9192517e-06
-9.5019871e-08
4.0837616e-07
4.7372273e-06
-3.5382919e-07
4.6698885e-07
3.6701293e-06
-6.5581314e-07
4.448482e-07
3.1933732e-06
-9.5266449e-07
3.1258049e-07
3.660638e-06
-1.1265532e-06
9.6715276e-08
5.0586666e-06
-1.0449039e-06
-2.8753755e-08
6.9510856e-06
-4.4667097e-07
-2.1055048e-07
8.4174692e-06
6.1457358e-07
-2.852013e-07
8.6670751e-06
1.9977987e-06
-3.4479542e-07
7.7235364e-06
3.6936126e-06
-3.4690151e-07
5.6353725e-06
-2.8639208e-07
9.0645902e-06
3.4074144e-09
8.7960909e-06
6.5765751e-09
8.516929e-06
1.0111306e-08
8.2364534e-06
1.4371333e-08
7.9569729e-06
1.9751255e-08
7.6780872e-06
2.676893e-08
7.3926667e-06
3.6135218e-08
7.0844309e-06
4.9372678e-08
6.7226349e-06
6.9201831e-08
6.2362856e-06
1.0064773e-07
5.4788164e-06
1.5481454e-07
4.0974411e-06
2.5348965e-07
1.3037546e-06
4.3437036e-07
-1.8394139e-06
5.0580282e-07
-3.9248264e-06
3.2878738e-07
-5.346578e-06
2.1767355e-07
-6.2778107e-06
1.5479738e-07
-6.71004e-06
9.7280418e-08
-6.4769654e-06
-4.2043789e-08
-5.8505784e-06
-2.3654286e-07
-5.0412204e-06
-4.6494231e-07
-4.2628242e-06
-6.7733188e-07
-3.5798512e-06
-8.6593623e-07
-2.9540942e-06
-9.9053928e-07
-2.3185111e-06
-9.3127046e-07
-1.5000613e-06
-6.2904659e-07
-3.2460178e-07
-8.8645608e-07
6.9587146e-07
-9.8055716e-07
1.4980141e-06
-2.2414333e-07
3.2298046e-06
9.5780884e-06
-3.025068e-07
-3.2863508e-09
9.8567431e-06
-2.67206e-07
-5.5615199e-09
1.0126531e-05
-2.5599147e-07
-5.4848981e-09
1.0355347e-05
-2.1469747e-07
-3.2912202e-09
1.0532702e-05
-1.6408684e-07
2.9655175e-10
1.0663268e-05
-1.2003367e-07
6.2631415e-09
1.0755845e-05
-8.5556287e-08
1.3543611e-08
1.0818124e-05
-5.9725654e-08
2.2600986e-08
1.0857613e-05
-4.2402701e-08
3.378706e-08
1.0884572e-05
-3.6186257e-08
4.7097088e-08
1.0917639e-05
-4.9029054e-08
6.1688596e-08
1.0995113e-05
-9.9905828e-08
7.4433386e-08
1.1184216e-05
-2.1690413e-07
7.6619687e-08
1.1577439e-05
-4.1521956e-07
5.3986927e-08
1.1986479e-05
-3.8141808e-07
-1.4945644e-08
1.2276015e-05
-2.0267296e-07
-9.3093897e-08
1.2473356e-05
-4.0869016e-08
-1.7941295e-07
1.2638433e-05
6.9467243e-08
-2.6681041e-07
1.2818505e-05
1.5405177e-07
-3.6526777e-07
1.3051514e-05
2.3984031e-07
-4.8716806e-07
1.3326981e-05
3.8641163e-07
-6.4980034e-07
1.3606132e-05
6.4218495e-07
-8.6536133e-07
1.3829564e-05
1.001109e-06
-1.1227472e-06
1.3937552e-05
1.4338217e-06
-1.4012621e-06
1.3877967e-05
1.8928601e-06
-1.6642432e-06
1.3567856e-05
2.3559981e-06
-1.8588242e-06
1.2827322e-05
2.8560707e-06
-1.9234501e-06
1.1355746e-05
3.4352819e-06
-1.7903725e-06
8.6891607e-06
4.1487573e-06
-1.3616822e-06
5.3063476e-06
-6.2856841e-07
9.2001691e-06
-2.2664497e-07
-3.6177443e-09
9.287005e-06
-3.4060336e-07
-6.7730366e-09
9.4098086e-06
-3.6162808e-07
-7.0204136e-09
9.5746569e-06
-3.6141623e-07
-3.9835602e-09
9.773218e-06
-3.4593151e-07
2.1389837e-09
9.9885622e-06
-3.234953e-07
1.2699289e-08
1.0209916e-05
-3.0256689e-07
2.7109117e-08
1.0431962e-05
-2.8866666e-07
4.6813082e-08
1.0655005e-05
-2.8809978e-07
7.3121114e-08
1.0888882e-05
-3.1386637e-07
1.0692819e-07
1.1163982e-05
-3.9510237e-07
1.4733394e-07
1.1550526e-05
-5.9167949e-07
1.8824046e-07
1.2174019e-05
-9.8282329e-07
2.1162869e-07
1.3004068e-05
-1.3912391e-06
1.7938309e-07
1.3618564e-05
-1.0759993e-06
8.4630105e-08
1.4046698e-05
-6.7265577e-07
3.1536722e-08
1.4370432e-05
-4.103871e-07
3.6856044e-08
1.4644115e-05
-3.0325198e-07
9.7417254e-08
1.488586e-05
-2.5524152e-07
1.8190039e-07
1.5172668e-05
-2.9471411e-07
2.9064742e-07
1.5539482e-05
-2.9350412e-07
3.9049978e-07
1.5919778e-05
-7.4146538e-08
4.3744491e-07
1.6189544e-05
4.2919564e-07
4.0952603e-07
1.6293233e-05
1.1197041e-06
3.1186342e-07
1.6191137e-05
1.9027746e-06
1.9033963e-07
1.5794521e-05
2.7432918e-06
1.1564765e-07
1.4833102e-05
3.7244298e-06
2.098549e-07
1.2960809e-05
4.8586153e-06
5.3607398e-07
9.7124642e-06
6.2773331e-06
1.1191066e-06
8.0708699e-06
1.912361e-06
9.2602254e-06
-2.1083883e-07
-3.6002201e-09
9.213804e-06
-2.8070028e-07
-6.7546209e-09
9.1639202e-06
-2.9435846e-07
-7.0457762e-09
9.1164724e-06
-2.9540713e-07
-3.9254252e-09
9.0780838e-06
-2.9044439e-07
2.8215604e-09
9.0475096e-06
-2.8115818e-07
1.486361e-08
9.01998e-06
-2.7211729e-07
3.2235423e-08
8.9892058e-06
-2.6869298e-07
5.724491e-08
8.9484535e-06
-2.7816438e-07
9.2719309e-08
8.8917477e-06
-3.1629047e-07
1.4226077e-07
8.820072e-06
-4.2093448e-07
2.0957396e-07
8.7665661e-06
-6.8894671e-07
2.9533588e-07
8.8878164e-06
-1.3510451e-06
3.8700472e-07
9.538773e-06
-2.374598e-06
4.1711344e-07
9.341977e-06
-1.0747186e-06
2.4820531e-07
9.0677281e-06
-5.2722037e-07
2.016655e-07
8.6925077e-06
-1.7549461e-07
2.7285521e-07
8.1740749e-06
-1.1622701e-08
4.4064352e-07
7.5891886e-06
-4.9116562e-08
6.8571744e-07
6.9506262e-06
-2.1930023e-07
9.7357551e-07
6.4611674e-06
-5.103798e-07
1.1757663e-06
6.4972093e-06
-8.0995478e-07
1.1426772e-06
7.2480112e-06
-9.113394e-07
8.9816483e-07
8.5615494e-06
-7.0600954e-07
6.03438e-07
1.0022992e-05
-1.8493949e-08
4.1055004e-07
1.1133526e-05
9.3118125e-07
4.5978382e-07
1.139647e-05
2.27178e-06
8.6846755e-07
1.0568561e-05
3.7562036e-06
1.5499155e-06
7.987352e-06
6.2010223e-06
2.2796396e-06
1.1794423e-05
2.9113381e-06
9.0649715e-06
-3.4498257e-09
8.7972313e-06
-6.3823398e-09
8.5194233e-06
-6.4378466e-09
8.2414686e-06
-3.0799252e-09
7.9664381e-06
4.3386158e-09
7.6948887e-06
1.7161421e-08
7.4227349e-06
3.6172926e-08
7.1389413e-06
6.4474552e-08
6.8231885e-06
1.0679145e-07
6.4363354e-06
1.7121136e-07
5.8980112e-06
2.7220273e-07
5.0250082e-06
4.3751298e-07
3.3813575e-06
7.2663719e-07
2.9076245e-07
1.219045e-06
-2.1190698e-06
1.6491538e-06
-3.8089699e-06
1.3795098e-06
-4.8836793e-06
1.0547497e-06
-5.377658e-06
5.8045825e-07
-5.1963449e-06
-2.7162651e-07
-4.5146421e-06
-1.1388979e-06
-3.7496978e-06
-1.7420775e-06
-3.1331344e-06
-2.1041915e-06
-2.6061374e-06
-2.3018166e-06
-1.9230628e-06
-2.3732288e-06
-6.5657958e-07
-2.2019207e-06
9.6886694e-07
-1.3239422e-06
2.3339256e-06
6.2613433e-09
3.5401959e-06
1.5520196e-06
6.9607325e-06
2.5326011e-06
1.7136419e-06
9.5814554e-06
-3.020669e-07
-1.368435e-08
9.8645741e-06
-2.6646034e-07
-2.2198642e-08
1.0138524e-05
-2.5516447e-07
-2.4241616e-08
1.0371003e-05
-2.1403035e-07
-2.1703174e-08
1.0551317e-05
-1.6386193e-07
-1.6108144e-08
1.0685838e-05
-1.2031134e-07
-7.8977494e-09
1.0782852e-05
-8.6307612e-08
2.8855325e-09
1.0850749e-05
-6.054708e-08
1.5302555e-08
1.0896116e-05
-4.2351998e-08
3.0833898e-08
1.0927221e-05
-3.2957335e-08
4.9040545e-08
1.0957195e-05
-3.7000136e-08
6.8892802e-08
1.1011302e-05
-6.6601302e-08
8.7339026e-08
1.11382e-05
-1.4637308e-07
9.699199e-08
1.1438021e-05
-3.3316614e-07
8.8621193e-08
1.18021e-05
-4.2693763e-07
4.8708623e-08
1.2100802e-05
-3.5900781e-07
-3.3137226e-08
1.2301543e-05
-2.2984048e-07
-1.5190277e-07
1.2429774e-05
-1.5830223e-07
-2.3936424e-07
1.2527431e-05
-1.7175062e-07
-2.9474482e-07
1.2619127e-05
-2.5039352e-07
-3.331848e-07
1.2710961e-05
-3.7209587e-07
-3.7594522e-07
1.279058e-05
-5.1608928e-07
-4.3752292e-07
1.2847034e-05
-6.7012989e-07
-5.2014772e-07
1.2880725e-05
-8.3075955e-07
-6.1756087e-07
1.2898036e-05
-9.7368586e-07
-7.2302259e-07
1.2876133e-05
-1.0204264e-06
-8.3235764e-07
1.2695946e-05
-8.2945532e-07
-9.2850348e-07
1.2124647e-05