/*--------------------------------*- C++ -*----------------------------------*\
| =========                 |                                                 |
| \\      /  F ield         | OpenFOAM: The Open Source CFD Toolbox           |
|  \\    /   O peration     | Version:  v2012                                 |
|   \\  /    A nd           | Website:  www.openfoam.com                      |
|    \\/     M anipulation  |                                                 |
\*---------------------------------------------------------------------------*/
FoamFile
{
    version     2.0;
    format      ascii;
    class       volScalarField;
    location    "450/topAir";
    object      rho;
}
// * * * * * * * * * * * * * * * * * * * * * * * * * * * * * * * * * * * * * //

dimensions      [1 -3 0 0 0 0 0];


internalField   nonuniform List<scalar> 
1200
(
1.0719566
1.0025856
0.94712016
0.90109072
0.8616156
0.82698694
0.79623607
0.76901046
0.74535245
0.72483573
0.70724548
0.69255923
0.68113702
0.68061948
0.68340958
0.68952497
0.69815632
0.70799871
0.71777774
0.72656683
0.73383796
0.73935141
0.74303992
0.74493026
0.74510194
0.74363279
0.7404994
0.7354179
0.72759064
0.71610327
1.156607
1.1528261
1.1476899
1.1414559
1.1343142
1.1264158
1.1178989
1.1083381
1.0954097
1.0785952
1.0557152
1.0257324
0.98934768
0.95239945
0.91859636
0.89039492
0.86834635
0.85218018
0.84138842
0.83522894
0.83255074
0.83193285
0.83205481
0.83188406
0.8306659
0.82776029
0.82236691
0.81314715
0.79767994
0.774352
1.1585752
1.1584484
1.1582132
1.1578466
1.157329
1.1566438
1.1557779
1.1547079
1.1533525
1.151621
1.1492609
1.1423094
1.1236288
1.0914211
1.0507715
1.0072623
0.96676919
0.93194982
0.90384371
0.88250921
0.86726181
0.85688803
0.84999522
0.84528791
0.84168741
0.838306
0.83431357
0.8286559
0.81944508
0.80411063
1.1586179
1.1586137
1.1586036
1.1585838
1.1585494
1.1584946
1.1584124
1.1582941
1.1581271
1.1578919
1.1575426
1.1567991
1.1544172
1.1415829
1.1079507
1.0641761
1.0219032
0.98364407
0.95053077
0.92320617
0.90168396
0.88535482
0.87322666
0.86422921
0.85739753
0.85191924
0.84707498
0.84207275
0.83563889
0.82574647
1.0719746
1.0033009
0.94898289
0.90443065
0.86676229
0.8343128
0.80614158
0.78174249
0.76093477
0.74378768
0.7306145
0.72190891
0.71848273
0.73012199
0.74662408
0.76559387
0.78344102
0.79759913
0.80742066
0.81362622
0.81728954
0.81910454
0.81934755
0.81806292
0.81527868
0.81101877
0.80511809
0.79683206
0.78420834
0.76665313
1.1566097
1.1528993
1.1479565
1.1420749
1.13548
1.1283604
1.1209018
1.1133083
1.1058181
1.0987271
1.0924295
1.0874186
1.0842858
1.0838378
1.0851861
1.0859207
1.0835418
1.0776182
1.0693402
1.0600437
1.0503439
1.0401925
1.0294213
1.0179031
1.0055985
0.99250988
0.97869831
0.96437682
0.94940831
0.92384543
1.1585753
1.158452
1.158229
1.1578905
1.1574256
1.1568276
1.1560954
1.1552343
1.1542578
1.1531941
1.1520916
1.1509524
1.1497994
1.1484766
1.14449
1.1346866
1.1163971
1.0922499
1.0672046
1.0450948
1.0264372
1.0085153
0.99113386
0.97420771
0.95796936
0.94191119
0.92568199
0.90915732
0.89204845
0.87380011
1.1586179
1.1586139
1.1586044
1.1585865
1.1585566
1.1585105
1.1584438
1.1583521
1.1582303
1.1580732
1.1578727
1.1575937
1.1570078
1.1542383
1.1417782
1.1145018
1.0792818
1.0381567
0.99864043
0.9646657
0.93760338
0.91769002
0.90219594
0.88963749
0.87924552
0.87095671
0.86404523
0.85786204
0.85161836
0.84471031
1.0719797
1.0031845
0.94872607
0.90402289
0.86617835
0.83351276
0.80501965
0.78004129
0.758219
0.73945649
0.72394103
0.71221185
0.70553656
0.71541699
0.73059189
0.74811615
0.76540243
0.7815632
0.79635969
0.80955328
0.82080888
0.82963183
0.83547866
0.83806034
0.83751693
0.83434173
0.82899787
0.82130853
0.80901714
0.78564189
1.1566094
1.1528867
1.1479216
1.1420114
1.1353802
1.1282086
1.1206617
1.112908
1.1051482
1.0976569
1.0908318
1.0853023
1.0820039
1.0819956
1.0832759
1.0828463
1.0801945
1.0759868
1.0702862
1.0630016
1.0538971
1.0425798
1.0288461
1.0130016
0.99576647
0.9777599
0.95902736
0.93987122
0.91997059
0.89560346
1.1585753
1.1584514
1.1582272
1.1578871
1.1574206
1.1568214
1.1560878
1.1552242
1.1542431
1.1531728
1.1520719
1.1510501
1.1502342
1.148648
1.1401417
1.1237714
1.1071296
1.0936674
1.08019
1.0654019
1.0481386
1.0273792
1.0036221
0.97892729
0.95566922
0.93522206
0.91677604
0.89989492
0.88443706
0.86705066
1.1586179
1.1586139
1.1586044
1.1585864
1.1585564
1.1585105
1.1584444
1.158354
1.1582347
1.1580826
1.1578933
1.1576461
1.1569923
1.1510345
1.1178617
1.0685027
1.0378755
1.0353194
1.0131535
0.98453196
0.95854362
0.93772608
0.92097157
0.907182
0.89556361
0.88579434
0.87739099
0.86974359
0.85851598
0.84251645
1.0719731
1.0031315
0.94858082
0.90373739
0.86567768
0.83267401
0.80364842
0.77787767
0.75488138
0.73439805
0.71643738
0.70145289
0.69073122
0.69562289
0.70042222
0.7021956
0.70126334
0.69946095
0.69845518
0.69932172
0.70236705
0.70706832
0.71248186
0.71786004
0.72282903
0.72693273
0.72840829
0.72329499
0.71084512
0.69601644
1.1566091
1.1528814
1.1479008
1.1419597
1.1352739
1.128009
1.1203046
1.1122923
1.1041215
1.0960145
1.0883645
1.0819159
1.0777975
1.0761184
1.0728453
1.0678019
1.0619558
1.0559513
1.0498207
1.043149
1.0350165
1.0245308
1.0113466
0.99588262
0.97888592
0.96058746
0.9409039
0.92027729
0.88651676
0.82427377
1.1585753
1.1584512
1.1582261
1.1578837
1.1574128
1.1568055
1.1560576
1.1551693
1.1541483
1.1530182
1.1518412
1.1507572
1.1497475
1.1443337
1.1261192
1.1110527
1.1007516
1.092574
1.0825733
1.0679327
1.0473569
1.0209573
0.99088497
0.96148384
0.93631478
0.91537556
0.89730602
0.88125667
0.86411141
0.83418667
1.1586179
1.1586138
1.1586043
1.1585862
1.1585559
1.1585093
1.1584419
1.158349
1.1582254
1.1580654
1.1578605
1.1575362
1.1556963
1.1325374
1.0484972
0.99619231
0.99079922
0.99104571
0.99113116
0.97733311
0.9596882
0.94280297
0.92603107
0.91335746
0.90206227
0.89131226
0.8775441
0.85801346
0.83346943
0.81181381
1.0719627
1.003101
0.94852202
0.90364518
0.86554466
0.83249017
0.80340604
0.7775794
0.75454957
0.7341034
0.71639349
0.70215439
0.69264568
0.69846189
0.70095227
0.6991716
0.69590473
0.69116208
0.68569104
0.6800591
0.67474931
0.67014366
0.66647506
0.66382922
0.66214039
0.66112549
0.66008241
0.6577329
0.65248447
0.6426353
1.1566088
1.1528787
1.1478915
1.1419384
1.1352339
1.1279415
1.1201992
1.11214
1.1039242
1.0958088
1.0883024
1.0823772
1.0790213
1.0751061
1.0694152
1.0627574
1.0512004
1.0350213
1.0165088
0.99712799
0.97818269
0.95963456
0.93927589
0.91672391
0.89220336
0.86626063
0.83899315
0.80930509
0.77457261
0.73123253
1.1585753
1.1584511
1.1582255
1.1578821
1.1574092
1.1567985
1.1560451
1.155149
1.1541181
1.1529811
1.1518207
1.1508053
1.1490844
1.1328332
1.1183468
1.1094754
1.1039704
1.0976854
1.0898806
1.0786839
1.0598689
1.0311169
0.99550385
0.96117395
0.93565032
0.91603832
0.89573203
0.86920405
0.83292685
0.78492763
1.1586179
1.1586138
1.1586043
1.1585861
1.1585556
1.1585086
1.1584406
1.1583464
1.1582203
1.1580558
1.1578358
1.1573231
1.1515882
1.0657548
0.98485428
0.97083823
0.96517867
0.95953936
0.95175131
0.94431774
0.9355419
0.92530791
0.91476155
0.90480698
0.89532812
0.88576905
0.87593331
0.85784665
0.82754993
0.79078067
1.0719471
1.0030757
0.94849172
0.90361288
0.8655106
0.83245341
0.8033613
0.77751041
0.75441623
0.73380906
0.71571097
0.70064074
0.69000238
0.69695615
0.70213522
0.70284387
0.69958128
0.69414723
0.68802435
0.68173528
0.67573194
0.67044132
0.66624267
0.66340422
0.66197565
0.66161275
0.66140216
0.65980822
0.65474592
0.64405067
1.1566084
1.1528776
1.1478898
1.1419362
1.1352315
1.1279389
1.1201945
1.1121261
1.1038785
1.0956701
1.0879113
1.0814044
1.0773275
1.0754445
1.0711753
1.0653634
1.0588024
1.0491048
1.0357931
1.0189291
0.99694052
0.96833127
0.93474172
0.89828856
0.86172308
0.82715995
0.79528901
0.7654721
0.73593516
0.70275391
1.1585753
1.158451
1.1582254
1.1578821
1.1574093
1.1567988
1.1560458
1.15515
1.1541178
1.1529727
1.1517802
1.1506899
1.1496338
1.1436151
1.1252275
1.1127474
1.1055343
1.1003751
1.0937873
1.0833253
1.0661974
1.042417
1.01357
0.98402081
0.95382794
0.91929125
0.8819475
0.84219237
0.79920312
0.75061353
1.1586179
1.1586138
1.1586043
1.1585861
1.1585556
1.1585087
1.1584408
1.158347
1.1582217
1.1580591
1.1578484
1.1574938
1.1554204
1.1319572
1.0118754
0.98474591
0.976866
0.97146641
0.96639515
0.95894811
0.946806
0.93316139
0.92005482
0.90842232
0.89879301
0.89128732
0.8771804
0.84881842
0.80854322
0.77493256
1.0719324
1.0030649
0.94849944
0.90364907
0.86558545
0.83257693
0.80354502
0.77776086
0.75472449
0.73412187
0.71585958
0.7002051
0.68825267
0.69182386
0.69660567
0.69928393
0.69925829
0.69778533
0.69646701
0.6963546
0.69802825
0.70167093
0.70718467
0.71428453
0.72223408
0.72940734
0.73304512
0.72982432
0.71842628
0.70174207
1.156608
1.1528786
1.1478964
1.1419543
1.1352683
1.1280034
1.120298
1.1122804
1.1040888
1.0959108
1.0880683
1.0811692
1.0762482
1.0743012
1.0722026
1.06825
1.0631679
1.0577204
1.0521107
1.0460457
1.0388481
1.0297584
1.0184527
1.0050543
0.98959164
0.97188914
0.95213103
0.93028231
0.89509053
0.8294173
1.1585753
1.1584511
1.158226
1.1578837
1.157413
1.1568063
1.1560595
1.1551729
1.1541531
1.15302
1.1518238
1.1506798
1.1497098
1.1473844
1.1351196
1.1192484
1.107746
1.0991845
1.0900731
1.0783702
1.0625499
1.0417259
1.016475
0.98800531
0.95677437
0.92458813
0.8964165
0.87381267
0.85005221
0.81528215
1.1586179
1.1586138
1.1586043
1.1585862
1.1585559
1.1585094
1.1584424
1.1583501
1.1582278
1.1580702
1.1578708
1.1575912
1.156669
1.1480864
1.0924847
1.0304509
1.0065749
1.0068261
1.0071526
0.98826479
0.96473422
0.94326895
0.92467181
0.9079093
0.89129421
0.87417635
0.85662087
0.83912082
0.81573751
0.79407807
1.0719207
1.0030878
0.94860629
0.90388962
0.86603861
0.83337332
0.80487096
0.77989194
0.75806573
0.73925132
0.72354421
0.71133109
0.70363964
0.71178143
0.7252085
0.74212594
0.76009859
0.77760332
0.79369539
0.80787274
0.82002812
0.83011724
0.83789416
0.84294675
0.8449688
0.84392156
0.8399635
0.83318492
0.82210542
0.80351897
1.1566079
1.1528827
1.1479152
1.1420035
1.1353724
1.1282031
1.1206592
1.1129063
1.1051369
1.0975923
1.0906246
1.0847678
1.0808305
1.0800113
1.0813518
1.0822384
1.0812977
1.0785558
1.0739616
1.0676208
1.0596555
1.0498521
1.0377525
1.0229564
1.0053716
0.98510361
0.96245203
0.93829886
0.91335484
0.88551848
1.1585753
1.1584513
1.158227
1.157887
1.1574209
1.1568228
1.1560912
1.1552303
1.1542521
1.1531825
1.1520711
1.1510109
1.150135
1.1491431
1.1443919
1.1326786
1.1180525
1.1043684
1.0902082
1.0753905
1.0597702
1.0419607
1.0207243
0.99574602
0.96834697
0.94068951
0.9151305
0.892814
0.86943238
0.84242568
1.1586179
1.1586139
1.1586044
1.1585864
1.1585565
1.1585108
1.1584452
1.1583556
1.1582379
1.1580885
1.1579038
1.157671
1.1572239
1.1545209
1.1359172
1.0982589
1.0679189
1.055038
1.0284586
0.99466845
0.96378466
0.93961659
0.92079019
0.90557292
0.89264452
0.88140042
0.87180808
0.86288097
0.84398853
0.8207123
1.0719
1.0031761
0.94882385
0.9042462
0.86655579
0.83409476
0.80594068
0.78157031
0.76079722
0.74367673
0.73046969
0.72156637
0.71762786
0.72827143
0.74348272
0.76144597
0.77898049
0.79335481
0.803511
0.80989984
0.8135959
0.81549495
0.81615278
0.81581227
0.81449257
0.8120494
0.80812363
0.80202398
0.79206756
0.77465311
1.1566077
1.1528941
1.147948
1.1420641
1.1354689
1.1283523
1.1209025
1.1133214
1.1058376
1.0987369
1.0923827
1.0872189
1.0837638
1.0828186
1.0838312
1.0848643
1.0833548
1.0784115
1.070902
1.0621715
1.0529978
1.0434605
1.0334036
1.0225017
1.0103538
0.99665608
0.98135302
0.96468743
0.94641733
0.92383205
1.1585753
1.1584518
1.1582288
1.1578904
1.1574261
1.1568297
1.1561005
1.1552444
1.154275
1.1532185
1.1521197
1.1509574
1.1497377
1.1484626
1.1453085
1.1373483
1.1208794
1.0975738
1.0719595
1.0481738
1.0275017
1.0073638
0.98801677
0.96998125
0.95347741
0.93767932
0.92104707
0.90375681
0.8858951
0.86707172
1.1586179
1.1586139
1.1586044
1.1585866
1.1585567
1.1585109
1.1584449
1.1583543
1.1582348
1.1580813
1.1578865
1.1576165
1.1570688
1.1546763
1.144839
1.1214713
1.0862269
1.0448412
1.0045417
0.9690796
0.94039182
0.91948727
0.90334438
0.89031634
0.87920434
0.86973975
0.86217917
0.85566143
0.84922925
0.83915971
1.0718742
1.0024493
0.94694813
0.90089397
0.86140302
0.82677314
0.79605955
0.76893205
0.74537867
0.72496426
0.70745639
0.69280765
0.68133441
0.68063827
0.68307739
0.68875255
0.69699263
0.70655949
0.71615426
0.72479898
0.73194957
0.73740617
0.74118331
0.74338818
0.7441279
0.74343979
0.74121817
0.73712513
0.73036475
0.71967228
1.1566049
1.1528205
1.1476808
1.1414444
1.1343029
1.1264096
1.1179013
1.1081848
1.0950498
1.0778879
1.0544425
1.0242563
0.98785779
0.95108274
0.91758593
0.88985094
0.86836806
0.85261777
0.84186386
0.8353624
0.83212209
0.83094735
0.83071038
0.83046501
0.82941364
0.82679017
0.82171679
0.81297759
0.79847023
0.7768344
1.1585751
1.1584483
1.158213
1.1578465
1.1573296
1.1566462
1.1557836
1.1547144
1.1533562
1.151614
1.1492088
1.1414261
1.1217682
1.0893905
1.0489253
1.0059812
0.96617048
0.93201708
0.90430947
0.88298137
0.86740743
0.85654398
0.84917792
0.8441369
0.84038177
0.83699674
0.83311364
0.82773425
0.81921112
0.80536586
1.1586179
1.1586137
1.1586036
1.1585838
1.1585495
1.1584951
1.1584136
1.1582967
1.158132
1.1579009
1.1575586
1.1568189
1.1545324
1.1416424
1.1092077
1.0660976
1.0238039
0.98563555
0.95257535
0.92501578
0.90295176
0.88592876
0.87312142
0.86356372
0.85633145
0.85060521
0.8456477
0.8406811
0.83456392
0.82561784
)
;

boundaryField
{
    maxY
    {
        type            calculated;
        value           nonuniform List<scalar> 
300
(
1.1586174
1.1586174
1.1586174
1.1586174
1.1586174
1.1586174
1.1586174
1.1586174
1.1586174
1.1586174
1.1586132
1.1586134
1.1586133
1.1586133
1.1586133
1.1586133
1.1586133
1.1586133
1.1586133
1.1586132
1.1586031
1.1586039
1.1586038
1.1586038
1.1586037
1.1586037
1.1586038
1.1586038
1.1586039
1.1586031
1.1585833
1.158586
1.1585859
1.1585856
1.1585855
1.1585855
1.1585857
1.1585859
1.158586
1.1585833
1.1585489
1.158556
1.1585559
1.1585553
1.158555
1.1585551
1.1585554
1.158556
1.1585562
1.158549
1.1584941
1.1585099
1.1585099
1.1585087
1.1585081
1.1585082
1.1585089
1.1585102
1.1585103
1.1584946
1.1584119
1.1584433
1.1584439
1.1584414
1.1584401
1.1584403
1.1584419
1.1584446
1.1584444
1.1584131
1.1582936
1.1583515
1.1583534
1.1583485
1.1583458
1.1583464
1.1583496
1.158355
1.1583538
1.1582962
1.1581266
1.1582297
1.1582342
1.1582248
1.1582198
1.1582212
1.1582272
1.1582374
1.1582342
1.1581315
1.1578914
1.1580727
1.158082
1.1580649
1.1580552
1.1580586
1.1580697
1.158088
1.1580807
1.1579004
1.1575421
1.1578721
1.1578928
1.15786
1.1578353
1.1578479
1.1578703
1.1579032
1.157886
1.1575581
1.1567986
1.1575932
1.1576456
1.1575357
1.1573226
1.1574932
1.1575907
1.1576704
1.1576159
1.1568184
1.1544166
1.1570072
1.1569918
1.1556958
1.1515876
1.1554199
1.1566685
1.1572234
1.1570682
1.1545319
1.1415823
1.1542378
1.151034
1.1325369
1.0657543
1.1319567
1.1480859
1.1545204
1.1546757
1.1416419
1.1079502
1.1417777
1.1178612
1.0484968
0.98485389
1.011875
1.0924843
1.1359167
1.1448385
1.1092072
1.0641757
1.1145013
1.0685022
0.99619192
0.97083786
0.98474553
1.0304505
1.0982584
1.1214708
1.0660971
1.0219027
1.0792814
1.0378751
0.99079883
0.96517831
0.97686562
1.0065745
1.0679185
1.0862265
1.0238035
0.98364369
1.0381563
1.0353189
0.99104533
0.95953899
0.97146604
1.0068257
1.0550376
1.0448407
0.98563517
0.95053042
0.99864004
1.0131531
0.99113078
0.95175095
0.96639478
1.0071522
1.0284582
1.0045413
0.95257499
0.92320583
0.96466534
0.98453158
0.97733274
0.94431739
0.95894775
0.9882644
0.99466806
0.96907924
0.92501544
0.90168364
0.93760304
0.95854326
0.95968784
0.93554156
0.94680565
0.96473386
0.9637843
0.94039147
0.90295144
0.88535452
0.91768969
0.93772574
0.94280262
0.92530757
0.93316105
0.94326861
0.93961625
0.91948694
0.88592845
0.87322636
0.90219562
0.92097124
0.92603073
0.91476122
0.92005449
0.92467148
0.92078986
0.90334406
0.87312112
0.86422892
0.88963718
0.90718168
0.91335714
0.90480665
0.908422
0.90790897
0.9055726
0.89031603
0.86356343
0.85739724
0.87924522
0.8955633
0.90206195
0.8953278
0.89879269
0.8912939
0.8926442
0.87920403
0.85633116
0.85191895
0.87095641
0.88579403
0.89131195
0.88576874
0.89128701
0.87417605
0.88140012
0.86973945
0.85060493
0.8470747
0.86404494
0.87739069
0.87754379
0.87593301
0.8771801
0.85662059
0.87180778
0.86217888
0.84564742
0.84207248
0.85786175
0.86974329
0.85801317
0.85784636
0.84881813
0.83912054
0.86288068
0.85566114
0.84068083
0.83563862
0.85161807
0.85851569
0.83346916
0.82754966
0.80854296
0.81573725
0.84398825
0.84922897
0.83456365
0.8257462
0.84471003
0.84251617
0.81181355
0.79078042
0.77493233
0.79407783
0.82071203
0.83915943
0.82561758
)
;
    }
    minX
    {
        type            calculated;
        value           nonuniform List<scalar> 
40
(
1.1586221
1.1586211
1.15862
1.158619
1.1586221
1.1586211
1.15862
1.158619
1.1586221
1.1586211
1.15862
1.158619
1.1586221
1.1586211
1.15862
1.158619
1.1586221
1.1586211
1.15862
1.158619
1.1586221
1.1586211
1.15862
1.158619
1.1586221
1.1586211
1.15862
1.158619
1.1586221
1.1586211
1.15862
1.158619
1.1586221
1.1586211
1.15862
1.158619
1.1586221
1.1586211
1.15862
1.158619
)
;
    }
    maxX
    {
        type            calculated;
        value           nonuniform List<scalar> 
40
(
0.71605237
0.77425091
0.80404219
0.82572348
0.7665417
0.92381716
0.87379752
0.84470693
0.78557218
0.89586198
0.86739894
0.84312321
0.69618728
0.82472546
0.83463903
0.81267921
0.64279261
0.73231817
0.78559629
0.79056511
0.64372572
0.70213578
0.74998934
1.1586179
0.70123664
0.83002982
0.81546468
0.79029574
0.80342728
0.8852243
0.84127109
1.1586179
0.77456602
0.92378679
0.86705401
0.83858891
0.71957734
0.77671586
0.80524599
0.8255352
)
;
    }
    minZ
    {
        type            calculated;
        value           nonuniform List<scalar> 
120
(
1.0719566
1.156607
1.1585752
1.1586179
1.0025856
1.1528261
1.1584484
1.1586137
0.94712016
1.1476899
1.1582132
1.1586036
0.90109072
1.1414559
1.1578466
1.1585838
0.8616156
1.1343142
1.157329
1.1585494
0.82698694
1.1264158
1.1566438
1.1584946
0.79623607
1.1178989
1.1557779
1.1584124
0.76901046
1.1083381
1.1547079
1.1582941
0.74535245
1.0954097
1.1533525
1.1581271
0.72483573
1.0785952
1.151621
1.1578919
0.70724548
1.0557152
1.1492609
1.1575426
0.69255923
1.0257324
1.1423094
1.1567991
0.68113702
0.98934768
1.1236288
1.1544172
0.68061948
0.95239945
1.0914211
1.1415829
0.68340958
0.91859636
1.0507715
1.1079507
0.68952497
0.89039492
1.0072623
1.0641761
0.69815632
0.86834635
0.96676919
1.0219032
0.70799871
0.85218018
0.93194982
0.98364407
0.71777774
0.84138842
0.90384371
0.95053077
0.72656683
0.83522894
0.88250921
0.92320617
0.73383796
0.83255074
0.86726181
0.90168396
0.73935141
0.83193285
0.85688803
0.88535482
0.74303992
0.83205481
0.84999522
0.87322666
0.74493026
0.83188406
0.84528791
0.86422921
0.74510194
0.8306659
0.84168741
0.85739753
0.74363279
0.82776029
0.838306
0.85191924
0.7404994
0.82236691
0.83431357
0.84707498
0.7354179
0.81314715
0.8286559
0.84207275
0.72759064
0.79767994
0.81944508
0.83563889
0.71610327
0.774352
0.80411063
0.82574647
)
;
    }
    maxZ
    {
        type            calculated;
        value           nonuniform List<scalar> 
120
(
1.0718742
1.1566049
1.1585751
1.1586179
1.0024493
1.1528205
1.1584483
1.1586137
0.94694813
1.1476808
1.158213
1.1586036
0.90089397
1.1414444
1.1578465
1.1585838
0.86140302
1.1343029
1.1573296
1.1585495
0.82677314
1.1264096
1.1566462
1.1584951
0.79605955
1.1179013
1.1557836
1.1584136
0.76893205
1.1081848
1.1547144
1.1582967
0.74537867
1.0950498
1.1533562
1.158132
0.72496426
1.0778879
1.151614
1.1579009
0.70745639
1.0544425
1.1492088
1.1575586
0.69280765
1.0242563
1.1414261
1.1568189
0.68133441
0.98785779
1.1217682
1.1545324
0.68063827
0.95108274
1.0893905
1.1416424
0.68307739
0.91758593
1.0489253
1.1092077
0.68875255
0.88985094
1.0059812
1.0660976
0.69699263
0.86836806
0.96617048
1.0238039
0.70655949
0.85261777
0.93201708
0.98563555
0.71615426
0.84186386
0.90430947
0.95257535
0.72479898
0.8353624
0.88298137
0.92501578
0.73194957
0.83212209
0.86740743
0.90295176
0.73740617
0.83094735
0.85654398
0.88592876
0.74118331
0.83071038
0.84917792
0.87312142
0.74338818
0.83046501
0.8441369
0.86356372
0.7441279
0.82941364
0.84038177
0.85633145
0.74343979
0.82679017
0.83699674
0.85060521
0.74121817
0.82171679
0.83311364
0.8456477
0.73712513
0.81297759
0.82773425
0.8406811
0.73036475
0.79847023
0.81921112
0.83456392
0.71967228
0.7768344
0.80536586
0.82561784
)
;
    }
    topAir_to_rightSolid
    {
        type            calculated;
        value           nonuniform List<scalar> 
130
(
0.46163515
0.45679678
0.45184358
0.44702637
0.44251622
0.43842745
0.43482681
0.43174191
0.4291851
0.42714771
0.42562732
0.42461822
0.42411453
0.4652738
0.45953697
0.45382474
0.44841983
0.44348018
0.43908557
0.43527041
0.4320391
0.42938532
0.42728657
0.42572633
0.42469303
0.42417806
0.47276294
0.46491256
0.45753771
0.45092459
0.44514998
0.44019069
0.4359963
0.43251951
0.42970381
0.42750093
0.42587223
0.4247982
0.4242629
0.4844157
0.47240646
0.46226789
0.45389945
0.44702269
0.44137415
0.43674822
0.43299728
0.43000625
0.42768993
0.42598886
0.42487383
0.42432053
0.4989369
0.47975666
0.46623519
0.45614923
0.44834753
0.44217638
0.43724409
0.43330459
0.43019423
0.42779882
0.42605697
0.4249197
0.4243569
0.49899109
0.47979781
0.46628146
0.45619823
0.44839316
0.44221631
0.43727706
0.43333298
0.43021434
0.42782112
0.4260805
0.4249432
0.42437963
0.48470825
0.47263935
0.46245733
0.45406304
0.44717201
0.44150951
0.43686719
0.43310188
0.43009428
0.42776937
0.42606767
0.42494995
0.42439397
0.47324541
0.46532267
0.45788822
0.45122935
0.44542077
0.44043843
0.43622332
0.43272228
0.42988328
0.42766197
0.42602161
0.42493787
0.42439667
0.46586751
0.46006059
0.45428486
0.4488225
0.44383866
0.43941324
0.43557126
0.43231351
0.42962924
0.42749929
0.42591568
0.42486594
0.42434056
0.46227053
0.4573706
0.45235386
0.44747738
0.4429227
0.43879975
0.43516556
0.43204487
0.42944842
0.42737579
0.42582556
0.42479697
0.42428227
)
;
    }
    topAir_to_heater
    {
        type            calculated;
        value           nonuniform List<scalar> 
40
(
0.47354993
0.47222203
0.46965344
0.4660351
0.47970518
0.47811712
0.47502795
0.47060905
0.49322172
0.49107589
0.48673358
0.48041347
0.51693381
0.5139535
0.50754046
0.49749715
0.55595586
0.55275425
0.5445338
0.52867675
0.55614057
0.55290899
0.54465879
0.52876697
0.5175227
0.514443
0.5079621
0.49785355
0.49404207
0.49179694
0.48735932
0.48096837
0.48061532
0.47896368
0.47577243
0.47127881
0.47445746
0.47308047
0.47043645
0.46673877
)
;
    }
    topAir_to_leftSolid
    {
        type            calculated;
        value           nonuniform List<scalar> 
130
(
0.38788641
0.3878997
0.38793238
0.38798521
0.38805861
0.38813079
0.38819913
0.38826421
0.38832671
0.3883888
0.38845602
0.38850662
0.38853564
0.38787972
0.38789412
0.38792992
0.38798904
0.38807309
0.38815533
0.38823423
0.38831037
0.38838306
0.38845495
0.38851536
0.38856109
0.38858783
0.38786563
0.38788156
0.38792101
0.38798659
0.38808001
0.38818192
0.38828096
0.3883782
0.38846861
0.38854804
0.38861241
0.38865887
0.38868485
0.38784251
0.38785984
0.38790143
0.38797335
0.3880748
0.388194
0.38831887
0.38844745
0.38856829
0.38867198
0.38875476
0.38881173
0.3888423
0.38780199
0.38782156
0.38786904
0.38794985
0.38805837
0.38818432
0.38832814
0.3884899
0.38865857
0.38880859
0.38893066
0.38901668
0.38906671
0.38775196
0.38777537
0.38783011
0.38791967
0.38803214
0.38816256
0.38831722
0.3884969
0.38869764
0.38887156
0.3890108
0.38910987
0.38917012
0.38771365
0.38773554
0.38779122
0.38788366
0.38799693
0.38812702
0.38828171
0.38846579
0.38866798
0.38884549
0.38898364
0.3890853
0.38914348
0.38767793
0.38769688
0.38774374
0.3878197
0.38792268
0.38804554
0.38818767
0.38835398
0.3885415
0.38872492
0.38886665
0.38897114
0.389035
0.38764376
0.38766097
0.38770226
0.38776855
0.38786031
0.387978
0.38811346
0.38826641
0.3884337
0.38859511
0.38873391
0.38883924
0.38889977
0.38762516
0.38764185
0.38767979
0.38774104
0.38782601
0.38793535
0.38807191
0.38821821
0.38836489
0.38850669
0.38863442
0.38873619
0.38879612
)
;
    }
}


// ************************************************************************* //
