/*--------------------------------*- C++ -*----------------------------------*\
| =========                 |                                                 |
| \\      /  F ield         | OpenFOAM: The Open Source CFD Toolbox           |
|  \\    /   O peration     | Version:  v2012                                 |
|   \\  /    A nd           | Website:  www.openfoam.com                      |
|    \\/     M anipulation  |                                                 |
\*---------------------------------------------------------------------------*/
FoamFile
{
    version     2.0;
    format      ascii;
    class       volScalarField;
    location    "450/topAir";
    object      T;
}
// * * * * * * * * * * * * * * * * * * * * * * * * * * * * * * * * * * * * * //

dimensions      [0 0 0 1 0 0 0];


internalField   nonuniform List<scalar> 
1200
(
324.25437
346.69022
366.99315
385.73985
403.4126
420.30481
436.53709
451.992
466.33853
479.53839
491.46521
501.8871
510.30339
510.69141
508.60644
504.0956
497.86343
490.94227
484.25365
478.39576
473.65563
470.12352
467.78978
466.60271
466.4952
467.41682
469.39467
472.63803
477.72257
485.38597
300.52242
301.50802
302.85734
304.51138
306.42861
308.57727
310.92822
313.61036
317.31169
322.25835
329.24249
338.86646
351.32876
364.95852
378.38848
390.37315
400.28529
407.87883
413.11034
416.15686
417.49557
417.80565
417.74441
417.83015
418.44289
419.91171
422.66565
427.45799
435.74651
448.87371
300.01161
300.04443
300.10537
300.20039
300.33465
300.51257
300.73771
301.01638
301.37013
301.82326
302.44307
304.28359
309.34237
318.47103
330.79123
345.07992
359.53358
372.96642
384.56426
393.86103
400.78554
405.63759
408.927
411.20427
412.96328
414.62902
416.61315
419.45759
424.17243
432.26144
300.00028
300.00136
300.00398
300.00911
300.01802
300.03221
300.0535
300.08413
300.12742
300.18838
300.27896
300.47195
301.09193
304.47697
313.71947
326.62423
340.13567
353.36534
365.67542
376.49851
385.48513
392.59487
398.04759
402.19165
405.39629
408.0032
410.3365
412.77406
415.95215
420.93525
324.24895
346.44304
366.27279
384.31537
401.01721
416.61423
431.17312
444.63053
456.78892
467.3196
475.74549
481.48256
483.77857
476.06639
465.54424
454.00903
443.66649
435.79099
430.48999
427.20663
425.29176
424.34938
424.22351
424.88968
426.34071
428.58007
431.72112
436.21045
443.23231
453.38167
300.52172
301.48889
302.78701
304.34634
306.11398
308.04547
310.09524
312.21029
314.32503
316.35364
318.17734
319.64352
320.56705
320.69957
320.30108
320.0844
320.78714
322.55048
325.0474
327.89805
330.92615
334.15569
337.65209
341.47282
345.6511
350.20935
355.15156
360.42574
366.10826
376.23849
300.01157
300.04352
300.10129
300.18902
300.3096
300.46482
300.65513
300.87924
301.13376
301.41153
301.69998
301.99858
302.30143
302.6496
303.70383
306.32775
311.34619
318.22935
325.6976
332.58798
338.63343
344.65117
350.69528
356.78835
362.83621
369.02202
375.49177
382.31664
389.64921
397.7866
300.00028
300.00132
300.00376
300.0084
300.01616
300.0281
300.04535
300.06913
300.10068
300.14139
300.19336
300.26571
300.41777
301.13859
304.42488
311.87539
322.05275
334.81044
348.05891
360.31726
370.71721
378.76157
385.26633
390.7049
395.32272
399.08498
402.27726
405.17675
408.14733
411.48517
324.2474
346.48326
366.37194
384.48872
401.28756
417.01411
431.77403
445.60023
458.42503
470.05682
480.13104
488.03815
492.65561
485.85167
475.76019
464.61574
454.12258
444.73246
436.46925
429.35595
423.46826
418.96477
416.03277
414.75116
415.02025
416.59966
419.28513
423.2106
429.64043
442.42354
300.52178
301.49217
302.79622
304.36326
306.1409
308.08691
310.16167
312.32258
314.51557
316.66207
318.64337
320.26682
321.24311
321.24557
320.86589
320.99318
321.78119
323.03954
324.76012
326.98563
329.81043
333.39055
337.84087
343.12506
349.06402
355.49243
362.43621
369.82326
377.8232
388.1028
300.01157
300.04366
300.10174
300.1899
300.31089
300.46645
300.65709
300.88187
301.1376
301.4171
301.70513
301.97295
302.18715
302.60445
304.8621
309.3031
313.95239
317.81691
321.78226
326.2487
331.62216
338.32296
346.33153
355.06823
363.7095
371.66144
379.13947
386.25175
393.00252
400.88313
300.00028
300.00133
300.00378
300.00844
300.01621
300.0281
300.0452
300.06864
300.09953
300.13896
300.18801
300.25211
300.42178
301.97677
310.93801
325.30165
334.90115
335.72799
343.07308
353.04664
362.61856
370.66871
377.412
383.14884
388.11954
392.40005
396.15833
399.64165
404.86814
412.55666
324.2494
346.50154
366.42804
384.61018
401.51964
417.43418
432.51075
446.83964
460.4519
473.29451
485.15972
495.52373
503.21534
499.67669
496.25287
494.99958
495.65762
496.93484
497.65042
497.03376
494.87871
491.58828
487.85311
484.19812
480.86956
478.15493
477.18631
480.55976
488.97637
499.39407
300.52187
301.49357
302.80171
304.37705
306.16956
308.14145
310.26054
312.49548
314.80802
317.13659
319.36571
321.26926
322.49685
323.00006
323.98546
325.5157
327.30766
329.16886
331.09108
333.20866
335.8268
339.26386
343.68659
349.02331
355.08351
361.84757
369.41736
377.69728
392.08084
421.68785
300.01158
300.04372
300.10204
300.19077
300.31292
300.47058
300.66497
300.89616
301.16235
301.45752
301.76557
302.04982
302.31508
303.74532
308.65826
312.84384
315.77151
318.13496
321.07385
325.47556
331.86965
340.45103
350.78338
361.50996
371.2277
379.71954
387.36616
394.42083
402.24673
416.67652
300.00028
300.00133
300.0038
300.00849
300.01634
300.02841
300.04585
300.06992
300.10195
300.1434
300.19651
300.28062
300.75868
306.90881
331.50847
348.91425
350.81345
350.7262
350.69597
355.64712
362.18609
368.6727
375.34996
380.55827
385.32344
389.97079
396.08921
405.10525
417.03481
428.15949
324.25252
346.51209
366.45075
384.64943
401.58135
417.52636
432.64123
447.01104
460.65439
473.48448
485.18944
495.02867
501.82446
497.64568
495.87761
497.14051
499.47429
502.9016
506.91417
511.1122
515.13427
518.67459
521.52961
523.60827
524.94376
525.7496
526.5804
528.46141
532.71225
540.87675
300.52195
301.49428
302.80416
304.38271
306.18035
308.15988
310.28974
312.53827
314.86428
317.19613
319.38395
321.13232
322.13107
323.30419
325.02464
327.06081
330.65652
335.82523
341.94125
348.58741
355.3388
362.2069
370.05768
379.16132
389.58186
401.24903
414.28972
429.48727
448.74586
475.343
300.01158
300.04375
300.10219
300.19118
300.31384
300.4724
300.6682
300.90146
301.17023
301.46721
301.77094
302.03721
302.48955
306.82893
310.80339
313.28858
314.8508
316.65355
318.92117
322.23156
327.95187
337.09658
349.15584
361.62651
371.49133
379.44481
388.04684
399.88998
417.30675
442.82556
300.00028
300.00133
300.00381
300.00852
300.01642
300.02858
300.0462
300.0706
300.10326
300.1459
300.20292
300.33591
301.8316
326.14041
352.9311
358.02638
360.12575
362.24225
365.20644
368.08131
371.5341
375.64331
379.97414
384.15457
388.22163
392.41125
396.81759
405.18401
420.01787
439.54764
324.25726
346.52081
366.46246
384.66318
401.59716
417.54479
432.66533
447.0507
460.7358
473.6744
485.65213
496.09812
503.74688
498.72082
495.04216
494.54301
496.84937
500.73889
505.19507
509.85553
514.38518
518.44431
521.71152
523.94371
525.07439
525.36239
525.52965
526.79922
530.87229
539.68811
300.52205
301.49456
302.80461
304.3833
306.18102
308.1606
310.29103
312.54219
314.87732
317.23628
319.49876
321.4212
322.63754
323.20244
324.49057
326.26077
328.28248
331.31703
335.57501
341.12902
348.65296
358.95387
371.85272
386.94275
403.36187
420.21646
437.0565
454.08087
472.30553
494.60596
300.01158
300.04376
300.1022
300.19119
300.31383
300.47232
300.66801
300.9012
301.1703
301.4694
301.78154
302.06749
302.34496
303.93618
308.90286
312.36737
314.40542
315.87954
317.78207
320.85099
326.00529
333.44236
342.93238
353.23031
364.41161
378.10213
394.11187
412.71566
434.9157
463.06919
300.00028
300.00133
300.00381
300.00852
300.01641
300.02856
300.04614
300.07045
300.10289
300.14504
300.19966
300.29163
300.83049
307.06612
343.50642
352.96993
355.81717
357.79487
359.67244
362.4656
367.11397
372.48189
377.78805
382.6257
386.725
389.98169
396.25342
409.49362
429.89131
448.53652
324.26171
346.52454
366.45948
384.64777
401.56242
417.48285
432.56641
446.90675
460.54762
473.47256
485.55131
496.40677
505.02753
502.42058
498.97173
497.06065
497.07887
498.12815
499.07103
499.15159
497.95477
495.36966
491.50738
486.62187
481.26568
476.53272
474.16789
476.26044
483.81646
495.31941
300.52214
301.49428
302.80287
304.37849
306.17108
308.14298
310.26237
312.49881
314.81736
317.16662
319.45267
321.49113
322.96111
323.54641
324.17968
325.37917
326.93452
328.61828
330.37043
332.28591
334.58816
337.54155
341.28856
345.83826
351.24209
357.63979
365.06133
373.6352
388.32521
419.07279
300.01158
300.04374
300.10207
300.19078
300.31286
300.47036
300.66447
300.89523
301.16109
301.45705
301.77013
302.07013
302.32498
302.93771
306.2109
310.55303
313.77768
316.22169
318.86484
322.32528
327.12439
333.66357
341.95232
351.80578
363.28938
375.93601
387.75052
397.78086
408.89954
426.33827
300.00028
300.00133
300.0038
300.00849
300.01633
300.02836
300.04572
300.06962
300.10133
300.14216
300.19385
300.26636
300.50575
302.75221
318.16068
337.31417
345.31527
345.22914
345.11721
351.71313
360.29167
368.49057
375.90171
382.8419
389.97866
397.61511
405.76378
414.22607
426.09996
437.7224
324.26524
346.51665
366.4182
384.54541
401.35231
417.08389
431.8538
445.68556
458.51772
470.18727
480.39436
488.64243
493.98375
488.33325
479.29187
468.36597
457.29137
446.99722
437.9344
430.24909
423.87145
418.71977
414.83342
412.34692
411.36014
411.8706
413.8114
417.17805
422.80035
432.58028
300.52217
301.49321
302.79791
304.36538
306.14301
308.08843
310.16236
312.32306
314.51879
316.68072
318.70389
320.42461
321.59188
321.83581
321.43684
321.17348
321.45289
322.2701
323.6487
325.57089
328.01817
331.08115
334.94137
339.78598
345.7291
352.8423
361.14654
370.44297
380.55988
392.52281
300.01158
300.04369
300.10179
300.18992
300.3108
300.46608
300.65622
300.88028
301.13526
301.41457
301.70534
301.98325
302.21322
302.47407
303.72987
306.87079
310.8852
314.73734
318.82531
323.21836
327.98241
333.58837
340.52874
349.07091
358.94775
369.50127
379.8212
389.31509
399.78492
412.60132
300.00028
300.00133
300.00378
300.00843
300.01618
300.02802
300.04501
300.06822
300.0987
300.13741
300.1853
300.24567
300.36166
301.06486
305.99563
316.48793
325.47947
329.45324
337.96761
349.4488
360.64664
369.92291
377.48633
383.82962
389.38874
394.3562
398.69523
402.82
411.83697
423.51691
324.27152
346.48616
366.33418
384.39376
401.11277
416.72314
431.2806
444.72848
456.8715
467.38932
475.83981
481.71113
484.35486
477.27609
467.51125
456.4822
446.20697
438.1224
432.58463
429.17221
427.22253
426.22765
425.8841
426.06185
426.75218
428.03612
430.11546
433.38662
438.83436
448.69951
300.52222
301.49024
302.78926
304.34923
306.117
308.0477
310.09504
312.20662
314.3195
316.35081
318.19098
319.70222
320.72145
321.00141
320.70148
320.3961
320.84252
322.3132
324.57334
327.24119
330.09209
333.10914
336.3509
339.93707
344.02425
348.75242
354.19081
360.30967
367.26526
376.24393
300.01158
300.04355
300.10134
300.18904
300.30946
300.46428
300.65379
300.87659
301.12929
301.40516
301.69261
301.99728
302.31765
302.65331
303.48679
305.61085
310.10114
316.68574
324.25288
331.61098
338.28261
345.0451
351.80168
358.34296
364.54556
370.68745
377.38132
384.6012
392.35566
400.87338
300.00028
300.00132
300.00376
300.00839
300.01613
300.02799
300.04508
300.06853
300.09952
300.13929
300.18978
300.2598
300.40193
301.02436
303.61098
309.9372
319.99361
332.66845
346.0142
358.6761
369.61796
378.02123
384.77653
390.40699
395.34123
399.64337
403.14791
406.21876
409.29552
414.20689
324.2793
346.73735
367.05982
385.8241
403.51216
420.41349
436.63389
452.03808
466.32213
479.45337
491.3187
501.70713
510.15555
510.67731
508.85378
504.66094
498.69465
491.94229
485.35142
479.5626
474.87763
471.36367
468.96155
467.57062
467.10581
467.53815
468.93948
471.54336
475.90805
482.97883
300.52297
301.50948
302.85976
304.51446
306.43165
308.57899
310.92757
313.65374
317.416
322.46981
329.6399
339.35481
351.85864
365.46377
378.80515
390.61179
400.27527
407.6695
412.87703
416.09037
417.71063
418.30116
418.42048
418.54411
419.07465
420.40441
423.00003
427.54712
435.31521
447.43931
300.01162
300.04447
300.10542
300.20042
300.3345
300.51195
300.73623
301.01469
301.36919
301.8251
302.45679
304.51906
309.85545
319.06464
331.37344
345.51936
359.75637
372.9395
384.36619
393.65041
400.71824
405.80051
409.32056
411.76495
413.60486
415.27759
417.21318
419.92462
424.29355
431.58772
300.00028
300.00136
300.00398
300.00911
300.01798
300.03208
300.05318
300.08346
300.12613
300.18604
300.2748
300.46681
301.06187
304.46109
313.36394
326.03554
339.5042
352.65136
364.89054
375.76196
384.94387
392.34052
398.09556
402.50158
405.90096
408.63347
411.02904
413.45734
416.4879
421.00081
)
;

boundaryField
{
    maxY
    {
        type            zeroGradient;
    }
    minX
    {
        type            fixedValue;
        value           uniform 300;
    }
    maxX
    {
        type            inletOutlet;
        inletValue      uniform 300;
        value           nonuniform List<scalar> 
40
(
485.4205
448.93233
432.29824
420.94695
453.44758
376.24996
397.78776
411.48681
442.46281
387.99077
400.72215
412.25975
499.27156
421.4569
416.45069
427.70357
540.74444
474.63836
442.44868
439.66755
539.96061
495.04145
463.45469
300
495.67648
418.76354
426.24288
439.81741
432.62965
392.65324
413.16764
300
448.74997
376.26232
400.88156
414.48886
483.04259
447.50762
431.65198
421.04295
)
;
    }
    minZ
    {
        type            zeroGradient;
    }
    maxZ
    {
        type            zeroGradient;
    }
    topAir_to_rightSolid
    {
        type            compressible::turbulentTemperatureCoupledBaffleMixed;
        refValue        nonuniform List<scalar> 
130
(
753.03075
761.01065
769.35659
777.65043
785.57897
792.90744
799.47484
805.18836
809.98575
813.84926
816.75592
818.69566
819.6657
747.15829
756.48921
766.01382
775.24904
783.88586
791.73283
798.67336
804.64733
809.62051
813.59686
816.57765
818.5625
819.55318
735.31733
747.73875
759.79575
770.9426
780.94668
789.74746
797.3467
803.7571
809.0242
813.19286
816.30205
818.36419
819.39279
717.6088
735.85525
751.99791
765.86595
777.65113
787.60641
795.95136
802.8489
808.43527
812.8148
816.06006
818.19942
819.26323
696.71673
724.57599
745.59308
762.08128
775.34399
786.16633
795.0358
802.26516
808.06659
812.59192
815.91416
818.09701
819.17967
696.64173
724.51436
745.51944
761.99961
775.26511
786.09521
794.97568
802.21247
808.02885
812.5498
815.86951
818.05223
819.13604
717.17516
735.49209
751.68906
765.58891
777.39009
787.36362
795.73369
802.65471
808.27016
812.66467
815.91039
818.05432
819.12256
734.56677
747.0791
759.21373
770.42166
780.47189
789.30353
796.93245
803.38159
808.68791
812.88835
816.01771
818.09736
819.13763
746.20518
755.62738
765.23719
774.55275
783.25202
791.14179
798.12123
804.13637
809.16094
813.19247
816.21548
818.23073
819.24077
751.9952
760.05531
768.48815
776.86608
784.85748
792.23417
798.85204
804.62343
809.48894
813.41497
816.37593
818.35165
819.34234
)
;
        refGradient     uniform 0;
        valueFraction   uniform 0.99967867;
        value           nonuniform List<scalar> 
130
(
752.94654
760.92172
769.26309
777.55275
785.47761
792.80297
799.36788
805.07953
809.87568
813.73859
816.64535
818.58611
819.55829
747.05824
756.38447
765.90496
775.13659
783.77034
791.61475
798.55326
804.52579
809.49809
813.47418
816.45545
818.44192
819.43554
735.22394
747.63871
759.68956
770.83094
780.83036
789.62737
797.22377
803.6322
808.89812
813.0663
816.17576
818.2393
819.27167
717.53787
735.77868
751.91595
765.77884
777.55917
787.51006
795.85116
802.74541
808.32912
812.70692
815.95223
818.0936
819.1604
696.65444
724.50604
745.51772
762.00192
775.2615
786.08128
794.94857
802.17603
807.97585
812.5
815.82177
818.00528
819.0902
696.57879
724.44391
745.44373
761.92007
775.18261
786.01029
794.88863
802.12346
807.93807
812.45764
815.7767
817.96004
819.04633
717.10479
735.41614
751.60794
765.50295
777.29952
787.26861
795.63443
802.55152
808.16365
812.55597
815.8013
817.94705
819.01863
734.47437
746.97977
759.10803
770.31031
780.35565
789.1832
796.80887
803.25562
808.5604
812.76011
815.88955
817.97034
819.01343
746.10618
755.52357
765.1292
774.44114
783.13729
791.02442
798.00167
804.01511
809.03847
813.06937
816.09246
818.10883
819.12173
751.91164
759.96704
768.39531
776.76905
784.75675
792.1303
798.74559
804.51498
809.37907
813.30429
816.26514
818.24162
819.23428
)
;
        Tnbr            T;
        thicknessLayers List<scalar> 0();
        kappaLayers     List<scalar> 0();
        kappaMethod     fluidThermo;
        kappa           none;
        alphaAni        none;
        alpha           none;
        field           T;
    }
    topAir_to_heater
    {
        type            compressible::turbulentTemperatureCoupledBaffleMixed;
        refValue        nonuniform List<scalar> 
40
(
734.07383
736.13916
740.16753
745.91751
724.66376
727.07461
731.80754
738.68372
704.7973
707.88094
714.20112
723.60219
672.45617
676.35764
684.90619
698.73584
625.24645
628.86944
638.36503
657.51609
625.0384
628.69366
638.21932
657.40469
671.68993
675.71305
684.33686
698.23504
703.62594
706.84173
713.28274
722.76616
723.29079
725.78862
730.6614
737.63291
732.6694
734.80301
738.93511
744.79243
)
;
        refGradient     uniform 0;
        valueFraction   uniform 0.99967867;
        value           nonuniform List<scalar> 
40
(
734.00205
736.06605
740.09167
745.8378
724.58388
726.99057
731.71828
738.58893
704.72695
707.80636
714.12092
723.51559
672.40066
676.29977
684.84515
698.67056
625.20545
628.8267
638.31964
657.4653
624.9978
628.65071
638.17316
657.35312
671.63553
675.65626
684.27668
698.17041
703.55676
706.76861
713.20404
722.68085
723.21174
725.70563
730.57329
737.53926
732.59806
734.73041
738.85983
744.71335
)
;
        Tnbr            T;
        thicknessLayers List<scalar> 0();
        kappaLayers     List<scalar> 0();
        kappaMethod     fluidThermo;
        kappa           none;
        alphaAni        none;
        alpha           none;
        field           T;
    }
    topAir_to_leftSolid
    {
        type            compressible::turbulentTemperatureCoupledBaffleMixed;
        refValue        nonuniform List<scalar> 
130
(
896.28835
896.25037
896.1683
896.0402
895.86497
895.69288
895.52994
895.37481
895.22605
895.07864
894.91987
894.79991
894.73033
896.30381
896.26335
896.17421
896.03181
895.83232
895.63744
895.45068
895.27073
895.09922
894.93013
894.78822
894.68104
894.61871
896.33638
896.29236
896.19476
896.03741
895.81625
895.57596
895.34272
895.11405
894.90154
894.71481
894.56333
894.45381
894.3925
896.3898
896.34255
896.23999
896.06796
895.8282
895.54795
895.25505
894.95404
894.67127
894.42841
894.23407
894.09967
894.02687
896.48347
896.43103
896.31483
896.12223
895.86611
895.57025
895.23363
894.85617
894.46335
894.11402
893.82956
893.6287
893.51156
896.59914
896.53782
896.40481
896.19195
895.92667
895.62047
895.25882
894.84005
894.3734
893.96916
893.64525
893.41431
893.2735
896.68777
896.62992
896.49472
896.27517
896.008
895.7025
895.34074
894.91175
894.44172
894.02917
893.70769
893.47063
893.33425
896.77039
896.71936
896.60452
896.42302
896.17959
895.89073
895.55789
895.16984
894.73358
894.30756
893.97826
893.73541
893.58694
896.84944
896.80243
896.70049
896.54135
896.3238
896.04682
895.72934
895.37209
894.98247
894.60726
894.28506
894.04085
893.90082
896.89249
896.84659
896.75223
896.6045
896.40231
896.14415
895.82353
895.48091
895.13803
894.807
894.50901
894.27143
894.13081
)
;
        refGradient     uniform 0;
        valueFraction   uniform 0.99967867;
        value           nonuniform List<scalar> 
130
(
896.10454
896.07378
895.99826
895.87623
895.70673
895.54013
895.38246
895.23234
895.08823
894.94511
894.79023
894.67366
894.6068
896.11999
896.08668
896.00394
895.86739
895.67332
895.48352
895.3015
895.12593
894.95838
894.79272
894.65357
894.54827
894.4867
896.15255
896.11569
896.02452
895.87303
895.65735
895.42219
895.19376
894.96961
894.76129
894.57836
894.43016
894.32322
894.26342
896.20596
896.16587
896.06975
895.90361
895.66937
895.39432
895.10636
894.81004
894.53174
894.29309
894.10263
893.9716
893.9013
896.2996
896.25433
896.14457
895.95788
895.70729
895.41664
895.08498
894.71227
894.32396
893.97886
893.69825
893.50063
893.3857
896.41524
896.36108
896.23453
896.02758
895.76783
895.46685
895.11017
894.69616
894.23406
893.8341
893.51415
893.28664
893.14833
896.50383
896.45316
896.3244
896.11077
895.84913
895.54884
895.19203
894.7678
894.3023
893.89403
893.57654
893.34304
893.20947
896.58643
896.54257
896.43416
896.25854
896.02059
895.73688
895.40889
895.02541
894.59341
894.17128
893.84537
893.60524
893.45853
896.66546
896.6256
896.53007
896.37678
896.16468
895.8928
895.5801
895.22728
894.84169
894.46998
894.1506
893.90836
893.76922
896.70849
896.66982
896.58203
896.44037
896.24393
895.99129
895.67598
895.33842
895.00024
894.67354
894.37946
894.14529
894.00743
)
;
        Tnbr            T;
        thicknessLayers List<scalar> 0();
        kappaLayers     List<scalar> 0();
        kappaMethod     fluidThermo;
        kappa           none;
        alphaAni        none;
        alpha           none;
        field           T;
    }
}


// ************************************************************************* //
