/*--------------------------------*- C++ -*----------------------------------*\
| =========                 |                                                 |
| \\      /  F ield         | OpenFOAM: The Open Source CFD Toolbox           |
|  \\    /   O peration     | Version:  v2012                                 |
|   \\  /    A nd           | Website:  www.openfoam.com                      |
|    \\/     M anipulation  |                                                 |
\*---------------------------------------------------------------------------*/
FoamFile
{
    version     2.0;
    format      ascii;
    class       volVectorField;
    location    "450/topAir";
    object      U;
}
// * * * * * * * * * * * * * * * * * * * * * * * * * * * * * * * * * * * * * //

dimensions      [0 1 -1 0 0 0 0];


internalField   nonuniform List<vector> 
1200
(
(0.1043953 -0.0024108445 0.00088409709)
(0.11773881 -0.0025074909 0.001329226)
(0.1291932 -0.0023088157 0.0014172247)
(0.13811045 -0.0017760695 0.0012893088)
(0.14587992 -0.00097103266 0.00096002387)
(0.15312696 -6.1974584e-05 0.00038809307)
(0.16008888 0.00085656259 -0.00045901613)
(0.16703982 0.0017116774 -0.0017116505)
(0.17416564 0.0025895694 -0.0036334857)
(0.18177208 0.0036624001 -0.0065339144)
(0.19006162 0.0052427936 -0.010812378)
(0.19876503 0.0077153507 -0.016892997)
(0.20647726 0.01149629 -0.025057293)
(0.21167915 0.016072773 -0.035175129)
(0.21430439 0.021246606 -0.046476623)
(0.21483991 0.026287039 -0.057746652)
(0.21348704 0.030588059 -0.067783269)
(0.21045231 0.033836537 -0.075853987)
(0.20626089 0.035904058 -0.081760548)
(0.20175932 0.036795106 -0.085651105)
(0.19783849 0.036675105 -0.087815336)
(0.19510079 0.035845323 -0.088555426)
(0.193713 0.034609564 -0.088137597)
(0.19348664 0.033206793 -0.086785148)
(0.19402176 0.031816618 -0.084663046)
(0.19474162 0.030646283 -0.08180929)
(0.19467663 0.030096489 -0.07802474)
(0.19192432 0.031058837 -0.072754181)
(0.18311414 0.035603389 -0.064998123)
(0.13851031 0.04994372 -0.052470048)
(0.098689546 -0.0038206513 0.00085798805)
(0.098435948 -0.0046448272 0.0012984795)
(0.098791651 -0.0047133326 0.001488828)
(0.099576162 -0.0042678911 0.001581474)
(0.10087781 -0.0034961097 0.0016039184)
(0.10272801 -0.002640834 0.0015416835)
(0.10510523 -0.0018572885 0.0013707261)
(0.10812701 -0.0012420893 0.0010377096)
(0.11229109 -0.00048436036 0.00042233156)
(0.11808718 0.00076449555 -0.00064285372)
(0.12643431 0.0032840028 -0.0024625137)
(0.13781532 0.0081463853 -0.0054276527)
(0.15197265 0.016263422 -0.010041599)
(0.16716244 0.026739345 -0.016454202)
(0.18129573 0.03884839 -0.024212032)
(0.19262172 0.051195102 -0.032332289)
(0.20001594 0.062687259 -0.039866907)
(0.20319924 0.0724379 -0.046336911)
(0.20284271 0.079687933 -0.051603174)
(0.20031968 0.084042511 -0.055650313)
(0.19713105 0.085709791 -0.058486516)
(0.19431709 0.085403117 -0.060110232)
(0.19228669 0.083882673 -0.060580994)
(0.19103097 0.081731908 -0.060020194)
(0.19034677 0.07930824 -0.058534456)
(0.18990634 0.076936277 -0.0560624)
(0.18907762 0.075330747 -0.052187466)
(0.18654797 0.076142529 -0.045878059)
(0.18095652 0.082849428 -0.034950772)
(0.14995468 0.10036221 -0.014591422)
(0.098821619 -0.0028875345 0.00088475569)
(0.097974244 -0.004184165 0.0013461014)
(0.096328039 -0.0045930536 0.0015572797)
(0.094243659 -0.0046853347 0.0016887009)
(0.09218457 -0.0046493483 0.0017925149)
(0.090331945 -0.0045696748 0.0018801717)
(0.088676996 -0.0045452475 0.0019673869)
(0.087148715 -0.0046515208 0.0020905607)
(0.085783712 -0.0047170843 0.002315998)
(0.084869147 -0.0046569781 0.0026866177)
(0.084935746 -0.0042453122 0.0031279756)
(0.087858189 -0.0021276383 0.0032665881)
(0.097045301 0.0047203008 0.0024222293)
(0.11242904 0.017737395 0.0002951033)
(0.13070834 0.034909729 -0.0028070274)
(0.14855683 0.053411082 -0.0059390178)
(0.16309944 0.070177894 -0.0085245556)
(0.17309587 0.084039918 -0.010520015)
(0.17885646 0.094480966 -0.012197107)
(0.18170823 0.10134003 -0.01379894)
(0.18314388 0.10480498 -0.015362025)
(0.18406452 0.1053791 -0.016666504)
(0.18468574 0.10377405 -0.017390601)
(0.18488301 0.10067793 -0.017409954)
(0.18442558 0.096630978 -0.016798731)
(0.18316926 0.092100454 -0.015417626)
(0.18097325 0.087826941 -0.012849812)
(0.17744639 0.085483033 -0.00831237)
(0.17297748 0.088906674 -0.00045404988)
(0.15073946 0.10463918 0.013836294)
(0.096861753 -0.0015491051 0.00085016327)
(0.094641965 -0.0022873506 0.0012729965)
(0.090913552 -0.0025134097 0.0014449377)
(0.086334055 -0.0025470282 0.0015349813)
(0.08171858 -0.0024889411 0.0015988632)
(0.077310244 -0.0023694227 0.0016518206)
(0.073071922 -0.0022279441 0.0017156376)
(0.068907088 -0.0021067553 0.0018323721)
(0.064688281 -0.0020402558 0.0020746672)
(0.060204492 -0.0021898036 0.0025579303)
(0.055055862 -0.0030348502 0.0034647547)
(0.048798227 -0.004748009 0.0052024658)
(0.040729851 -0.0055365623 0.0084341712)
(0.035628212 0.000724737 0.013130649)
(0.042132861 0.016425911 0.01854022)
(0.057321942 0.034065159 0.024443746)
(0.073814376 0.048884632 0.030221374)
(0.088536442 0.060760809 0.035491176)
(0.10114593 0.069849498 0.039804408)
(0.11227934 0.076159367 0.04277006)
(0.12241268 0.079715553 0.044568418)
(0.13152126 0.080641004 0.045500541)
(0.13927291 0.079367791 0.045780904)
(0.14524453 0.076440845 0.045644408)
(0.14914936 0.072403333 0.045300187)
(0.15099045 0.067791142 0.044992106)
(0.1511148 0.063269544 0.045012164)
(0.15046725 0.060123437 0.04559678)
(0.15311093 0.061371045 0.046692121)
(0.16771239 0.073258723 0.047827609)
(0.10565714 -0.0024111854 0.0010361053)
(0.11985585 -0.002517012 0.0014626874)
(0.13256143 -0.002405795 0.0014903484)
(0.14281908 -0.0020553324 0.0012910173)
(0.15173729 -0.0015341959 0.00088534471)
(0.159874 -0.001016589 0.00023215227)
(0.16727431 -0.00063841968 -0.0007231837)
(0.17385489 -0.00047894604 -0.0021386325)
(0.17957373 -0.00059962591 -0.0042690009)
(0.18441524 -0.001073002 -0.007395587)
(0.1883229 -0.0020276675 -0.011859964)
(0.19120839 -0.0036059629 -0.017957373)
(0.19255093 -0.0059395303 -0.025713097)
(0.19213209 -0.0096697577 -0.034505184)
(0.19151972 -0.014090435 -0.043119994)
(0.19196274 -0.01829478 -0.050407134)
(0.19324566 -0.021271418 -0.056002531)
(0.1943609 -0.022701124 -0.060200762)
(0.19459088 -0.023033925 -0.063333694)
(0.19394982 -0.022977955 -0.065529128)
(0.19298559 -0.02298758 -0.066823479)
(0.19230541 -0.023081873 -0.067248752)
(0.19222502 -0.02313977 -0.066849749)
(0.19275606 -0.023074918 -0.065708664)
(0.19380011 -0.022862938 -0.063916443)
(0.19532605 -0.022394156 -0.06148653)
(0.19732353 -0.021220975 -0.058203524)
(0.19956711 -0.0180191 -0.053580761)
(0.20129465 -0.0090910137 -0.04713149)
(0.18777902 0.015806221 -0.038166305)
(0.099980006 -0.0038312844 0.0010907376)
(0.10066835 -0.0046902352 0.0016680172)
(0.10240896 -0.0048941608 0.0018983979)
(0.10475242 -0.0047018704 0.00197878)
(0.10752413 -0.0043052571 0.0019520819)
(0.110666 -0.0039477781 0.0017968802)
(0.11409004 -0.0038127388 0.0014708677)
(0.11771858 -0.0040232375 0.00089806135)
(0.12154968 -0.0046987149 -4.3756785e-05)
(0.12554654 -0.006001361 -0.0015131182)
(0.12971732 -0.0081934715 -0.00368328)
(0.13415809 -0.011543376 -0.0067428887)
(0.13903695 -0.016341149 -0.01079611)
(0.14435867 -0.023233239 -0.01535253)
(0.1501411 -0.03085764 -0.019276937)
(0.15609063 -0.036978952 -0.021608067)
(0.16152672 -0.03954712 -0.022510421)
(0.16540762 -0.038392874 -0.023210188)
(0.16723252 -0.034997255 -0.024526562)
(0.16737139 -0.031192628 -0.026484979)
(0.16675552 -0.028118539 -0.028612984)
(0.1661821 -0.025808057 -0.030407915)
(0.16589243 -0.023940779 -0.031493284)
(0.165851 -0.022343826 -0.031647968)
(0.16614708 -0.021244399 -0.030677065)
(0.16727089 -0.020828106 -0.028315122)
(0.17037583 -0.020977306 -0.024000285)
(0.17789147 -0.020767328 -0.016694282)
(0.19581917 -0.017805393 -0.0047570218)
(0.25345602 -0.0044597764 0.0094102505)
(0.10012226 -0.0029153923 0.0011113391)
(0.10023132 -0.0042366415 0.0017152537)
(0.10003183 -0.0046881171 0.0019926871)
(0.09965138 -0.0048568919 0.0021488601)
(0.099301471 -0.0049362121 0.00224434)
(0.099096055 -0.0050113143 0.0022797589)
(0.099047951 -0.0051662096 0.0022506751)
(0.099137724 -0.005496678 0.002160573)
(0.099362685 -0.0061299589 0.0020239884)
(0.099724612 -0.0072986872 0.0018169104)
(0.1003164 -0.0093495121 0.0014052329)
(0.10135776 -0.012743761 0.00052789214)
(0.10309611 -0.018167992 -0.00084465042)
(0.10561743 -0.026263483 -0.0020201202)
(0.10899855 -0.035354241 -0.0013800925)
(0.11283678 -0.042213159 0.0032011627)
(0.11811216 -0.043092455 0.011835001)
(0.12357092 -0.038843376 0.020417524)
(0.12789107 -0.032593749 0.026604084)
(0.13066767 -0.027444973 0.029850425)
(0.13232667 -0.024416268 0.031229815)
(0.13368078 -0.022319312 0.032897659)
(0.13583054 -0.021144545 0.034973151)
(0.1387902 -0.020492116 0.037744504)
(0.14217193 -0.020299831 0.041122379)
(0.14455218 -0.020824297 0.044097372)
(0.14691485 -0.02204508 0.046727287)
(0.15065029 -0.02393528 0.049549271)
(0.15919754 -0.026093881 0.054911379)
(0.18641546 -0.027234995 0.064296002)
(0.098106145 -0.0015760332 0.0010856959)
(0.096784675 -0.0023436635 0.0016701045)
(0.094431574 -0.0026026494 0.0019326518)
(0.091476313 -0.0026817515 0.0020707844)
(0.088488563 -0.0026850947 0.0021447113)
(0.085656355 -0.0026455076 0.002158704)
(0.082976602 -0.0026045317 0.0021141593)
(0.080418275 -0.0026167224 0.0020195726)
(0.077945791 -0.0027584998 0.0018962914)
(0.075475082 -0.0031689965 0.0017867888)
(0.072909568 -0.0041063907 0.0017488322)
(0.070100715 -0.0060369669 0.0018558419)
(0.066689853 -0.0096288615 0.0020563198)
(0.062412146 -0.015203972 0.002292552)
(0.057432342 -0.020358286 0.0046612129)
(0.053591425 -0.01947762 0.015666291)
(0.056254973 -0.010132716 0.0407446)
(0.059928543 0.0033582633 0.064528032)
(0.064216436 0.0165264 0.082122492)
(0.070189223 0.026731447 0.094131482)
(0.078241367 0.033415657 0.10170325)
(0.087454604 0.035952263 0.10515202)
(0.095856289 0.035588289 0.10630549)
(0.10277619 0.033252604 0.10595921)
(0.10794399 0.029781215 0.10441299)
(0.11160813 0.025255806 0.10130068)
(0.11414945 0.020085593 0.096490397)
(0.11661461 0.014675926 0.090597948)
(0.12301028 0.010047539 0.086576692)
(0.15028184 0.0082855526 0.084555249)
(0.10553254 -0.0024308315 0.00040025597)
(0.11953448 -0.0025340272 0.00066752364)
(0.13215385 -0.0023957349 0.00079837352)
(0.14243668 -0.0019960577 0.00083766511)
(0.15143002 -0.0014137639 0.00081142663)
(0.15961644 -0.00083455838 0.00072322484)
(0.16699867 -0.00037288237 0.00054853312)
(0.17355191 -5.3152755e-05 0.00025846865)
(0.17930343 9.9322308e-05 -0.00015908852)
(0.18424091 3.7095969e-05 -0.00072660298)
(0.18829845 -0.00032401295 -0.0014664673)
(0.1913761 -0.0011207651 -0.002355376)
(0.19290114 -0.0025795751 -0.0032513912)
(0.19263029 -0.0055762732 -0.0038606541)
(0.19211452 -0.0092916844 -0.0037565521)
(0.19205837 -0.012862973 -0.003108815)
(0.19161439 -0.01612557 -0.0028335663)
(0.19002701 -0.019433712 -0.003722788)
(0.1874689 -0.022853961 -0.0058965924)
(0.18456067 -0.026280392 -0.0089430769)
(0.18191199 -0.029547165 -0.012247797)
(0.17993452 -0.032408491 -0.015211617)
(0.17869816 -0.034608325 -0.017413756)
(0.17796973 -0.036035904 -0.018746388)
(0.17749483 -0.036766454 -0.019345355)
(0.1773074 -0.037031474 -0.019357209)
(0.17782947 -0.036974472 -0.018831813)
(0.17988174 -0.035745484 -0.01831533)
(0.18423282 -0.029164266 -0.020101133)
(0.18320554 -0.0064408204 -0.025095754)
(0.099858352 -0.0038428935 0.0003970447)
(0.10031848 -0.0046883702 0.00068602025)
(0.1019391 -0.0048489974 0.00084114495)
(0.10428075 -0.0045863737 0.00090119352)
(0.1070863 -0.0041022038 0.00088062709)
(0.11023635 -0.0036470978 0.00076367534)
(0.11360694 -0.0033692281 0.0005175888)
(0.1170982 -0.0033186819 9.981978e-05)
(0.12065924 -0.003571929 -0.00054335943)
(0.12427348 -0.004270061 -0.001500706)
(0.12797031 -0.0056317065 -0.0028514641)
(0.13187307 -0.008052529 -0.0046290901)
(0.13627885 -0.012153831 -0.0067100551)
(0.14126035 -0.018864837 -0.0086385093)
(0.14639951 -0.025668729 -0.010029477)
(0.15059739 -0.029947555 -0.01189729)
(0.15238741 -0.032051999 -0.015613595)
(0.15158204 -0.033784058 -0.021122799)
(0.14924086 -0.035434563 -0.027609577)
(0.14626538 -0.036969608 -0.034087845)
(0.14314305 -0.038420725 -0.039620125)
(0.14012373 -0.03967382 -0.043592724)
(0.13725568 -0.040444523 -0.045799897)
(0.13440532 -0.040646555 -0.046404766)
(0.13154503 -0.040559647 -0.04559623)
(0.12912127 -0.041081404 -0.043210388)
(0.12833274 -0.043150196 -0.039120274)
(0.13362687 -0.045441527 -0.035093855)
(0.15232036 -0.041054973 -0.038897399)
(0.20754922 -0.020759149 -0.054960972)
(0.10000514 -0.0029099271 0.00040221365)
(0.099897542 -0.0042240114 0.00069802099)
(0.099586462 -0.0046543469 0.00086913255)
(0.099216447 -0.0047898484 0.0009513488)
(0.098928235 -0.0048234902 0.00095706204)
(0.098786627 -0.0048339151 0.0008697825)
(0.098774978 -0.0048895219 0.00065658993)
(0.098841908 -0.0050650196 0.0002690684)
(0.098944331 -0.0054745375 -0.00036629504)
(0.09907804 -0.0063140052 -0.0013626249)
(0.099211485 -0.0079207385 -0.0028351443)
(0.099328422 -0.010957404 -0.0049493862)
(0.0996613 -0.016556856 -0.0077475261)
(0.10033981 -0.02556235 -0.010786417)
(0.10039786 -0.033327089 -0.013317956)
(0.09894987 -0.035178388 -0.016188463)
(0.094633983 -0.0329134 -0.020686014)
(0.089170619 -0.031341031 -0.024514884)
(0.084069822 -0.030921341 -0.029000209)
(0.079253597 -0.031746356 -0.034426354)
(0.07412484 -0.033733517 -0.038859986)
(0.068923101 -0.036204438 -0.040844995)
(0.06444343 -0.038290216 -0.040342713)
(0.061392519 -0.039862334 -0.037608486)
(0.060084552 -0.04153695 -0.032289848)
(0.061864179 -0.04421194 -0.023284224)
(0.065552036 -0.049454803 -0.012538725)
(0.076541274 -0.056325303 -0.0050591346)
(0.096314958 -0.059189292 -0.014421121)
(0.14801553 -0.052786722 -0.043595784)
(0.097991638 -0.0015708728 0.00039222618)
(0.096457514 -0.0023330171 0.00067569696)
(0.093995265 -0.0025833505 0.00083593274)
(0.091050377 -0.0026516508 0.00090838621)
(0.088123293 -0.002641397 0.00090555826)
(0.085351639 -0.0025831959 0.00081094961)
(0.082699975 -0.0025151797 0.00059014021)
(0.08010212 -0.0024863532 0.00018954053)
(0.07748307 -0.00256291 -0.00047932635)
(0.074748657 -0.0028611157 -0.0015653807)
(0.071646581 -0.0036331861 -0.0032793757)
(0.067650787 -0.0054626817 -0.0061021434)
(0.061879313 -0.0097719293 -0.011037744)
(0.052687783 -0.018436315 -0.019506337)
(0.036756354 -0.02395508 -0.030724101)
(0.019747848 -0.018871716 -0.037174211)
(0.0073347554 -0.010647942 -0.030885692)
(0.018941993 -0.0069811998 0.006812706)
(0.023341482 0.0013643862 0.041116339)
(0.029335865 0.0092494293 0.061158838)
(0.037362537 0.014666286 0.072322643)
(0.045927445 0.017004589 0.077686413)
(0.053755838 0.016886772 0.079602064)
(0.06013517 0.014849009 0.079313039)
(0.064166972 0.011064679 0.077403407)
(0.064551761 0.0051698499 0.073447929)
(0.062214948 -0.0035094463 0.066742765)
(0.064744153 -0.014801875 0.054938384)
(0.068080427 -0.020275742 0.017991663)
(0.10590232 -0.012954121 -0.037325395)
(0.10550467 -0.0024320825 0.00024523637)
(0.11943184 -0.0025303559 0.0004460399)
(0.13197059 -0.0023778088 0.00058580389)
(0.14219434 -0.0019486958 0.00066959618)
(0.1511574 -0.0013124487 0.00070575615)
(0.15935085 -0.00064201693 0.00069716962)
(0.16682401 -3.3941223e-05 0.00064272991)
(0.17358365 0.00049155224 0.00055550714)
(0.17968269 0.00093435624 0.00043494317)
(0.18519325 0.00128633 0.00028802667)
(0.19023042 0.00151441 0.00015988317)
(0.19498787 0.0015267796 0.00020430601)
(0.1992529 0.0011670664 0.00081411382)
(0.20311392 3.4604583e-05 0.0026231909)
(0.2079833 8.6029439e-05 0.0058419091)
(0.21337991 0.0012384344 0.0099075254)
(0.21773349 0.0023501279 0.014196679)
(0.22045415 0.0027293761 0.01850642)
(0.2219666 0.0022003294 0.022818368)
(0.22285595 0.00081329869 0.027054674)
(0.22355243 -0.001170643 0.031076423)
(0.22421238 -0.0033748072 0.034847009)
(0.2245853 -0.0054858312 0.038413623)
(0.22416585 -0.0074312072 0.041688468)
(0.22265191 -0.0092650913 0.044354128)
(0.22023779 -0.010737808 0.045880854)
(0.21737578 -0.010477469 0.045543878)
(0.21345761 -0.0059200944 0.042662189)
(0.20230515 0.0055735637 0.03419708)
(0.13460258 0.035780481 0.012820241)
(0.09982944 -0.0038440892 0.00024498907)
(0.10019391 -0.0046828045 0.00045794121)
(0.10169144 -0.0048222022 0.00060821838)
(0.10391803 -0.0045158193 0.00069456072)
(0.10661586 -0.0039529437 0.00072065474)
(0.10965385 -0.0033666327 0.00068134555)
(0.11290587 -0.0028800272 0.00056205761)
(0.11627085 -0.0025307767 0.00034250108)
(0.11970116 -0.0023580548 -7.5967157e-06)
(0.12322162 -0.0024675807 -0.00051900489)
(0.12698276 -0.0030916162 -0.0011864695)
(0.13136402 -0.0047155913 -0.0018782661)
(0.13709937 -0.008032443 -0.0021258841)
(0.14458391 -0.012620486 -0.001056735)
(0.15323374 -0.012687607 0.00087728547)
(0.16060845 -0.0092881193 0.0020797415)
(0.16514611 -0.0061685683 0.0017140066)
(0.16713204 -0.0051184594 -9.3244663e-05)
(0.16728133 -0.0063110101 -0.0031453904)
(0.16604171 -0.0090239354 -0.0071919449)
(0.16398098 -0.012361417 -0.011708051)
(0.16148755 -0.015514159 -0.01581294)
(0.15854138 -0.017832799 -0.018704356)
(0.15473993 -0.019327317 -0.020063409)
(0.1499314 -0.020668369 -0.019981869)
(0.14491012 -0.02272286 -0.018973171)
(0.14260456 -0.023374459 -0.020464877)
(0.14714389 -0.014522815 -0.028501187)
(0.16174822 0.010433461 -0.040654452)
(0.16533743 0.053582729 -0.056203345)
(0.099977381 -0.0029069984 0.00024639172)
(0.09977712 -0.0042176093 0.00046002343)
(0.099340827 -0.0046384049 0.00061476242)
(0.098844771 -0.0047551259 0.00070682565)
(0.098428255 -0.0047568731 0.00073618173)
(0.098140612 -0.0047147175 0.0006927178)
(0.097952139 -0.0046855356 0.00055389304)
(0.097795473 -0.0047307078 0.00028488385)
(0.097593255 -0.0049518161 -0.00016634962)
(0.097285926 -0.0055638666 -0.00087263758)
(0.096866534 -0.0070242257 -0.0019430659)
(0.096554567 -0.010327815 -0.003384062)
(0.097105441 -0.017241057 -0.0047587874)
(0.098214379 -0.026500562 -0.0045445237)
(0.10038336 -0.026100579 -0.0023707265)
(0.10152237 -0.020166462 -0.00044641395)
(0.096345077 -0.014551527 -0.0018471056)
(0.087856824 -0.011230277 -0.0063153787)
(0.077489468 -0.012076321 -0.0129177)
(0.066841059 -0.016232604 -0.019588948)
(0.056776632 -0.021706347 -0.024244976)
(0.047588238 -0.026751963 -0.025732199)
(0.040064017 -0.029974091 -0.024200243)
(0.034567236 -0.032312405 -0.019407383)
(0.031834119 -0.03543854 -0.011903518)
(0.032680148 -0.04111638 -0.004490247)
(0.038405473 -0.045613318 -0.012819727)
(0.055862092 -0.03370214 -0.039700912)
(0.082541926 -0.0097727907 -0.062548692)
(0.11090711 0.030092102 -0.086483611)
(0.097964428 -0.0015724097 0.00024019446)
(0.096340159 -0.002336485 0.00044539858)
(0.093755521 -0.0025863455 0.00059140773)
(0.09068557 -0.0026505545 0.00067438202)
(0.087628738 -0.0026313637 0.00069351135)
(0.0847039 -0.002556964 0.00063688001)
(0.081853104 -0.0024623525 0.00047681419)
(0.078969251 -0.0023944393 0.00016506986)
(0.075891096 -0.0024268242 -0.00038351611)
(0.072353228 -0.0027106379 -0.0013258514)
(0.06783504 -0.0036130511 -0.003003473)
(0.061201238 -0.0061581965 -0.0060423307)
(0.050633587 -0.013144324 -0.01172599)
(0.031537986 -0.02374513 -0.020493533)
(-0.0017717258 -0.014140223 -0.028570544)
(-0.027146739 0.001898237 -0.025406553)
(-0.042711717 0.0041804961 -0.019691954)
(-0.048261816 0.0027674794 -0.0099216025)
(-0.036633544 -0.00044891772 0.0087061246)
(-0.026848022 -0.001129039 0.024516278)
(-0.015883105 -0.0013544311 0.033564693)
(-0.0059364898 -0.0022880475 0.037947329)
(0.0031225156 -0.004045036 0.039792941)
(0.0089415913 -0.0076335874 0.040048992)
(0.01147035 -0.013057541 0.039769121)
(0.010008787 -0.021744895 0.037382886)
(-0.0044422213 -0.032730085 0.0072804816)
(-0.019078545 -0.016186543 -0.056727751)
(-0.0062979052 0.01554284 -0.090493855)
(0.037789373 0.041376294 -0.11204598)
(0.1054905 -0.0024353725 0.00011016714)
(0.11938237 -0.0025355885 0.00020206777)
(0.13188008 -0.0023836879 0.00027582245)
(0.14206955 -0.0019532601 0.00033520083)
(0.15100765 -0.0013129591 0.00038506822)
(0.15918017 -0.0006365667 0.00043080006)
(0.16662784 -2.3342152e-05 0.00047400464)
(0.17334437 0.00050121267 0.00051528432)
(0.17937958 0.00093163068 0.00055298575)
(0.18482701 0.0012462617 0.00059013078)
(0.18985711 0.0013757823 0.00063651601)
(0.19484608 0.0011805909 0.00070625324)
(0.19995145 0.00064723515 0.00083440148)
(0.20555665 0.00028651406 0.0010262485)
(0.21212151 0.0012058119 0.0013983526)
(0.21863762 0.0025268394 0.0019470251)
(0.22387509 0.0039160123 0.0025883775)
(0.2281192 0.0056021372 0.0034897951)
(0.23203435 0.0075716064 0.0049866531)
(0.23612367 0.0096490805 0.0074089146)
(0.24072797 0.011565195 0.011021087)
(0.24584687 0.013292781 0.01587887)
(0.2508366 0.0151222 0.021849839)
(0.25462506 0.017129626 0.028628455)
(0.25613472 0.019290509 0.035651754)
(0.25425589 0.021842196 0.041967863)
(0.24721654 0.025603349 0.046027851)
(0.231706 0.032252388 0.045650852)
(0.2034758 0.044371033 0.038036627)
(0.10446818 0.072198632 0.02130849)
(0.099813184 -0.0038472975 0.00010760472)
(0.10013037 -0.0046873593 0.00020159173)
(0.10156636 -0.0048252932 0.00027775809)
(0.10373415 -0.0045136217 0.00033794174)
(0.10637651 -0.0039409226 0.00038561069)
(0.1093521 -0.0033417107 0.00042321325)
(0.11252267 -0.0028434621 0.00044841074)
(0.1157776 -0.0024941046 0.00045735718)
(0.11906966 -0.0023501258 0.00044631059)
(0.1224491 -0.002556113 0.00041385988)
(0.12616476 -0.0034651814 0.00036124838)
(0.13092704 -0.0057434851 0.0003043118)
(0.13790614 -0.0097257978 0.00029338954)
(0.1472281 -0.01051208 0.00041556967)
(0.15675342 -0.006633825 0.00074583644)
(0.16420909 -0.002367558 0.00075767941)
(0.17048824 0.00076048256 0.0004205452)
(0.17645567 0.0028956516 4.4998571e-05)
(0.18206246 0.0042071736 -9.411827e-05)
(0.18782577 0.0049627607 6.5370284e-05)
(0.19380457 0.0058406147 0.00050514075)
(0.19987997 0.0077460053 0.0011672965)
(0.20756014 0.011960112 0.0023544098)
(0.21512765 0.018748147 0.0043305812)
(0.2216745 0.027383836 0.0072207219)
(0.22625271 0.037196174 0.010540755)
(0.22683693 0.048743192 0.012720721)
(0.21936639 0.06414608 0.011020233)
(0.20189789 0.086331851 0.0027188372)
(0.13713324 0.1211299 -0.01478821)
(0.099961097 -0.0029067848 0.00010763401)
(0.099713542 -0.0042175127 0.00020104884)
(0.099212695 -0.0046365778 0.00027800793)
(0.098649356 -0.0047490443 0.00033986097)
(0.098161528 -0.0047443978 0.00038931152)
(0.097784419 -0.0046950285 0.00042752072)
(0.097467922 -0.0046616588 0.00045063218)
(0.097119227 -0.0047169969 0.00045279195)
(0.096636499 -0.0049898123 0.00042806137)
(0.095914598 -0.0057672679 0.00037343479)
(0.09495809 -0.0077408801 0.00028001198)
(0.094413833 -0.01245741 0.00014544769)
(0.09553296 -0.022254335 -6.311069e-05)
(0.097631893 -0.023994726 -0.00059035541)
(0.10327918 -0.017384849 0.00038317694)
(0.10306996 -0.010862724 0.00049553186)
(0.099613039 -0.0050715801 -7.7721317e-05)
(0.092916894 -0.00047880688 -0.0010700715)
(0.08544488 0.0014373614 -0.0025296614)
(0.075824892 -8.11115e-05 -0.004723262)
(0.063129955 -0.0042021853 -0.0074651357)
(0.050136416 -0.0083049493 -0.010050988)
(0.039671516 -0.0098219543 -0.012497755)
(0.039509134 -0.0078852482 -0.014985454)
(0.055206961 -0.0019900055 -0.016124865)
(0.08146584 0.0093253562 -0.016327567)
(0.1096829 0.025651708 -0.016818268)
(0.12582788 0.047789549 -0.020907313)
(0.13065545 0.079193566 -0.029769272)
(0.09997901 0.1222224 -0.042796725)
(0.097948318 -0.0015720882 0.00010507048)
(0.096277397 -0.0023357937 0.00019491754)
(0.093628347 -0.0025844167 0.00026803977)
(0.090488933 -0.0026463972 0.00032585488)
(0.087354479 -0.0026242951 0.00037109862)
(0.084324845 -0.0025469618 0.0004044649)
(0.081310475 -0.0024517979 0.00042144003)
(0.078157981 -0.0023931531 0.00041469778)
(0.074625088 -0.0024619668 0.00037707624)
(0.07022329 -0.0028679304 0.0003005256)
(0.063918357 -0.004197531 0.00015518733)
(0.053452988 -0.0082831573 -0.00012561322)
(0.037200721 -0.019736731 -0.0009253742)
(-0.0057602805 -0.016267731 -0.0068803104)
(-0.042931949 0.0042706018 -0.01119846)
(-0.062349574 0.0073541044 -0.0099777155)
(-0.077508257 0.0072538925 -0.0090071023)
(-0.08563497 0.0043982492 -0.0065988829)
(-0.087999666 -0.00014320039 -0.0041574507)
(-0.081897791 -0.0049358809 -0.0023712827)
(-0.072348326 -0.0092031756 -0.0029802778)
(-0.062507568 -0.01296529 -0.0053454238)
(-0.053325543 -0.016783002 -0.0083435392)
(-0.045117512 -0.020782624 -0.010995133)
(-0.037227107 -0.022217714 -0.012335002)
(-0.029490649 -0.01628155 -0.015409027)
(-0.01714723 0.0020212527 -0.028305784)
(0.0038057481 0.032613189 -0.039254763)
(0.017212147 0.065525977 -0.044640728)
(0.021817611 0.1037848 -0.023141046)
(0.10549278 -0.0024351588 5.0596252e-06)
(0.11939092 -0.0025345371 1.697412e-05)
(0.13189808 -0.0023817982 5.1573378e-05)
(0.1421008 -0.001950557 0.00011245559)
(0.15106 -0.0013088391 0.00019939511)
(0.1592639 -0.0006301358 0.00031316484)
(0.16675639 -1.2131134e-05 0.0004610258)
(0.17354031 0.00052332006 0.0006527189)
(0.17967422 0.00097780345 0.00090222396)
(0.18524936 0.0013425085 0.0012195099)
(0.1903963 0.0015741689 0.0015933425)
(0.19533386 0.0015631553 0.0019442888)
(0.19980111 0.0011447427 0.002019533)
(0.20400447 -4.747923e-05 0.0013754472)
(0.20964919 0.00022810155 4.1977106e-05)
(0.21594824 0.0013912483 -0.0014338728)
(0.22156973 0.0025645538 -0.0027268218)
(0.22639919 0.0037453028 -0.0039257031)
(0.23129286 0.0052074206 -0.0052976429)
(0.23703704 0.0070612314 -0.0070938623)
(0.24380656 0.0094883782 -0.0095321575)
(0.25100228 0.012628444 -0.012877268)
(0.2574926 0.016388079 -0.017371777)
(0.26194053 0.02053715 -0.022933297)
(0.26317244 0.024834726 -0.028998956)
(0.26010974 0.029344019 -0.034507731)
(0.2509389 0.034811806 -0.038044284)
(0.23220691 0.042396628 -0.037976025)
(0.19992698 0.053994681 -0.031868454)
(0.096782509 0.077351354 -0.017389566)
(0.099814618 -0.0038467571 4.334319e-06)
(0.10013681 -0.0046854704 1.581792e-05)
(0.10158205 -0.0048217848 5.4712343e-05)
(0.10376485 -0.0045080798 0.00012745723)
(0.10643207 -0.0039317327 0.00023534673)
(0.10944507 -0.0033260555 0.00038174636)
(0.11266944 -0.0028142898 0.00057773836)
(0.11600334 -0.0024346457 0.00083942864)
(0.11940394 -0.002222852 0.0011860841)
(0.12290758 -0.0022814646 0.0016293072)
(0.12669339 -0.0028643286 0.0021473162)
(0.13121778 -0.004497512 0.0026138435)
(0.13734824 -0.0078717867 0.0026350329)
(0.1454076 -0.012043497 0.0015466662)
(0.15502162 -0.010081994 -9.6553789e-05)
(0.16281887 -0.0060127443 -0.00087107595)
(0.16841658 -0.0028749632 -0.00058733373)
(0.17321062 -0.0012709937 0.00025654169)
(0.1783473 -0.00077293856 0.0013865302)
(0.18432916 -0.00030015351 0.0027122416)
(0.19222843 0.001744134 0.0039209061)
(0.20317529 0.007057422 0.0042902829)
(0.21495473 0.015984633 0.0034152369)
(0.2264199 0.027580101 0.0011497403)
(0.23621818 0.040473503 -0.0020363829)
(0.24260757 0.054425985 -0.0051128898)
(0.24241352 0.070382324 -0.0067556301)
(0.23023628 0.089282114 -0.0056799232)
(0.20212891 0.11296073 9.1348798e-05)
(0.10385111 0.14560864 0.013668138)
(0.099962603 -0.0029061854 5.0983455e-06)
(0.099720335 -0.0042160504 1.7484031e-05)
(0.099229715 -0.0046337598 5.7955139e-05)
(0.098684108 -0.0047440259 0.00013484677)
(0.098227185 -0.0047351964 0.00025232831)
(0.097900166 -0.0046781416 0.00041818797)
(0.097663667 -0.0046282002 0.00065058404)
(0.097447487 -0.0046454195 0.00097840795)
(0.097179371 -0.0048290305 0.0014445769)
(0.096799733 -0.0053927098 0.0021037947)
(0.096318145 -0.0068229931 0.0030198343)
(0.096060657 -0.010189082 0.0041913103)
(0.097109794 -0.017393654 0.0052764148)
(0.098251828 -0.027284735 0.0051501652)
(0.10385221 -0.022454201 0.0023809703)
(0.10465806 -0.015750485 0.0014893868)
(0.10172422 -0.010002325 0.0033384183)
(0.096990677 -0.0054748643 0.0067237239)
(0.090817912 -0.0034218026 0.011073865)
(0.084238592 -0.0046109688 0.016074809)
(0.077665516 -0.0071710111 0.020042086)
(0.074624655 -0.0082214218 0.021287619)
(0.081752589 -0.0052823611 0.019454308)
(0.09878512 0.0025492268 0.016333568)
(0.12336017 0.016085888 0.013416565)
(0.14524857 0.033938785 0.010124224)
(0.16183749 0.054791089 0.0089858822)
(0.16670625 0.081200539 0.011375283)
(0.15537846 0.12122434 0.018744358)
(0.053683082 0.20117941 0.03093992)
(0.097949844 -0.0015717781 5.6598743e-06)
(0.096284493 -0.0023350911 1.8894623e-05)
(0.093646536 -0.0025830884 6.0611115e-05)
(0.090527119 -0.0026440805 0.00013986778)
(0.087428463 -0.0026200634 0.00026207195)
(0.084459945 -0.0025392595 0.00043856828)
(0.08155137 -0.0024362198 0.00069415411)
(0.078590782 -0.0023581007 0.0010730754)
(0.075415724 -0.0023777704 0.0016519297)
(0.071737107 -0.0026501096 0.0025675745)
(0.066991466 -0.0035718447 0.0041003471)
(0.059971336 -0.0062703145 0.006826069)
(0.048334482 -0.013888324 0.01195187)
(0.027017474 -0.026909504 0.019493601)
(-0.020529118 -0.0027750099 0.023176456)
(-0.03951265 0.004602554 0.01717425)
(-0.058375193 0.006110977 0.013523946)
(-0.068608727 0.0047422624 0.0087788765)
(-0.069750209 0.00061379259 0.00066937633)
(-0.062876862 -0.0043182225 -0.010424241)
(-0.053922059 -0.0084612023 -0.019827554)
(-0.045564631 -0.01239555 -0.02683434)
(-0.038567844 -0.01575473 -0.031823093)
(-0.031565449 -0.016922446 -0.034222499)
(-0.02275002 -0.013315351 -0.031167439)
(0.00023445234 0.0039655864 -0.014710185)
(0.027097658 0.031752873 -0.0031413781)
(0.044780782 0.058782613 0.0077113995)
(0.0925105 0.10174563 0.029519464)
(0.14958017 0.18286736 0.064270625)
(0.10551194 -0.0024313332 -0.000143405)
(0.11945865 -0.0025271605 -0.00025310084)
(0.13202602 -0.0023719642 -0.00029868981)
(0.14228708 -0.0019403387 -0.00027921338)
(0.1512962 -0.0013017004 -0.00019999933)
(0.1595495 -0.00062804429 -6.2539686e-05)
(0.16710132 -1.5515831e-05 0.0001321068)
(0.17396026 0.00051838899 0.00038718833)
(0.18018717 0.00098115834 0.00070646046)
(0.18586456 0.0013774473 0.0010829712)
(0.1910943 0.0016921562 0.0014772098)
(0.19601595 0.0018638093 0.0017716138)
(0.2002835 0.0017490953 0.0016791465)
(0.20387186 0.00069283964 0.0007522681)