/*--------------------------------*- C++ -*----------------------------------*\
| =========                 |                                                 |
| \\      /  F ield         | OpenFOAM: The Open Source CFD Toolbox           |
|  \\    /   O peration     | Version:  v2012                                 |
|   \\  /    A nd           | Website:  www.openfoam.com                      |
|    \\/     M anipulation  |                                                 |
\*---------------------------------------------------------------------------*/
FoamFile
{
    version     2.0;
    format      ascii;
    class       volScalarField;
    location    "16";
    object      p;
}
// * * * * * * * * * * * * * * * * * * * * * * * * * * * * * * * * * * * * * //

dimensions      [0 2 -2 0 0 0 0];


internalField   nonuniform List<scalar> 
64000
(
1.36386e-21
-2.41349e-21
-1.78881e-21
-3.55717e-21
-5.8924e-21
-9.54125e-22
-1.77646e-21
-9.51367e-22
-2.83976e-21
-3.02109e-21
-2.45182e-21
-2.51994e-21
-2.49877e-21
-5.02282e-21
-2.35751e-21
-3.82947e-21
-1.9418e-22
-1.2136e-22
1.47144e-21
2.26704e-21
-2.36848e-22
-6.22216e-21
-2.26785e-21
5.92216e-22
-5.17876e-21
-2.35183e-21
5.44934e-22
-1.12097e-21
-1.25097e-21
-2.01352e-21
-2.78984e-21
-2.79678e-22
2.63673e-22
-2.25864e-21
-1.08961e-21
-1.09292e-21
-4.77771e-22
1.03297e-21
1.1067e-21
1.33131e-21
-4.29933e-21
-6.19933e-21
-8.84089e-21
-5.57449e-21
-6.82408e-21
-7.90129e-21
-4.00138e-21
-8.28829e-22
-3.31422e-21
-5.17162e-21
-3.38473e-21
-4.91489e-21
-2.79526e-21
-2.31575e-21
-3.47788e-21
-5.76122e-21
-2.69017e-21
1.62515e-21
5.66868e-22
-6.10026e-22
2.30396e-21
-2.56984e-21
-5.78674e-21
-6.97582e-21
-7.56643e-21
-5.05908e-22
2.42379e-22
-2.59066e-21
-1.1386e-21
5.17711e-22
2.13482e-21
-9.95126e-23
-3.86056e-21
-1.76186e-21
-2.73374e-22
-6.44121e-22
-6.36932e-23
7.3432e-22
-4.10071e-22
3.70551e-22
-4.2578e-21
-3.99269e-21
-1.17259e-20
-7.93392e-21
-5.86794e-21
-7.48229e-21
-4.64234e-21
-4.4837e-21
-5.49215e-21
-3.8449e-21
-3.43414e-21
-6.1626e-21
-3.17409e-21
-2.98109e-21
-1.32941e-21
-1.29932e-21
-5.96546e-21
-2.4048e-21
-1.61678e-21
-7.92759e-22
1.32834e-21
-5.22065e-22
-6.44e-21
-6.25282e-21
-2.56454e-21
-2.58065e-21
-3.10731e-21
-2.94561e-21
1.51201e-22
-7.1967e-22
1.00938e-21
-5.98208e-22
-2.47512e-21
3.55475e-23
-1.80259e-22
6.15948e-22
9.6586e-23
-4.72407e-22
-1.34539e-21
1.01212e-22
-6.69929e-21
-7.084e-21
-8.175e-21
-1.07417e-20
-9.31025e-21
-9.86824e-21
-3.97751e-21
-2.91678e-21
-6.57376e-21
-5.33686e-21
-4.91428e-21
-6.23964e-21
-6.13395e-21
-2.57685e-21
-3.03095e-21
-4.38483e-21
-3.45641e-21
-1.36181e-21
-1.02344e-21
9.07451e-22
2.4449e-21
-1.63816e-21
-9.10121e-21
-6.9973e-21
-3.41023e-21
-3.80205e-21
-1.8534e-21
2.65958e-22
-1.51235e-21
-2.52614e-21
2.15795e-21
5.07898e-22
-3.47047e-21
2.60025e-22
2.00264e-21
6.0252e-22
-4.69138e-22
-1.36764e-21
-2.75569e-21
-9.87356e-22
-1.41503e-20
-8.29124e-21
-9.06547e-21
-8.27034e-21
-9.91239e-21
-1.05296e-20
-5.2084e-21
-1.24008e-21
-4.62966e-21
-6.85456e-21
-5.53911e-21
-6.21961e-21
-5.0723e-21
-2.06454e-21
-7.05415e-21
-8.17493e-21
-3.43817e-21
1.41227e-21
8.28685e-22
2.10346e-22
2.90401e-21
-3.43082e-21
-1.09802e-20
-7.06856e-21
-2.46154e-21
-2.27431e-21
-5.38212e-22
-1.24054e-21
-3.5992e-21
1.38115e-22
2.68008e-21
-5.35394e-22
-1.62125e-21
1.27261e-21
-1.34843e-21
4.42558e-22
-8.58374e-22
-8.37175e-22
-2.81341e-21
-1.96416e-21
-1.09467e-20
-1.01328e-20
-8.60542e-21
-1.03361e-20
-9.0041e-21
-8.44195e-21
-5.10027e-21
-7.12278e-21
-6.57818e-21
-5.74102e-21
-4.91504e-21
-6.69169e-21
-6.53919e-21
-3.4411e-21
-5.01892e-21
-6.27655e-21
-4.76703e-21
3.01918e-21
2.05537e-21
2.31389e-22
2.97243e-21
-3.47123e-21
-1.01592e-20
-7.61791e-21
-3.48069e-21
-1.88207e-21
-2.59653e-21
-3.76267e-22
-1.10046e-21
-2.20226e-21
-1.85491e-21
-1.76253e-21
-1.56457e-21
7.63163e-22
-1.13285e-21
4.68442e-22
-1.66069e-21
-2.2526e-21
-1.32984e-21
-2.62434e-22
-1.18319e-20
-1.29573e-20
-7.28925e-21
-9.26171e-21
-9.42401e-21
-9.95913e-21
-5.62019e-21
-7.40673e-21
-7.38424e-21
-4.52927e-21
-5.15156e-21
-7.12257e-21
-5.4078e-21
-5.34389e-21
-5.58261e-21
-5.94439e-21
-1.82517e-21
2.71109e-21
3.90281e-21
1.87783e-21
-8.11598e-22
-5.74015e-21
-1.21033e-20
-7.98845e-21
-3.39714e-21
-2.5137e-21
-1.92082e-21
1.22677e-21
2.3067e-22
-1.55863e-21
-3.68702e-21
-1.58772e-21
-6.46109e-23
-1.69391e-21
-2.02143e-21
-5.85264e-22
-1.38069e-21
-2.14036e-21
-4.2616e-21
-9.59266e-22
-1.07115e-20
-1.08124e-20
-1.0539e-20
-7.88135e-21
-1.1181e-20
-7.9171e-21
-5.31892e-21
-1.17423e-20
-8.92807e-21
-5.25868e-21
-6.50805e-21
-7.84559e-21
-7.35781e-21
-7.36394e-21
-5.04956e-21
-5.78463e-21
-4.93388e-22
1.76573e-21
2.50017e-21
1.57155e-21
-2.69587e-21
-7.13115e-21
-9.49886e-21
-5.45971e-21
-3.36534e-21
-4.24509e-21
-1.38228e-21
1.17661e-21
1.18386e-21
-1.57371e-21
-4.75758e-21
-2.27428e-21
-3.87101e-22
-2.48328e-21
-2.44397e-21
-7.70435e-22
-2.07801e-21
-4.27329e-21
-1.17696e-21
4.68594e-22
-1.74714e-20
-1.28518e-20
-1.19493e-20
-1.08566e-20
-8.42811e-21
-9.64552e-21
-8.09766e-21
-7.36995e-21
-8.51521e-21
-1.01795e-20
-7.57533e-21
-8.591e-21
-3.17728e-21
-8.54225e-21
-6.32567e-21
-5.36727e-21
-1.83196e-21
1.99011e-21
-1.43566e-21
-1.23657e-21
-2.5047e-21
-6.92279e-21
-7.16444e-21
-6.71686e-21
-9.71878e-22
-1.95137e-21
-3.12089e-21
-5.58894e-25
2.20615e-21
-6.63824e-22
1.16256e-22
-1.39844e-21
-5.83203e-21
-3.32187e-21
-4.08657e-21
-1.20656e-21
-1.29446e-21
-1.1583e-21
5.07316e-22
3.34943e-22
-7.95583e-21
-1.06261e-20
-1.26229e-20
-9.93408e-21
-8.9179e-21
-1.11064e-20
-7.89077e-21
-8.49239e-21
-8.82383e-21
-9.15912e-21
-8.93613e-21
-5.94217e-21
-4.94187e-21
-6.59837e-21
-7.41438e-21
-5.41968e-21
-4.30176e-21
-1.19097e-21
1.46668e-21
-4.12412e-22
-2.43249e-21
-4.76224e-21
-8.16734e-21
-5.62194e-21
-2.05143e-21
-1.2706e-21
-1.33047e-21
3.0835e-22
-1.08664e-21
-1.59373e-21
-8.30463e-22
-8.08026e-22
-1.57241e-21
-2.28742e-21
-3.7877e-21
-4.30711e-21
-9.35293e-22
3.503e-22
4.16648e-22
-2.54468e-22
-6.55289e-21
-1.12566e-20
-1.18696e-20
-1.29277e-20
-8.38534e-21
-9.75307e-21
-1.11781e-20
-8.59662e-21
-8.93588e-21
-1.22733e-20
-9.07144e-21
-3.78972e-21
-4.36331e-21
-4.74653e-21
-5.65729e-21
-7.17128e-21
-6.27213e-21
7.07232e-22
4.62948e-21
-2.7512e-23
-4.86057e-21
-9.7372e-21
-5.76282e-21
-6.11533e-21
-3.08348e-21
-1.54776e-21
8.82388e-22
1.33211e-21
-1.65897e-21
-3.41704e-21
-3.02234e-21
-5.34759e-22
-7.32176e-22
-1.03437e-21
-3.48447e-21
-5.76935e-21
-1.62749e-21
-4.94438e-22
-1.13939e-21
-2.77669e-22
-9.2314e-21
-1.27014e-20
-1.31522e-20
-1.1474e-20
-9.81054e-21
-1.22981e-20
-9.8183e-21
-1.08677e-20
-6.99039e-21
-1.06276e-20
-1.28435e-20
-5.02526e-21
-4.05601e-21
-6.25635e-21
-4.75902e-21
-5.53608e-21
-5.00249e-21
1.55923e-21
2.57662e-21
-5.81322e-22
-4.59976e-21
-8.3558e-21
-6.62744e-21
-6.44433e-21
-5.01066e-21
8.81344e-22
3.22634e-21
-3.05864e-22
-4.08954e-21
-1.7547e-21
-1.81617e-21
-2.11599e-21
-6.32826e-22
6.86927e-22
-5.26425e-21
-1.85948e-21
-8.25685e-22
-1.00286e-21
-1.46509e-21
-1.88864e-21
-1.43868e-20
-1.38344e-20
-1.2897e-20
-1.11293e-20
-1.09523e-20
-1.23415e-20
-1.29476e-20
-1.07309e-20
-9.44707e-21
-1.0753e-20
-1.07059e-20
-3.67977e-21
-5.24193e-21
-8.43053e-21
-4.91314e-21
-4.68154e-21
-3.18315e-21
3.51355e-22
-5.47028e-22
-1.86223e-21
-2.89928e-21
-4.72998e-21
-5.94368e-21
-5.39257e-21
-2.40042e-21
7.17825e-22
2.14888e-21
-1.76621e-21
-1.60245e-21
-8.80108e-22
-4.46946e-21
-2.00719e-21
-8.75696e-22
-1.55768e-21
-2.96962e-21
-8.33436e-22
-2.26022e-21
-2.77e-21
-1.16017e-21
-9.69067e-22
-1.72209e-20
-1.60703e-20
-1.20762e-20
-1.23631e-20
-9.4604e-21
-1.10264e-20
-1.13452e-20
-7.81187e-21
-1.0806e-20
-1.46904e-20
-9.09139e-21
-3.02466e-21
-7.79983e-21
-1.17179e-20
-5.75493e-21
-4.73918e-21
-1.32048e-21
2.55898e-21
1.25792e-23
-1.87433e-21
-4.80672e-21
-6.3252e-21
-6.02321e-21
-7.80567e-21
-9.32564e-22
3.46537e-22
1.09501e-21
-1.21704e-21
-3.33299e-23
2.79083e-21
-1.21938e-21
-3.62075e-21
-3.09783e-21
-1.70388e-21
-1.39882e-21
-1.35302e-21
-1.81884e-21
-2.22591e-21
-2.42354e-21
-1.29077e-21
-1.11759e-20
-1.77265e-20
-1.62829e-20
-9.84073e-21
-7.5414e-21
-1.03391e-20
-1.37308e-20
-1.235e-20
-1.05661e-20
-1.23046e-20
-8.89735e-21
-7.69585e-21
-8.38987e-21
-6.75242e-21
-2.8633e-21
-4.37206e-21
-2.39103e-21
-1.72553e-21
-2.61039e-21
-1.03014e-21
-7.21854e-21
-3.51249e-21
-4.18391e-21
-6.3561e-21
2.23965e-21
-2.20481e-21
-3.1048e-21
-8.34398e-22
1.19082e-21
6.94675e-22
-7.42291e-22
-9.59192e-22
-3.16555e-21
-2.27489e-21
-1.22006e-21
-2.18917e-21
-1.98332e-21
-2.89827e-21
-2.71468e-21
-2.28657e-22
-1.23587e-20
-1.25244e-20
-1.54434e-20
-1.11325e-20
-1.1659e-20
-9.89958e-21
-1.24382e-20
-1.33399e-20
-1.0287e-20
-7.33374e-21
-1.0585e-20
-9.97582e-21
-6.46957e-21
-5.49268e-21
-5.56206e-21
-5.80486e-21
-1.82107e-21
-2.16537e-21
-1.69804e-21
-3.81067e-21
-6.83689e-21
-4.70354e-21
-3.34935e-21
-1.90097e-21
3.9548e-22
-2.57116e-21
-3.3219e-21
-1.56059e-21
2.30399e-21
1.07644e-21
-5.02029e-21
-2.68579e-21
-1.02313e-22
-1.44479e-21
-5.07368e-23
-1.99264e-21
-4.23492e-21
-3.64895e-21
-2.4948e-21
-4.085e-22
-1.2485e-20
-1.13139e-20
-1.44431e-20
-9.92518e-21
-8.78602e-21
-1.12727e-20
-1.30957e-20
-1.3506e-20
-9.57638e-21
-8.86129e-21
-9.80158e-21
-1.14528e-20
-3.50463e-21
-6.36958e-21
-5.11956e-21
-4.25701e-21
-3.18857e-21
-9.08147e-22
-3.43611e-21
-5.38264e-21
-6.93241e-21
-4.27793e-21
-3.03853e-21
6.81184e-22
6.0841e-22
-3.67755e-22
-1.61024e-21
-2.9088e-23
7.45468e-22
-2.18786e-21
-6.49485e-21
-1.43233e-21
6.4039e-22
-2.67425e-21
-1.55331e-21
-1.64025e-21
-4.08561e-21
-4.13733e-21
-2.38499e-21
-2.30446e-21
-9.81663e-21
-1.22942e-20
-1.77223e-20
-9.8541e-21
-6.39921e-21
-1.04155e-20
-1.41119e-20
-1.25015e-20
-1.00296e-20
-8.7911e-21
-1.05138e-20
-1.01707e-20
-5.85365e-21
-7.09252e-21
-2.32422e-21
-5.51316e-21
-4.16468e-21
8.72827e-22
3.74505e-22
-7.2711e-21
-7.89447e-21
-7.55196e-21
-1.50952e-22
8.0994e-22
2.13679e-21
-2.61731e-21
-1.12871e-21
1.17769e-21
-1.086e-22
-3.5987e-22
-3.01009e-21
-2.12333e-21
-7.74056e-22
-1.10378e-21
-1.21788e-21
-3.3756e-21
-4.0898e-21
-3.24937e-21
-6.05256e-22
-1.0879e-21
-8.13184e-21
-8.96234e-21
-1.2767e-20
-1.15664e-20
-1.09147e-20
-1.06301e-20
-1.10477e-20
-1.03255e-20
-9.98672e-21
-9.44765e-21
-1.03782e-20
-9.25094e-21
-6.13187e-21
-6.44928e-21
-2.93624e-21
-4.82366e-21
-4.48946e-21
-7.10192e-21
-7.25433e-21
-6.10591e-21
-3.1613e-21
-1.22912e-21
-7.06324e-22
-3.70984e-22
1.43865e-21
1.00385e-21
1.67982e-21
3.80586e-21
1.72305e-21
-1.21617e-21
-6.79027e-21
-9.00922e-22
-9.83966e-22
-1.58703e-21
-2.5242e-21
-2.94279e-21
-3.05491e-21
-2.22795e-21
-3.72882e-21
-2.37757e-21
-5.97075e-21
-7.39419e-21
-1.43935e-20
-1.30305e-20
-1.11104e-20
-8.48193e-21
-7.58404e-21
-1.18999e-20
-1.17281e-20
-9.8537e-21
-8.34611e-21
-9.13048e-21
-4.63154e-21
-4.78796e-21
-6.06017e-21
-6.16939e-21
-3.20747e-21
-3.48123e-21
-8.98923e-21
-4.92605e-21
-3.88252e-21
-4.00856e-21
-1.82418e-21
8.66749e-22
1.47975e-21
2.44397e-21
-2.80408e-21
2.19898e-21
1.62544e-21
-2.56457e-21
-1.64891e-21
-6.26818e-22
8.58416e-22
-9.20501e-22
-3.35476e-21
-2.67266e-21
-3.0657e-21
-1.84968e-21
-3.08551e-21
-2.27763e-21
-8.41241e-21
-8.86069e-21
-1.29595e-20
-1.22663e-20
-1.22432e-20
-8.48115e-21
-7.38924e-21
-7.43256e-21
-9.41817e-21
-1.23231e-20
-1.47783e-20
-7.97552e-21
-5.29603e-21
-3.30498e-21
-5.64122e-21
-4.86993e-21
-4.89079e-21
-2.29261e-21
-5.632e-21
-4.87244e-21
-3.906e-21
-3.91599e-21
-2.02807e-22
-1.26107e-21
-2.31516e-21
1.68824e-21
9.51958e-23
1.01104e-21
1.57257e-21
-4.64206e-22
-3.39201e-23
3.61315e-23
-9.77961e-22
1.80815e-22
-1.79151e-21
-2.93244e-21
-2.97955e-21
-2.58095e-21
-1.93646e-21
-2.79463e-21
-1.27426e-20
-1.35011e-20
-1.09714e-20
-1.11141e-20
-1.13683e-20
-8.53694e-21
-8.7156e-21
-8.21305e-21
-8.2087e-21
-1.37645e-20
-1.39191e-20
-6.12178e-21
-3.83841e-21
-1.02674e-20
-5.93858e-21
-3.82166e-21
-1.93415e-21
-2.45664e-21
-5.30185e-21
-5.47275e-21
-5.92551e-21
-8.66381e-22
-1.25211e-21
-1.61527e-21
6.63229e-22
3.75404e-22
-8.92338e-22
-1.1496e-21
8.19279e-22
9.24101e-22
-2.08021e-21
1.08916e-21
1.34513e-21
-6.08124e-22
-3.87883e-21
-6.24311e-21
-1.79878e-21
-1.5557e-21
5.34227e-22
7.95123e-22
-1.45702e-20
-1.48117e-20
-1.22753e-20
-9.75388e-21
-1.03789e-20
-1.19746e-20
-5.87741e-21
-7.00991e-21
-1.11327e-20
-1.46211e-20
-1.23837e-20
-8.2179e-21
-5.39259e-21
-5.08233e-21
-5.13388e-21
-4.61637e-21
-1.91652e-21
6.85325e-22
-7.91194e-22
-6.06825e-21
-6.12541e-21
6.54637e-23
-5.14817e-21
-5.26286e-21
-2.33783e-21
-1.18084e-21
-4.03193e-22
-5.74245e-22
5.18431e-22
1.39552e-21
-3.2767e-21
-1.41685e-21
1.05236e-21
1.35386e-21
-2.14677e-21
-5.67118e-21
-2.61913e-21
6.01386e-22
-1.50523e-22
-8.95288e-22
-1.00158e-20
-1.208e-20
-1.47352e-20
-9.77919e-21
-9.49946e-21
-1.06777e-20
-9.12106e-21
-1.20041e-20
-8.12506e-21
-1.0896e-20
-1.21517e-20
-1.02116e-20
-1.53227e-21
-6.74242e-21
-7.72379e-21
-2.22102e-21
2.79894e-21
-4.60769e-22
-2.20362e-21
-3.36487e-21
-5.54965e-21
-2.52338e-21
-3.2014e-21
-3.97853e-21
-4.4096e-21
-1.27104e-21
-1.20524e-22
-1.02036e-21
1.23814e-21
-2.78424e-22
-2.65412e-21
-7.73692e-22
5.37048e-22
-1.95868e-21
-4.25439e-21
-4.24225e-21
-2.83054e-21
3.5161e-23
-8.80798e-22
-1.33035e-21
-5.77293e-21
-1.08043e-20
-1.33114e-20
-1.21464e-20
-8.81506e-21
-1.02258e-20
-9.94199e-21
-1.08893e-20
-7.23584e-21
-1.1348e-20
-1.3076e-20
-8.75049e-21
-4.13298e-21
-4.8304e-21
-4.65486e-21
-2.82022e-22
1.19427e-21
-2.55634e-21
-1.02168e-21
3.85942e-22
-1.16273e-21
-4.79076e-21
-1.32735e-21
-6.71076e-21
-5.73886e-21
-5.29443e-21
-1.64777e-21
2.27608e-21
6.22305e-22
-4.09833e-23
1.30281e-21
-1.61016e-21
-1.20284e-21
-8.64216e-22
-3.51735e-21
-3.74076e-21
-2.87741e-21
-1.96404e-21
-1.80111e-21
-6.6505e-22
-1.08296e-20
-1.33093e-20
-1.32331e-20
-9.84099e-21
-8.59785e-21
-8.9815e-21
-1.03453e-20
-1.08067e-20
-7.96887e-21
-8.68893e-21
-1.2687e-20
-9.99076e-21
-3.05906e-21
-6.8718e-21
-7.92642e-22
-1.36053e-21
-1.129e-21
-8.28623e-22
1.92502e-21
-4.77104e-22
1.45307e-22
-3.9874e-21
-5.6845e-21
-7.5353e-21
-7.07748e-21
-6.18892e-21
-4.99392e-22
-2.65379e-22
5.58546e-22
2.7358e-21
2.35135e-21
-2.31706e-21
-3.43695e-21
-5.01466e-23
-4.66858e-22
-2.52877e-21
-2.56203e-21
-3.8627e-21
-5.33733e-22
-6.2898e-23
-6.25826e-21
-9.25199e-21
-1.22143e-20
-1.4333e-20
-1.08012e-20
-1.22718e-20
-1.08469e-20
-5.7887e-21
-7.81104e-21
-1.08149e-20
-1.3237e-20
-9.31154e-21
-2.90957e-21
-5.22781e-21
-4.97592e-21
-3.40814e-21
-1.96538e-21
-1.51802e-21
4.22068e-21
4.60548e-21
-2.95868e-21
-7.5081e-21
-4.34746e-21
-4.6498e-21
-5.48603e-21
-5.68046e-21
1.65628e-21
-3.72553e-22
-2.83224e-21
-2.88431e-22
2.34544e-21
-5.15299e-22
-1.60706e-21
-9.15264e-22
-1.03616e-21
9.43468e-22
-2.37643e-21
-5.21038e-21
-3.18489e-21
-1.47238e-21
-6.96222e-21
-1.03101e-20
-1.20383e-20
-1.34097e-20
-9.62354e-21
-1.1189e-20
-9.06691e-21
-8.71227e-21
-8.13206e-21
-8.97178e-21
-1.08927e-20
-6.99678e-21
-3.94515e-21
-3.64605e-21
-6.35426e-21
-3.71606e-21
-1.9856e-21
-1.35558e-21
3.69538e-21
3.64624e-21
-4.12243e-21
-4.52281e-21
-3.94343e-21
-7.12891e-21
-5.19602e-21
1.98018e-23
-3.01376e-22
-1.90879e-21
-1.70472e-21
-1.69502e-21
-4.27691e-22
-6.52613e-22
-1.59019e-21
-1.71118e-21
2.16825e-23
-4.29708e-22
-4.37246e-21
-2.78987e-21
-7.4958e-22
9.32083e-22
-7.07745e-21
-1.17815e-20
-1.31696e-20
-1.0763e-20
-1.24361e-20
-1.14349e-20
-8.40208e-21
-5.66018e-21
-6.22807e-21
-9.83112e-21
-1.22513e-20
-3.72353e-21
-3.1288e-21
-5.29109e-21
-3.57247e-21
-3.88174e-21
-2.10633e-21
1.37808e-21
4.28113e-22
1.49665e-21
-5.37432e-21
-5.61885e-21
-3.11764e-21
-3.9141e-21
-2.94487e-21
-1.90771e-21
-8.61184e-22
-1.67558e-21
-7.58737e-22
-2.46315e-21
2.79494e-22
1.05116e-22
-4.85117e-22
2.24044e-22
-2.07386e-21
-3.47601e-21
-2.04935e-21
-4.15383e-22
-2.68802e-22
-4.0061e-23
-4.04965e-21
-9.98829e-21
-1.35599e-20
-1.28267e-20
-1.37403e-20
-1.27931e-20
-7.51254e-21
-3.2522e-21
-5.74148e-21
-9.37715e-21
-1.06044e-20
-4.3448e-21
-2.26062e-21
-7.13504e-21
-2.60507e-21
-6.60745e-21
-3.37234e-21
-1.44813e-21
2.53033e-21
3.91815e-21
-3.28437e-21
-4.88536e-21
-4.72565e-21
-3.83418e-21
-3.84805e-21
-2.45296e-21
3.38669e-22
2.04144e-21
-7.29484e-22
-1.07162e-21
-9.67644e-22
-3.04772e-22
-4.36299e-22
-9.5422e-22
-3.82772e-21
-3.29854e-21
-6.4595e-23
1.94986e-22
4.57346e-23
9.91571e-22
-8.27599e-21
-9.87106e-21
-9.61961e-21
-1.04025e-20
-1.1568e-20
-1.0855e-20
-6.92459e-21
-5.47268e-21
-6.16969e-21
-7.81567e-21
-5.78304e-21
-4.64184e-21
-4.88032e-21
-5.60288e-21
-3.68931e-21
-4.26892e-21
-2.29992e-21
-3.26265e-22
4.63149e-23
1.3977e-21
-1.36649e-21
-5.21353e-21
-4.36365e-21
-2.1069e-21
-2.51238e-21
-1.54681e-21
-2.27506e-21
3.35671e-22
-1.24743e-21
-6.63084e-22
-2.82555e-21
1.853e-22
2.01714e-21
2.22476e-22
-3.06963e-21
-5.11734e-21
-3.30628e-21
-2.77876e-22
2.6326e-22
6.42386e-22
-1.28255e-20
-1.19712e-20
-8.90585e-21
-9.10102e-21
-9.64476e-21
-1.12026e-20
-7.69979e-21
-6.31187e-21
-5.63582e-21
-5.55143e-21
-9.30475e-22
-5.67197e-21
-7.75062e-21
-4.33348e-21
-3.97404e-21
-3.89145e-21
-1.02921e-21
9.54548e-22
3.40666e-22
6.84686e-22
1.44618e-21
-3.02786e-21
-9.57174e-21
-5.16913e-21
-2.33412e-21
-2.8079e-21
-1.95383e-21
1.19756e-21
3.4599e-22
4.92157e-22
-3.39362e-21
7.66125e-23
3.18787e-21
-1.2296e-21
-5.47216e-21
-4.73806e-21
-9.75729e-22
2.90457e-22
6.99915e-22
-3.56725e-22
-7.12502e-21
-6.78818e-21
-7.58603e-21
-7.93725e-21
-1.22235e-20
-1.15202e-20
-8.30406e-21
-7.45348e-21
-5.17976e-21
-5.06881e-21
-2.21403e-21
-1.64333e-21
-7.96866e-21
-3.88107e-21
-1.18612e-21
-4.20381e-21
-1.56187e-21
-1.20291e-21
1.97343e-21
2.2061e-22
-4.3662e-23
-2.99123e-21
-6.49679e-21
-1.48062e-21
-6.58709e-21
-5.79865e-21
-7.87697e-23
1.61001e-21
4.13145e-22
5.32481e-22
-2.82438e-21
-4.42934e-22
1.93798e-21
-1.26191e-21
-3.74652e-21
-1.39644e-21
3.13614e-22
-4.64162e-21
-1.27672e-21
-1.51282e-22
-8.18605e-21
-7.52575e-21
-7.17754e-21
-1.21492e-20
-1.20765e-20
-8.17919e-21
-6.19281e-21
-4.15297e-21
-5.03189e-21
-4.397e-21
-2.8006e-21
-5.0656e-21
-7.12245e-21
-2.764e-21
-2.136e-21
-1.8691e-21
-1.78303e-21
-8.61759e-22
1.43492e-22
1.41777e-21
2.10551e-21
-4.37943e-21
-3.80566e-21
-3.00329e-21
-5.62736e-21
-3.4658e-21
-1.48161e-21
-1.38853e-21
3.86112e-23
7.26679e-22
-1.84779e-21
-2.32164e-22
2.07147e-21
3.75033e-23
-3.64903e-22
-7.70448e-22
-1.09924e-21
7.97084e-22
-2.66663e-21
-2.67853e-21
-1.10158e-20
-7.26283e-21
-6.85805e-21
-7.79899e-21
-9.52163e-21
-1.04871e-20
-7.81927e-21
-4.30268e-21
-6.15222e-21
-4.3993e-21
-1.50582e-21
-4.87955e-21
-3.54983e-21
-1.25355e-21
-3.06902e-21
-3.08418e-21
-4.49827e-21
4.27625e-22
1.48392e-21
3.10961e-21
1.18734e-21
-3.81034e-21
-3.99698e-21
-4.14139e-21
-4.49008e-21
-2.57422e-21
-2.03266e-21
-4.19839e-21
-6.06149e-22
-1.11634e-21
-1.44493e-21
-1.04822e-21
2.64008e-21
2.94308e-22
-1.76086e-21
-5.09817e-22
-6.0542e-23
1.57156e-21
2.31412e-22
-5.54201e-22
-7.41828e-21
-6.55004e-21
-7.76107e-21
-7.5779e-21
-7.96567e-21
-1.31365e-20
-5.76359e-21
-4.25657e-21
-4.70489e-21
-5.42668e-21
-3.02486e-21
-1.99141e-21
-4.40397e-21
-1.63256e-21
-1.4505e-21
-2.67034e-21
-4.01832e-21
9.37032e-22
3.10777e-21
-1.09942e-21
-3.98994e-22
-3.01666e-21
-3.63725e-21
-3.71093e-21
-1.95103e-21
-3.85542e-23
2.86888e-22
-1.48995e-21
-3.14518e-21
-1.94471e-21
-1.60368e-21
-1.44454e-21
2.04477e-22
8.46236e-22
-8.99115e-23
-3.79654e-23
1.7613e-21
2.27739e-21
-1.40827e-21
-2.46384e-21
-6.07662e-21
-5.84053e-21
-6.01943e-21
-1.14584e-20
-9.12028e-21
-9.92966e-21
-6.819e-21
-5.29083e-21
-5.3065e-21
-4.57297e-21
-4.63178e-21
-2.17553e-21
-2.2842e-21
-2.14023e-23
-3.3461e-21
-2.56856e-21
-4.08578e-21
1.6055e-21
3.95148e-21
-1.43633e-22
2.14393e-22
-2.90609e-21
-2.34267e-21
-3.25951e-21
-3.52646e-21
-3.86973e-21
-9.95041e-22
2.59728e-23
1.28993e-22
-1.8437e-21
-3.47116e-21
-1.99715e-21
4.56059e-22
1.43776e-22
-7.36162e-22
-1.08845e-21
3.12027e-21
3.2164e-21
-3.40276e-21
-2.19482e-21
-3.99219e-21
-4.31224e-21
-9.84523e-21
-7.95331e-21
-6.92386e-21
-9.1669e-21
-6.96284e-21
-5.51106e-21
-5.01619e-21
-3.99391e-21
-1.8997e-21
-4.49618e-21
-2.20029e-21
-1.15678e-21
-2.03435e-21
-1.19731e-21
-6.23614e-22
-4.05277e-22
1.8796e-21
2.93744e-21
-1.68171e-22
-3.63041e-22
-3.0463e-21
-5.06667e-21
-1.9588e-21
-3.56808e-22
-2.50363e-21
-7.65528e-22
8.11122e-22
-2.33434e-21
-5.14262e-21
-2.05778e-21
9.73772e-22
1.26971e-22
-1.95777e-21
-3.27504e-22
5.53217e-22
2.09556e-21
-1.95007e-21
-1.55009e-21
-4.87545e-21
-5.31466e-21
-8.67268e-21
-7.23741e-21
-7.49984e-21
-8.85248e-21
-5.29397e-21
-2.84091e-21
-3.74452e-21
-4.94321e-21
-2.5107e-21
-2.48679e-21
-6.14764e-22
-4.28717e-22
-2.98686e-21
-2.67742e-21
-2.35876e-21
5.30699e-22
7.53013e-22
2.11268e-21
2.09575e-21
-1.00828e-21
-2.04402e-21
-4.36826e-21
-4.9898e-21
3.7535e-22
8.59606e-22
1.29181e-21
-1.4133e-21
-4.14298e-21
-1.10668e-21
-2.53485e-21
1.22945e-22
-2.55811e-22
2.56794e-22
-1.44346e-21
-1.58244e-21
-1.04687e-21
1.3886e-22
7.38115e-22
-6.80638e-21
-3.49004e-21
-5.69903e-21
-2.48133e-21
-1.12955e-21
-4.31795e-21
-7.20598e-21
-4.15438e-21
-1.66876e-21
-3.17811e-21
-1.81726e-21
1.30413e-21
3.57613e-23
-6.93408e-22
-1.5134e-21
-2.27826e-21
-1.52576e-21
-2.93675e-21
2.36916e-21
2.91647e-21
1.76352e-21
-3.30343e-21
-2.23547e-21
-9.71238e-22
-1.49741e-21
3.51505e-23
-6.36359e-22
7.48663e-22
1.73869e-21
2.66688e-22
-2.55739e-21
-1.23694e-21
-2.22332e-21
-2.53964e-21
6.40508e-22
-8.70138e-22
-4.33904e-21
-2.05768e-21
1.06795e-22
9.85805e-22
-3.47315e-21
-6.03391e-21
-1.00651e-20
-5.91567e-21
-4.0299e-21
-7.10163e-21
-2.52578e-21
1.07509e-21
-7.04623e-21
-6.61271e-21
-3.88797e-21
-4.33364e-21
-4.32734e-21
-2.79377e-21
-3.33168e-21
-4.30247e-21
-3.33788e-21
-2.68472e-21
3.04805e-21
1.716e-21
-9.27285e-22
-3.60221e-21
-2.77864e-21
-2.46847e-21
-3.02695e-21
-1.66782e-21
-1.37005e-21
-2.47245e-21
-3.96196e-21
-4.18929e-21
-6.28892e-21
1.03118e-21
-2.59824e-22
-2.7669e-21
-2.63394e-21
-9.83538e-22
8.07627e-22
-7.55907e-23
7.72383e-22
1.79016e-21
-5.47902e-21
-7.97123e-21
-1.29851e-20
-1.18877e-20
-6.07672e-21
-9.88819e-21
-7.96437e-21
-2.77021e-21
-6.71776e-21
-9.83054e-21
-7.63954e-21
-4.216e-21
-7.32556e-21
-4.65972e-21
-5.90408e-21
-2.9645e-21
7.12887e-22
-3.21419e-21
-5.0315e-22
-3.87856e-22
-4.89825e-23
-3.85781e-21
-3.49944e-21
-5.99831e-21
-3.74398e-21
-1.67842e-21
5.18548e-22
1.40673e-22
-2.78725e-21
-2.44111e-22
-2.24568e-21
-1.18192e-21
-3.55493e-21
-1.72259e-21
-3.59071e-21
2.81351e-22
2.49435e-22
1.86327e-22
-1.07287e-21
4.96757e-22
-7.85171e-21
-8.34094e-21
-9.78517e-21
-1.25006e-20
-1.10057e-20
-7.36419e-21
-8.04528e-21
-9.52587e-21
-1.15826e-20
-8.88369e-21
-6.43737e-21
-5.5539e-21
-3.77222e-21
-2.64018e-21
-5.27253e-21
-5.32203e-21
-4.84292e-21
-1.90041e-21
1.93149e-21
-7.94723e-23
-1.29811e-21
-4.42282e-21
-4.38271e-21
-4.09846e-21
-3.75511e-21
-2.30444e-21
-1.06381e-21
-3.1659e-21
-1.30691e-21
-1.72334e-21
-2.68519e-21
-1.8777e-21
2.94981e-23
-4.58184e-22
-5.44239e-21
1.87655e-21
1.37743e-22
2.23817e-22
-1.14472e-21
3.53908e-22
-9.91515e-21
-1.1887e-20
-1.15905e-20
-1.28724e-20
-1.16162e-20
-1.18462e-20
-8.76123e-21
-7.11165e-21
-1.07904e-20
-8.75032e-21
-7.4829e-21
-8.94548e-21
-5.41048e-21
-3.24783e-21
-5.81737e-21
-4.71902e-21
-3.46888e-21
-2.11678e-21
-1.56565e-21
2.63129e-21
-1.17425e-21
-6.62247e-21
-7.31984e-21
-4.99723e-21
-2.5792e-21
-1.55856e-21
-9.87744e-22
8.52159e-22
-2.82396e-21
-5.41753e-21
-1.63541e-21
-9.08757e-22
-9.06445e-22
-1.07436e-21
-2.4871e-21
1.20847e-21
-8.17815e-22
-2.26347e-21
-2.36133e-21
-1.7503e-21
-1.41765e-20
-1.35509e-20
-1.27575e-20
-1.11313e-20
-1.57424e-20
-1.2286e-20
-7.91439e-21
-5.20034e-21
-8.37277e-21
-1.00704e-20
-8.46412e-21
-8.92582e-21
-5.31645e-21
-4.95424e-21
-7.14973e-21
-5.51803e-21
-6.17847e-21
-1.86794e-21
-6.90658e-23
1.77797e-21
-1.07774e-21
-4.05862e-21
-7.64e-21
-4.48914e-21
-3.93313e-21
-1.43375e-21
-1.28835e-21
-2.36209e-21
-2.12297e-21
-1.62537e-21
-4.97444e-22
-1.87051e-21
2.34657e-21
-1.13501e-22
-3.34997e-21
-5.93648e-22
2.222e-22
-3.00001e-21
-3.74806e-21
-1.52183e-21
-1.53487e-20
-1.61175e-20
-1.07841e-20
-1.14815e-20
-1.46118e-20
-1.35616e-20
-8.12577e-21
-8.83054e-21
-1.01838e-20
-1.00023e-20
-8.27584e-21
-1.12986e-20
-7.65893e-21
-3.46314e-21
-6.03473e-21
-6.40564e-21
-6.53731e-21
-1.39411e-21
8.00569e-22
1.12993e-21
-1.6678e-21
-4.34262e-21
-6.29694e-21
-5.01388e-21
-5.05319e-21
-2.49486e-21
-5.05971e-22
-2.16698e-21
-3.23522e-21
-1.32712e-21
-3.18448e-21
-2.23575e-22
4.49115e-21
-1.07007e-22
-3.47494e-21
-1.18615e-21
-1.56395e-21
-1.86084e-21
3.0853e-22
2.75753e-22
-1.7819e-20
-1.80806e-20
-1.37207e-20
-1.2378e-20
-1.4925e-20
-1.17029e-20
-1.08728e-20
-8.76164e-21
-1.20839e-20
-1.12107e-20
-9.53342e-21
-9.40741e-21
-6.11563e-21
-6.38015e-21
-6.90065e-21
-6.03053e-21
-2.71971e-21
-7.93327e-22
1.26721e-21
-3.57102e-22
-2.50369e-21
-1.65736e-21
-5.98739e-21
-9.05406e-21
-4.74058e-21
-1.98795e-21
-2.28163e-21
-2.30517e-21
-5.43468e-22
-1.43611e-21
-2.5873e-21
5.36063e-22
1.55105e-21
-2.48325e-21
-5.53463e-21
-1.62532e-21
-1.46377e-21
-1.71581e-21
-3.1278e-22
-1.4609e-22
-1.48813e-20
-1.61009e-20
-1.4567e-20
-1.42986e-20
-1.4726e-20
-1.07548e-20
-1.16592e-20
-1.19126e-20
-1.33862e-20
-1.19541e-20
-8.21208e-21
-1.03311e-20
-6.81398e-21
-4.83615e-21
-8.23216e-21
-6.60856e-21
-1.96872e-21
-6.84949e-22
-5.81078e-22
-3.68819e-22
-2.00754e-21
-5.56823e-21
-7.35473e-21
-6.5631e-21
-4.52734e-21
-2.71045e-22
-5.16635e-22
-2.4457e-21
-2.23773e-21
-3.38825e-21
-5.28802e-21
1.21034e-21
3.48386e-22
-4.68606e-21
-3.31175e-21
-1.03754e-21
2.21629e-22
-1.34514e-21
-1.73399e-21
2.18913e-22
-1.66589e-20
-1.76306e-20
-1.89233e-20
-1.51641e-20
-1.3875e-20
-1.33336e-20
-1.26297e-20
-9.25649e-21
-1.16301e-20
-1.43063e-20
-9.94199e-21
-1.08112e-20
-5.84596e-21
-6.06761e-21
-8.11477e-21
-6.68979e-21
-3.67994e-21
-9.94271e-22
-3.48637e-21
-2.70748e-21
-1.38657e-21
-5.65413e-21
-7.36195e-21
-7.6233e-21
-4.11052e-21
3.45417e-22
-3.57162e-23
-1.16266e-21
2.17553e-22
-1.53708e-21
-3.1385e-21
-1.21049e-21
-3.65941e-21
-7.70109e-22
-2.36642e-21
-6.03217e-23
-7.42117e-22
-1.90315e-21
-1.6904e-21
-1.84505e-21
-1.67001e-20
-1.63343e-20
-1.76027e-20
-1.82306e-20
-1.44113e-20
-1.3642e-20
-1.48111e-20
-1.26952e-20
-9.21375e-21
-1.26492e-20
-1.17917e-20
-8.55835e-21
-6.26457e-21
-6.88055e-21
-8.40079e-21
-6.97446e-21
-5.04312e-21
-3.43574e-21
-7.6076e-22
-4.2633e-23
-5.15101e-21
-7.20284e-21
-6.91326e-21
-8.3762e-21
-5.50981e-21
-2.41198e-22
2.5548e-21
-1.04774e-21
-7.28222e-22
-2.99332e-21
-1.19247e-21
-1.35205e-21
-2.75495e-21
-1.13246e-21
-2.46296e-21
-6.20972e-22
9.01376e-22
-1.16251e-21
-8.84383e-23
-7.24416e-22
-1.65466e-20
-1.89449e-20
-2.05043e-20
-1.75591e-20
-1.44782e-20
-1.26655e-20
-1.52616e-20
-1.54071e-20
-1.05056e-20
-1.09018e-20
-1.14281e-20
-1.06868e-20
-5.65846e-21
-6.12408e-21
-8.33686e-21
-7.82597e-21
-5.45308e-21
-1.57671e-21
1.18891e-21
8.08096e-22
-6.89965e-21
-6.69757e-21
-7.03242e-21
-1.09314e-20
-4.07922e-21
9.36633e-22
1.51451e-21
-5.8411e-22
1.01721e-21
-2.56437e-21
-3.88813e-21
-2.00852e-21
-1.01028e-21
-1.26715e-21
-2.90195e-21
-1.82522e-21
-1.34481e-21
-1.55884e-21
-2.67431e-21
-2.93817e-21
-1.97578e-20
-2.09165e-20
-1.92906e-20
-1.71142e-20
-1.34618e-20
-1.49752e-20
-1.64024e-20
-1.39096e-20
-9.28595e-21
-1.29577e-20
-1.21089e-20
-1.02191e-20
-1.0039e-20
-6.29161e-21
-7.89658e-21
-6.29039e-21
-7.36978e-21
-5.87718e-22
1.75339e-21
-7.77827e-22
-3.82944e-21
-6.82165e-21
-6.85587e-21
-8.62485e-21
-1.08903e-21
-2.41612e-21
-6.68304e-22
2.48529e-23
1.4156e-21
-3.30375e-21
-3.51491e-21
-2.87267e-21
-5.95946e-22
-4.35806e-22
-3.61078e-21
-1.09739e-21
-1.00959e-22
-2.98269e-21
-4.25499e-21
-2.04755e-21
-2.26872e-20
-2.09237e-20
-1.75513e-20
-1.7762e-20
-1.76365e-20
-1.53511e-20
-1.41987e-20
-1.26113e-20
-1.31047e-20
-1.43343e-20
-1.11024e-20
-9.30835e-21
-9.26283e-21
-6.94449e-21
-9.02833e-21
-6.78233e-21
-4.1768e-21
-1.17072e-21
-2.26339e-21
-1.37723e-21
-4.64544e-21
-3.05802e-21
-6.02983e-21
-6.31392e-21
-4.15938e-21
-1.23481e-21
3.93352e-22
9.87852e-22
3.38669e-22
-1.8357e-21
-3.38572e-21
-2.74837e-21
-7.16896e-22
-2.76734e-21
-6.3013e-21
4.19656e-22
-8.29771e-22
-3.10413e-21
-2.06542e-21
5.54682e-22
-2.40736e-20
-2.21166e-20
-1.83856e-20
-1.94613e-20
-1.57793e-20
-1.46145e-20
-1.43699e-20
-1.17306e-20
-1.38643e-20
-1.51809e-20
-1.32514e-20
-8.55549e-21
-1.14244e-20
-8.53312e-21
-8.20034e-21
-8.55024e-21
-6.26171e-21
-1.60468e-21
-5.02087e-22
1.08244e-22
-4.85004e-21
-6.36489e-21
-4.86607e-21
-5.805e-21
-5.02077e-21
-3.48978e-22
4.13206e-22
1.1936e-21
1.07952e-21
-1.37815e-21
-2.45166e-21
-2.20871e-21
-9.55959e-22
-4.08087e-21
-3.37424e-21
-1.86909e-21
-1.38331e-22
-6.81673e-22
-2.9612e-21
1.29691e-21
-2.48953e-20
-2.18266e-20
-1.75842e-20
-1.59257e-20
-1.50328e-20
-1.37743e-20
-1.66123e-20
-1.42569e-20
-1.29491e-20
-1.58841e-20
-1.24269e-20
-9.88979e-21
-1.17067e-20
-9.14901e-21
-7.56702e-21
-7.46691e-21
-2.33047e-21
-1.99139e-21
-4.2504e-21
-2.26228e-21
-4.43462e-21
-6.8461e-21
-7.45491e-21
-3.86598e-21
-1.48635e-21
-9.93205e-22
1.85306e-23
5.2877e-22
1.49724e-21
-1.47957e-21
-4.50229e-21
-2.35912e-21
-8.81663e-22
-2.80178e-21
-4.8182e-21
-8.86279e-22
-6.32347e-22
-1.34222e-21
-1.37055e-21
7.79834e-22
-2.15649e-20
-1.86782e-20
-2.08847e-20
-1.63089e-20
-1.56369e-20
-1.68596e-20
-1.61923e-20
-1.67694e-20
-1.34351e-20
-1.31237e-20
-1.31905e-20
-1.28327e-20
-1.36521e-20
-6.94841e-21
-5.77076e-21
-6.4348e-21
-3.07478e-21
-3.5137e-21
-3.9136e-21
-4.09537e-21
-5.23915e-21
-7.98144e-21
-7.37409e-21
-1.92772e-21
-1.67427e-22
-2.02995e-21
-3.00247e-22
7.52165e-22
-1.45765e-22
-7.35094e-23
-2.31814e-21
-2.72643e-21
-8.45086e-22
-3.31281e-21
-4.80374e-21
-1.15525e-21
-1.39004e-21
-2.37241e-21
-1.84108e-21
-9.10454e-22
-1.96596e-20
-1.83877e-20
-1.86423e-20
-1.5635e-20
-1.68393e-20
-1.88458e-20
-1.6557e-20
-1.62152e-20
-1.29406e-20
-1.31029e-20
-1.22463e-20
-1.33634e-20
-1.30241e-20
-1.0387e-20
-6.48374e-21
-2.81969e-21
-2.86225e-21
-2.79502e-21
-8.034e-21
-7.2015e-21
-6.35743e-21
-4.49249e-21
-2.88815e-21
-2.09091e-21
1.34812e-21
-1.49668e-21
2.51579e-22
9.07599e-22
-6.24005e-22
-7.73573e-22
-3.50804e-21
-1.05493e-21
-9.74831e-22
-3.75093e-21
-5.1362e-21
-4.02269e-21
-1.94091e-21
-1.34604e-21
-6.70334e-22
6.73131e-22
-1.92585e-20
-1.83295e-20
-2.1726e-20
-1.69673e-20
-1.49376e-20
-1.80717e-20