/*--------------------------------*- C++ -*----------------------------------*\
| =========                 |                                                 |
| \\      /  F ield         | OpenFOAM: The Open Source CFD Toolbox           |
|  \\    /   O peration     | Version:  v2012                                 |
|   \\  /    A nd           | Website:  www.openfoam.com                      |
|    \\/     M anipulation  |                                                 |
\*---------------------------------------------------------------------------*/
FoamFile
{
    version     2.0;
    format      ascii;
    class       surfaceScalarField;
    location    "16";
    object      phi;
}
// * * * * * * * * * * * * * * * * * * * * * * * * * * * * * * * * * * * * * //

dimensions      [0 3 -1 0 0 0 0];
oriented        oriented;


internalField   nonuniform List<scalar> 
187200
(
1.875e-06
2.24594e-22
1.71056e-22
1.875e-06
2.5244e-22
2.27774e-22
1.875e-06
3.22253e-22
3.77674e-22
1.875e-06
2.35025e-22
2.56266e-22
1.875e-06
2.22918e-22
1.26361e-22
1.875e-06
3.48648e-22
2.38208e-22
1.875e-06
2.16174e-22
1.22459e-22
1.875e-06
1.00851e-22
8.707e-23
1.875e-06
1.23694e-22
2.36561e-22
1.875e-06
1.92584e-22
2.0347e-22
1.875e-06
1.63048e-22
1.11876e-22
1.875e-06
1.50836e-22
1.49644e-22
1.875e-06
1.10134e-22
1.4073e-22
1.875e-06
2.04854e-23
4.98437e-23
1.875e-06
7.03918e-23
1.15578e-22
1.875e-06
1.02368e-22
8.20326e-23
1.875e-06
1.07755e-22
1.00551e-22
1.875e-06
5.41367e-23
9.62223e-23
1.875e-06
2.01839e-22
-2.11759e-23
1.875e-06
1.45834e-22
-7.78661e-23
1.875e-06
-9.83414e-23
-7.3648e-23
1.875e-06
-7.41325e-23
-7.2991e-23
1.875e-06
1.57189e-22
4.6822e-23
1.875e-06
2.34965e-22
1.07892e-22
1.875e-06
1.55703e-22
8.2791e-24
1.875e-06
-6.43369e-24
2.5712e-23
1.875e-06
3.45436e-23
1.21511e-22
1.875e-06
6.77458e-23
1.03181e-22
1.875e-06
2.8175e-23
1.24633e-22
1.875e-06
-6.14821e-23
1.4051e-22
1.875e-06
-1.67137e-22
1.78639e-22
1.875e-06
-1.38647e-23
3.46583e-23
1.875e-06
1.13657e-22
3.11414e-23
1.875e-06
-1.00533e-22
-1.05329e-23
1.875e-06
-1.04022e-22
6.00541e-24
1.875e-06
-4.72414e-23
-8.48437e-23
1.875e-06
-3.97594e-23
-1.23477e-22
1.875e-06
-1.10212e-22
-9.95658e-24
1.875e-06
1.28108e-23
4.17502e-23
2.8735e-23
-3.06856e-23
1.875e-06
3.27075e-23
1.31041e-22
1.875e-06
4.77884e-23
3.5498e-22
1.875e-06
2.90092e-22
5.18344e-22
1.875e-06
2.62164e-22
5.73259e-22
1.875e-06
1.83474e-22
3.60601e-22
1.875e-06
1.96088e-22
3.8321e-22
1.875e-06
2.25133e-22
4.10424e-22
1.875e-06
2.84827e-22
3.94136e-22
1.875e-06
2.66533e-22
4.46956e-22
1.875e-06
1.09956e-22
4.64791e-22
1.875e-06
1.10816e-22
4.15091e-22
1.875e-06
1.34221e-22
2.6856e-22
1.875e-06
1.16572e-22
3.45258e-22
1.875e-06
9.40872e-23
2.79467e-22
1.875e-06
-1.20122e-23
2.51909e-22
1.875e-06
-5.08119e-23
7.19921e-23
1.875e-06
1.61569e-22
-1.47899e-23
1.875e-06
1.73841e-22
1.74499e-22
1.875e-06
1.34452e-22
1.05302e-22
1.875e-06
1.21556e-22
-4.12794e-23
1.875e-06
7.79632e-23
3.72548e-23
1.875e-06
-5.1487e-23
5.58837e-23
1.875e-06
5.68274e-23
1.62438e-23
1.875e-06
1.2486e-22
1.09686e-22
1.875e-06
-3.99296e-23
4.48714e-24
1.875e-06
1.05671e-22
1.2421e-22
1.875e-06
1.27731e-22
9.05865e-23
1.875e-06
3.14739e-23
-5.01259e-24
1.875e-06
-2.75738e-23
1.23413e-22
1.875e-06
3.48669e-23
1.76513e-22
1.875e-06
-2.50925e-24
2.21643e-22
1.875e-06
-1.84862e-24
9.88623e-23
1.875e-06
-2.16511e-23
3.17353e-23
1.875e-06
-9.68609e-23
2.81331e-23
1.875e-06
-9.34924e-23
3.74685e-23
1.875e-06
-1.07152e-22
-1.41292e-23
1.875e-06
-1.09999e-22
-9.68555e-23
1.875e-06
6.57136e-24
-3.78801e-23
1.875e-06
6.63548e-23
6.618e-23
3.95256e-23
1.77367e-23
1.875e-06
1.93133e-22
2.59426e-22
1.875e-06
2.27567e-22
4.93771e-22
1.875e-06
6.14288e-23
4.42979e-22
1.875e-06
2.17591e-22
6.41342e-22
1.875e-06
2.56854e-22
5.94014e-22
1.875e-06
2.37941e-22
3.99879e-22
1.875e-06
1.60339e-22
4.84606e-22
1.875e-06
1.31959e-22
5.83465e-22
1.875e-06
1.53817e-22
6.30673e-22
1.875e-06
1.79753e-22
5.97141e-22
1.875e-06
1.84344e-22
4.81687e-22
1.875e-06
1.39203e-22
3.10935e-22
1.875e-06
1.80574e-22
2.87991e-22
1.875e-06
7.83547e-23
2.81181e-22
1.875e-06
1.34077e-22
3.65771e-22
1.875e-06
1.42844e-22
2.70404e-22
1.875e-06
2.21812e-23
7.78444e-23
1.875e-06
1.55875e-23
8.27984e-23
1.875e-06
1.30169e-23
-9.75247e-23
1.875e-06
-2.75439e-23
-5.31819e-23
1.875e-06
-3.40232e-23
1.63971e-22
1.875e-06
2.49742e-23
2.1022e-22
1.875e-06
1.7212e-22
5.4171e-23
1.875e-06
1.13121e-22
2.64036e-23
1.875e-06
7.77346e-23
1.43754e-22
1.875e-06
6.96701e-23
1.27468e-22
1.875e-06
4.49566e-24
5.48086e-23
1.875e-06
-6.40114e-23
7.26652e-23
1.875e-06
3.23864e-23
1.68731e-22
1.875e-06
6.124e-23
2.00084e-22
1.875e-06
-2.62402e-23
2.23709e-22
1.875e-06
-3.88508e-23
1.4534e-22
1.875e-06
-5.06721e-23
-2.08073e-23
1.875e-06
-3.07128e-23
6.97718e-23
1.875e-06
-1.33236e-22
1.5095e-22
1.875e-06
-1.2373e-22
-6.52209e-23
1.875e-06
-3.75962e-23
-2.85353e-23
1.875e-06
4.50994e-23
2.61315e-23
1.875e-06
1.10295e-22
1.6164e-24
1.06497e-22
-2.58282e-24
1.875e-06
2.51724e-22
2.61418e-22
1.875e-06
1.95933e-22
5.42413e-22
1.875e-06
1.33157e-22
6.29452e-22
1.875e-06
5.40816e-23
6.14486e-22
1.875e-06
1.59481e-22
5.61875e-22
1.875e-06
1.55633e-22
5.07633e-22
1.875e-06
1.68491e-22
5.92857e-22
1.875e-06
1.02523e-22
6.05278e-22
1.875e-06
1.09651e-22
6.23895e-22
1.875e-06
1.65406e-22
5.78809e-22
1.875e-06
1.39188e-22
5.38156e-22
1.875e-06
1.21646e-22
4.97683e-22
1.875e-06
8.35537e-23
3.1325e-22
1.875e-06
6.92115e-23
3.27994e-22
1.875e-06
1.76663e-22
3.30942e-22
1.875e-06
1.90981e-22
2.01779e-22
1.875e-06
6.4047e-23
1.15851e-22
1.875e-06
-1.07586e-22
1.17746e-22
1.875e-06
-1.19522e-22
2.0434e-23
1.875e-06
2.44712e-23
-9.13895e-23
1.875e-06
8.58014e-24
2.16021e-22
1.875e-06
1.2339e-22
3.07351e-22
1.875e-06
1.28002e-22
3.19458e-23
1.875e-06
8.4493e-23
6.47146e-23
1.875e-06
4.2078e-23
1.12598e-22
1.875e-06
-5.67836e-24
1.02494e-22
1.875e-06
-2.19466e-23
7.58091e-23
1.875e-06
4.0106e-23
4.67656e-23
1.875e-06
5.58789e-23
1.62828e-22
1.875e-06
-5.05786e-23
2.54589e-22
1.875e-06
5.84984e-24
2.48717e-22
1.875e-06
4.78308e-23
1.39504e-22
1.875e-06
-1.07557e-22
1.22723e-23
1.875e-06
-6.03683e-23
1.08128e-22
1.875e-06
5.77329e-23
1.82802e-22
1.875e-06
-1.46067e-23
-9.08219e-24
1.875e-06
3.06104e-23
3.88319e-23
1.875e-06
1.83801e-23
6.43296e-23
1.875e-06
4.83172e-23
1.1348e-23
7.33811e-23
3.09032e-23
1.875e-06
8.89006e-24
1.99532e-22
1.875e-06
1.53735e-22
6.09897e-22
1.875e-06
9.81656e-23
6.644e-22
1.875e-06
1.27508e-22
6.31027e-22
1.875e-06
7.64091e-23
6.9242e-22
1.875e-06
7.05743e-23
5.82244e-22
1.875e-06
1.19882e-22
6.14807e-22
1.875e-06
3.20614e-22
6.50481e-22
1.875e-06
1.96345e-22
6.14849e-22
1.875e-06
9.858e-23
5.87559e-22
1.875e-06
7.803e-23
5.728e-22
1.875e-06
1.19356e-22
5.34574e-22
1.875e-06
1.64974e-22
3.81292e-22
1.875e-06
1.04815e-22
3.80031e-22
1.875e-06
3.62763e-23
2.8573e-22
1.875e-06
3.09246e-23
1.46857e-22
1.875e-06
1.64845e-23
1.8825e-22
1.875e-06
-6.4062e-23
2.3772e-22
1.875e-06
-1.08003e-22
1.1608e-22
1.875e-06
-6.55301e-23
-3.69412e-23
1.875e-06
2.76754e-23
2.24657e-22
1.875e-06
1.17265e-22
1.74684e-22
1.875e-06
1.14329e-22
2.74462e-23
1.875e-06
1.02147e-22
4.13265e-23
1.875e-06
1.07132e-22
1.98147e-22
1.875e-06
2.25708e-23
1.65457e-22
1.875e-06
5.76156e-23
1.15276e-22
1.875e-06
-1.24916e-23
1.08837e-22
1.875e-06
-8.87777e-23
7.94486e-23
1.875e-06
3.79035e-23
1.6478e-22
1.875e-06
1.74525e-22
2.5103e-22
1.875e-06
8.75642e-23
1.20122e-22
1.875e-06
-1.43741e-24
-2.83074e-23
1.875e-06
1.6074e-23
3.14007e-23
1.875e-06
2.12006e-23
7.17913e-23
1.875e-06
2.98664e-23
6.59887e-23
1.875e-06
3.15872e-23
-1.1443e-23
1.875e-06
8.21858e-23
1.04414e-22
1.875e-06
-2.58945e-23
5.24654e-23
-6.36372e-23
-2.02264e-23
1.875e-06
2.45105e-23
3.37914e-22
1.875e-06
1.18871e-22
6.74006e-22
1.875e-06
5.88328e-23
5.7871e-22
1.875e-06
7.42535e-23
6.01729e-22
1.875e-06
1.11981e-22
7.44631e-22
1.875e-06
1.54603e-22
7.19257e-22
1.875e-06
1.46518e-22
6.54272e-22
1.875e-06
1.90547e-22
6.5055e-22
1.875e-06
2.04358e-22
6.78628e-22
1.875e-06
1.12598e-22
6.11032e-22
1.875e-06
1.12552e-22
5.5175e-22
1.875e-06
1.27105e-22
5.86079e-22
1.875e-06
9.38827e-24
4.36431e-22
1.875e-06
1.49834e-22
3.60342e-22
1.875e-06
1.27542e-22
3.31365e-22
1.875e-06
1.20601e-23
2.58101e-22
1.875e-06
-5.72821e-23
2.00411e-22
1.875e-06
-5.16225e-23
2.84256e-22
1.875e-06
-1.08819e-22
1.77619e-22
1.875e-06
-6.06511e-23
8.70615e-23
1.875e-06
1.6638e-22
3.02212e-22
1.875e-06
1.61677e-22
1.37997e-22
1.875e-06
1.17681e-22
-2.10359e-23
1.875e-06
8.29478e-23
5.69698e-23
1.875e-06
4.20004e-23
2.10254e-22
1.875e-06
6.81987e-23
1.84823e-22
1.875e-06
2.14432e-24
3.77758e-23
1.875e-06
-7.00607e-23
8.37607e-23
1.875e-06
-9.6081e-23
1.39171e-22
1.875e-06
-4.28478e-23
1.18579e-22
1.875e-06
9.80084e-23
1.7164e-22
1.875e-06
2.64862e-23
5.78273e-23
1.875e-06
6.99947e-23
-1.27475e-22
1.875e-06
1.21872e-22
6.8727e-24
1.875e-06
7.76722e-23
8.79254e-23
1.875e-06
3.60615e-23
5.97219e-23
1.875e-06
1.74413e-23
-1.76371e-23
1.875e-06
-2.07011e-24
-1.88304e-23
1.875e-06
8.49454e-23
-6.00307e-23
5.43183e-23
4.66263e-25
1.875e-06
4.01792e-23
3.79675e-22
1.875e-06
2.54216e-23
6.39262e-22
1.875e-06
1.57817e-22
7.36273e-22
1.875e-06
9.13202e-23
7.09639e-22
1.875e-06
1.47912e-22
7.74583e-22
1.875e-06
5.65036e-23
6.7319e-22
1.875e-06
1.25967e-22
7.55331e-22
1.875e-06
2.48414e-22
6.75299e-22
1.875e-06
2.01381e-22
7.51563e-22
1.875e-06
1.53582e-22
7.27409e-22
1.875e-06
1.52047e-22
6.0588e-22
1.875e-06
1.33888e-22
5.324e-22
1.875e-06
1.35057e-22
4.1889e-22
1.875e-06
1.56156e-22
4.14211e-22
1.875e-06
8.32203e-23
3.5872e-22
1.875e-06
3.89746e-23
2.69955e-22
1.875e-06
-1.44185e-23
2.42345e-22
1.875e-06
3.21429e-23
2.97488e-22
1.875e-06
6.72724e-23
2.07274e-22
1.875e-06
6.20839e-23
1.80637e-22
1.875e-06
1.36527e-22
2.09245e-22
1.875e-06
9.95262e-23
2.51106e-23
1.875e-06
-2.80699e-23
-3.47738e-23
1.875e-06
-2.71814e-23
1.91687e-22
1.875e-06
8.90779e-24
2.02384e-22
1.875e-06
7.61375e-23
1.07891e-22
1.875e-06
2.36932e-23
7.44897e-23
1.875e-06
-2.69975e-23
1.41456e-22
1.875e-06
-6.58423e-23
1.06345e-22
1.875e-06
-1.39776e-23
1.05415e-22
1.875e-06
1.80455e-23
6.29077e-23
1.875e-06
4.80002e-23
2.87023e-23
1.875e-06
7.22653e-23
-7.02442e-23
1.875e-06
1.50033e-22
6.15925e-23
1.875e-06
8.28063e-23
1.09615e-22
1.875e-06
6.033e-23
3.28336e-23
1.875e-06
3.3143e-24
-9.91166e-23
1.875e-06
3.32803e-23
-1.12862e-22
1.875e-06
-1.48319e-22
-1.74137e-22
-8.18376e-23
-1.09763e-22
1.875e-06
1.33621e-22
2.79385e-22
1.875e-06
1.05124e-22
5.96055e-22
1.875e-06
1.43745e-22
7.05274e-22
1.875e-06
2.223e-22
8.33246e-22
1.875e-06
3.81347e-23
7.87893e-22
1.875e-06
1.60592e-22
7.48995e-22
1.875e-06
2.07254e-22
8.28877e-22
1.875e-06
2.5273e-25
7.02472e-22
1.875e-06
9.00856e-23
7.34718e-22
1.875e-06
2.96148e-22
7.69831e-22
1.875e-06
1.48797e-22
5.37821e-22
1.875e-06
9.3843e-24
5.06256e-22
1.875e-06
-6.58962e-23
3.72841e-22
1.875e-06
7.62272e-23
2.86904e-22
1.875e-06
9.13985e-23
4.50195e-22
1.875e-06
5.93424e-23
3.28375e-22
1.875e-06
1.25537e-22
2.40789e-22
1.875e-06
7.98536e-23
2.98128e-22
1.875e-06
1.48596e-22
2.28882e-22
1.875e-06
1.24998e-22
1.34912e-22
1.875e-06
8.84105e-23
1.13653e-22
1.875e-06
4.32674e-23
1.23956e-22
1.875e-06
-4.29889e-23
1.22127e-22
1.875e-06
4.49756e-23
2.37601e-22
1.875e-06
-4.4702e-23
2.38216e-22
1.875e-06
-5.81572e-23
2.02239e-23
1.875e-06
3.37648e-23
1.58706e-23
1.875e-06
8.73685e-24
1.5818e-22
1.875e-06
-2.22255e-23
1.69621e-22
1.875e-06
-2.51024e-23
1.57945e-22
1.875e-06
-1.76178e-22
1.23076e-22
1.875e-06
-6.34826e-23
-2.00986e-23
1.875e-06
1.35795e-22
3.15136e-23
1.875e-06
4.8344e-23
6.40108e-23
1.875e-06
1.11235e-22
-2.13949e-23
1.875e-06
1.43768e-22
-1.10575e-22
1.875e-06
-3.03194e-23
-2.60301e-22
1.875e-06
-1.79296e-22
-2.60432e-22
1.875e-06
-1.65722e-22
-1.47021e-22
-1.06247e-22
-1.98034e-22
1.875e-06
-2.39507e-22
1.88996e-22
1.875e-06
-3.62518e-23
6.50261e-22
1.875e-06
1.13542e-22
7.84898e-22
1.875e-06
9.66744e-23
7.90996e-22
1.875e-06
1.10404e-22
8.85507e-22
1.875e-06
1.40762e-22
8.37353e-22
1.875e-06
1.5931e-22
8.72175e-22
1.875e-06
1.61938e-22
7.49794e-22
1.875e-06
1.1505e-22
7.53508e-22
1.875e-06
9.95676e-23
6.21735e-22
1.875e-06
1.35316e-22
5.69878e-22
1.875e-06
-1.32577e-23
5.52509e-22
1.875e-06
4.54475e-23
4.48821e-22
1.875e-06
-2.81947e-23
2.91475e-22
1.875e-06
5.44061e-23
4.0631e-22
1.875e-06
6.92741e-23
3.72796e-22
1.875e-06
1.49538e-22
2.85055e-22
1.875e-06
1.81453e-22
3.28152e-22
1.875e-06
-2.93501e-23
2.24814e-22
1.875e-06
2.63373e-23
1.72361e-22
1.875e-06
5.6559e-23
1.31881e-22
1.875e-06
-3.5433e-24
1.53201e-22
1.875e-06
7.80592e-23
1.81444e-22
1.875e-06
-8.11274e-24
2.2044e-22
1.875e-06
8.83869e-23
2.79366e-22
1.875e-06
-1.39444e-23
7.78763e-23
1.875e-06
-8.6319e-23
-6.64609e-24
1.875e-06
-9.40959e-24
7.40214e-23
1.875e-06
7.93274e-23
1.4308e-22
1.875e-06
4.11463e-24
1.41539e-22
1.875e-06
-1.25414e-23
1.54685e-22
1.875e-06
-5.35987e-23
7.34944e-23
1.875e-06
-1.42322e-22
-1.07739e-23
1.875e-06
-7.71992e-23
-6.62406e-23
1.875e-06
2.07162e-23
-1.5157e-22
1.875e-06
1.65212e-22
-3.38826e-22
1.875e-06
6.13148e-23
-2.75913e-22
1.875e-06
-9.08658e-23
-2.10968e-22
1.875e-06
-1.24462e-22
-8.13765e-23
-6.1326e-23
-3.37269e-23
1.875e-06
-2.92559e-23
4.78689e-22
1.875e-06
5.26163e-23
6.67381e-22
1.875e-06
5.6127e-23
7.94487e-22
1.875e-06
1.62486e-22
9.41824e-22
1.875e-06
1.33312e-22
9.60227e-22
1.875e-06
8.18683e-23
8.34313e-22
1.875e-06
2.54383e-22
9.36657e-22
1.875e-06
8.83399e-23
8.39503e-22
1.875e-06
8.35326e-23
6.64093e-22
1.875e-06
1.02204e-22
5.66015e-22
1.875e-06
1.03771e-22
5.83441e-22
1.875e-06
1.51586e-23
5.09453e-22
1.875e-06
2.36257e-23
4.46576e-22
1.875e-06
-1.74397e-24
4.28354e-22
1.875e-06
-2.04695e-23
4.36028e-22
1.875e-06
1.24561e-22
4.061e-22
1.875e-06
1.59526e-22
3.11023e-22
1.875e-06
-2.73647e-23
3.43535e-22
1.875e-06
-6.44729e-23
2.08754e-22
1.875e-06
1.25934e-23
1.4986e-22
1.875e-06
5.72045e-23
2.52322e-22
1.875e-06
2.05795e-22
2.92711e-22
1.875e-06
2.64934e-24
1.63438e-22
1.875e-06
3.69481e-23
3.12724e-22
1.875e-06
1.55958e-23
2.54472e-22
1.875e-06
-3.33864e-24
1.02671e-22
1.875e-06
-9.85988e-23
6.42689e-24
1.875e-06
-4.48794e-23
1.78689e-23
1.875e-06
2.63789e-23
4.4555e-23
1.875e-06
1.96555e-23
1.31577e-22
1.875e-06
6.06609e-23
1.00008e-22
1.875e-06
-5.20508e-23
6.95056e-23
1.875e-06
-4.13458e-23
5.27615e-23
1.875e-06
-1.04575e-22
-3.19529e-23
1.875e-06
-8.11595e-23
-1.01891e-22
1.875e-06
2.62151e-23
-3.88588e-22
1.875e-06
5.42153e-23
-3.49932e-22
1.875e-06
4.73234e-23
-2.17621e-22
1.875e-06
1.06495e-22
-1.78832e-22
1.94908e-23
-1.25083e-22
1.875e-06
1.42551e-22
5.43008e-22
1.875e-06
1.44299e-22
7.89814e-22
1.875e-06
1.21929e-22
9.38676e-22
1.875e-06
5.1356e-23
9.10309e-22
1.875e-06
1.40108e-22
9.73394e-22
1.875e-06
1.86704e-22
8.75705e-22
1.875e-06
5.9107e-23
8.41666e-22
1.875e-06
1.82527e-22
9.18402e-22
1.875e-06
2.90435e-23
6.64483e-22
1.875e-06
2.68631e-23
4.6517e-22
1.875e-06
1.63132e-22
5.41764e-22
1.875e-06
8.92256e-23
5.97664e-22
1.875e-06
3.27579e-23
5.07739e-22
1.875e-06
9.97894e-23
4.87715e-22
1.875e-06
4.23367e-23
5.17302e-22
1.875e-06
-2.46036e-24
4.16646e-22
1.875e-06
-7.61723e-23
2.79822e-22
1.875e-06
7.31373e-25
3.16485e-22
1.875e-06
1.09599e-22
2.93409e-22
1.875e-06
9.04173e-23
1.18674e-22
1.875e-06
7.75485e-23
2.70699e-22
1.875e-06
3.0632e-24
1.54091e-22
1.875e-06
-8.65417e-25
2.3668e-22
1.875e-06
-2.55239e-23
3.38464e-22
1.875e-06
2.61691e-23
1.70719e-22
1.875e-06
-1.00666e-22
3.40689e-23
1.875e-06
-1.19382e-22
8.74566e-23
1.875e-06
3.55848e-24
1.02706e-22
1.875e-06
9.31221e-23
-4.83497e-23
1.875e-06
-3.63695e-23
2.36729e-23
1.875e-06
-8.74042e-23
7.13244e-23
1.875e-06
7.35166e-23
7.42053e-23
1.875e-06
-1.04654e-22
-2.59161e-23
1.875e-06
-1.28873e-22
1.43604e-23
1.875e-06
-3.67126e-23
-4.44812e-23
1.875e-06
-1.6299e-22
-3.67318e-22
1.875e-06
-4.69559e-23
-2.89781e-22
1.875e-06
3.64409e-23
-2.06714e-22
1.875e-06
9.75107e-23
-1.22139e-22
1.20927e-22
-5.26541e-24
1.875e-06
1.82945e-22
5.78564e-22
1.875e-06
1.68001e-22
8.07923e-22
1.875e-06
1.06115e-22
9.02651e-22
1.875e-06
1.14319e-22
9.40167e-22
1.875e-06
9.51329e-23
9.26804e-22
1.875e-06
9.26276e-23
9.00071e-22
1.875e-06
1.4864e-22
8.86095e-22
1.875e-06
1.00839e-22
8.32797e-22
1.875e-06
1.67804e-22
6.51035e-22
1.875e-06
9.1744e-23
5.72478e-22
1.875e-06
-2.85208e-23
4.9702e-22
1.875e-06
3.16653e-23
5.89813e-22
1.875e-06
1.22931e-22
6.30542e-22
1.875e-06
1.48471e-22
4.61833e-22
1.875e-06
5.98567e-23
5.16237e-22
1.875e-06
-4.77088e-23
3.91022e-22
1.875e-06
-2.09673e-23
4.5221e-22
1.875e-06
5.61863e-23
3.12521e-22
1.875e-06
1.26679e-22
2.33307e-22
1.875e-06
9.78622e-23
1.53453e-22
1.875e-06
2.32746e-23
1.78506e-22
1.875e-06
-8.69071e-23
1.72663e-22
1.875e-06
-3.52588e-23
1.85538e-22
1.875e-06
-7.90057e-23
2.38938e-22
1.875e-06
-1.22932e-22
4.30423e-23
1.875e-06
-5.15936e-23
1.33881e-22
1.875e-06
-8.45428e-24
1.74323e-22
1.875e-06
1.81798e-23
4.72123e-23
1.875e-06
-8.88722e-23
-1.30027e-22
1.875e-06
-7.05903e-23
7.14499e-23
1.875e-06
4.75532e-23
1.11568e-22
1.875e-06
-3.20919e-23
2.75372e-23
1.875e-06
-1.42521e-23
2.00605e-23
1.875e-06
5.31187e-23
1.92008e-23
1.875e-06
-5.76346e-23
-8.29249e-23
1.875e-06
-7.85193e-23
-2.68785e-22
1.875e-06
-1.02611e-23
-2.82889e-22
1.875e-06
8.61513e-23
-1.01727e-22
1.875e-06
7.01029e-23
-9.73678e-23
1.89902e-23
-1.28427e-22
1.875e-06
1.41227e-22
5.55427e-22
1.875e-06
1.79524e-22
7.85722e-22
1.875e-06
8.85723e-23
8.66187e-22
1.875e-06
4.91337e-23
9.68018e-22
1.875e-06
-1.41014e-24
1.04424e-21
1.875e-06
-3.77473e-23
8.62193e-22
1.875e-06
-2.52052e-23
7.80891e-22
1.875e-06
1.05204e-23
7.58706e-22
1.875e-06
1.13101e-22
6.82496e-22
1.875e-06
1.86111e-22
6.00692e-22
1.875e-06
8.88649e-23
5.65756e-22
1.875e-06
6.54568e-23
6.27888e-22
1.875e-06
1.49105e-22
5.81072e-22
1.875e-06
1.44344e-22
4.42536e-22
1.875e-06
5.81766e-23
5.4e-22
1.875e-06
-1.74706e-23
4.39251e-22
1.875e-06
-8.52719e-23
3.54366e-22
1.875e-06
-3.68454e-23
3.46178e-22
1.875e-06
5.14497e-23
2.8326e-22
1.875e-06
5.73507e-23
2.02206e-22
1.875e-06
1.05111e-22
2.45144e-22
1.875e-06
6.95874e-23
1.72052e-22
1.875e-06
-5.52033e-24
2.04561e-22
1.875e-06
2.23634e-23
2.06611e-22
1.875e-06
-1.17794e-22
1.57994e-22
1.875e-06
-4.60108e-23
1.02935e-22
1.875e-06
7.64533e-23
3.6715e-23
1.875e-06
7.31265e-24
-4.33208e-23
1.875e-06
-1.65723e-22
-3.4494e-23
1.875e-06
-1.96258e-22
6.73377e-23
1.875e-06
-1.08027e-22
1.49715e-23
1.875e-06
5.79749e-23
1.45551e-23
1.875e-06
1.29345e-23
-1.2153e-23
1.875e-06
-4.41915e-24
-5.89019e-24
1.875e-06
-9.41089e-23
-7.312e-25
1.875e-06
-5.06802e-23
-2.64459e-22
1.875e-06
7.6032e-23
-2.36217e-22
1.875e-06
1.40567e-22
-1.07223e-22
1.875e-06
1.38712e-22
-1.18624e-22
6.84296e-23
-2.09592e-22
1.875e-06
-1.52024e-22
4.57074e-22
1.875e-06
1.22921e-23
7.48979e-22
1.875e-06
1.34925e-22
8.94392e-22
1.875e-06
2.27445e-23
1.02051e-21
1.875e-06
-3.5816e-23
1.03259e-21
1.875e-06
-1.58134e-23
9.17265e-22
1.875e-06
1.19395e-22
8.22157e-22
1.875e-06
1.60887e-22
7.61919e-22
1.875e-06
5.52897e-23
7.22295e-22
1.875e-06
1.86431e-25
5.77369e-22
1.875e-06
5.71216e-23
6.72584e-22
1.875e-06
1.8634e-22
6.20737e-22
1.875e-06
1.02366e-22
5.57064e-22
1.875e-06
-1.14642e-22
4.57157e-22
1.875e-06
-8.87283e-23
5.25288e-22
1.875e-06
-4.90037e-23
5.18796e-22
1.875e-06
-9.93925e-24
5.12078e-22
1.875e-06
1.50731e-22
4.04069e-22
1.875e-06
1.20623e-22
2.40529e-22
1.875e-06
2.68859e-23
1.56481e-22
1.875e-06
1.40555e-22
1.92515e-22
1.875e-06
-3.85217e-24
2.10092e-22
1.875e-06
-6.98083e-23
1.61002e-22
1.875e-06
-1.18669e-22
1.207e-22
1.875e-06
-1.74847e-22
2.19226e-22
1.875e-06
2.43679e-23
3.50892e-23
1.875e-06
1.27809e-22
-3.98877e-23
1.875e-06
-6.90524e-24
-1.07556e-22
1.875e-06
-8.9006e-23
-3.95969e-23
1.875e-06
1.44393e-23
1.98971e-22
1.875e-06
-2.08423e-23
1.36489e-22
1.875e-06
-6.15285e-23
-3.68297e-23
1.875e-06
9.84609e-24
-1.64546e-23
1.875e-06
-3.27546e-23
2.95737e-23
1.875e-06
-4.10052e-23
-3.42538e-23
1.875e-06
-1.30111e-23
-1.56255e-22
1.875e-06
1.03003e-22
-2.29145e-22
1.875e-06
1.30101e-22
-1.68641e-22
1.875e-06
1.08757e-22
-1.85847e-22
4.47016e-23
-3.12566e-22
1.875e-06
-5.62545e-23
6.37913e-22
1.875e-06
-2.0124e-22
7.36144e-22
1.875e-06
-2.21013e-23
7.84764e-22
1.875e-06
-1.56916e-24
9.27154e-22
1.875e-06
9.10816e-23
1.01345e-21
1.875e-06
8.09655e-24
9.0629e-22
1.875e-06
1.16629e-23
8.33253e-22
1.875e-06
9.77589e-23
7.91101e-22
1.875e-06
1.50142e-23
6.87477e-22
1.875e-06
-1.34596e-22
6.72308e-22
1.875e-06
4.85926e-23
6.42745e-22
1.875e-06
1.60313e-22
5.93506e-22
1.875e-06
-3.43844e-23
5.93948e-22
1.875e-06
8.14852e-24
5.98993e-22
1.875e-06
5.97622e-23
5.92464e-22
1.875e-06
-2.76076e-24
5.28315e-22
1.875e-06
-2.94732e-23
3.4212e-22
1.875e-06
3.41898e-23
2.77035e-22
1.875e-06
3.85484e-23
2.87882e-22
1.875e-06
1.48079e-22
2.26362e-22
1.875e-06
6.47678e-23
1.35361e-22
1.875e-06
5.40088e-23
2.90746e-22
1.875e-06
-7.27635e-23
3.2693e-22
1.875e-06
-1.90499e-22
1.1745e-22
1.875e-06
-6.55125e-23
2.00134e-22
1.875e-06
-6.06157e-23
-8.90504e-24
1.875e-06
1.91133e-24
-1.35827e-22
1.875e-06
2.51733e-24
-1.27634e-22
1.875e-06
-7.66977e-23
-3.38577e-23
1.875e-06
-2.55894e-23
1.10196e-22
1.875e-06
1.09636e-22
1.28203e-22
1.875e-06
8.87661e-23
-4.06136e-24
1.875e-06
-7.82777e-23
-1.88116e-23
1.875e-06
-3.90413e-23
1.61778e-23
1.875e-06
-3.48228e-24
6.16522e-23
1.875e-06
-8.50432e-24
-1.72752e-22
1.875e-06
1.34892e-22
-2.33099e-22
1.875e-06
1.4583e-22
-2.0616e-22
1.875e-06
3.80912e-23
-2.48338e-22
4.43995e-23
-3.25355e-22
1.875e-06
-3.96532e-23
5.68501e-22
1.875e-06
-1.02122e-22
7.64407e-22
1.875e-06
-8.61309e-23
8.85877e-22
1.875e-06
-8.63443e-23
9.52788e-22
1.875e-06
-7.15105e-23
9.56552e-22
1.875e-06
3.27999e-23
1.00261e-21
1.875e-06
-2.57926e-24
8.65235e-22
1.875e-06
9.77873e-24
8.14091e-22
1.875e-06
9.62723e-24
7.63612e-22
1.875e-06
4.80343e-23
7.8731e-22
1.875e-06
1.12535e-26
6.59558e-22
1.875e-06
7.51343e-23
6.52781e-22
1.875e-06
1.67566e-23
7.13179e-22
1.875e-06
2.3842e-23
5.33767e-22
1.875e-06
-4.11535e-23
5.03913e-22
1.875e-06
-5.41776e-23
4.4725e-22
1.875e-06
7.98627e-24
3.64721e-22
1.875e-06
-6.2313e-23
3.1545e-22
1.875e-06
6.13747e-23
2.64361e-22
1.875e-06
1.25787e-22
2.17217e-22
1.875e-06
6.57596e-23
1.55073e-22
1.875e-06
1.23539e-23
3.18614e-22
1.875e-06
-4.47626e-23
3.11302e-22
1.875e-06
-1.6594e-22
1.3461e-22
1.875e-06
-1.1861e-22
1.76776e-22
1.875e-06
-1.02875e-22
1.38122e-23
1.875e-06
-1.1072e-22
-1.67763e-22
1.875e-06
-1.31021e-22
-1.77459e-22
1.875e-06
1.21745e-23
8.0269e-23
1.875e-06
4.31123e-23
7.46996e-23
1.875e-06
9.0964e-23
-4.7421e-23
1.875e-06
-8.38292e-23
-1.24047e-22
1.875e-06
8.20889e-24
1.88569e-23
1.875e-06
8.66285e-23
7.32073e-23
1.875e-06
7.54786e-23
1.27738e-22
1.875e-06
3.56431e-23
-6.74363e-23
1.875e-06
2.14223e-23
-2.53784e-22
1.875e-06
3.41276e-23
-2.65355e-22
1.875e-06
1.61237e-23
-2.50204e-22
1.06779e-22
-2.67816e-22
1.875e-06
-1.33747e-22
4.96234e-22
1.875e-06
-6.69098e-23
7.89169e-22
1.875e-06
2.17136e-23
9.13356e-22
1.875e-06
-2.13622e-23
9.91357e-22
1.875e-06
-7.59509e-23
1.05203e-21
1.875e-06
-2.24754e-23
1.04445e-21
1.875e-06
-6.00536e-24
8.94235e-22
1.875e-06
-4.89957e-23
8.1339e-22
1.875e-06
-6.5289e-25
7.55403e-22
1.875e-06
1.90264e-23
7.61909e-22
1.875e-06
4.1569e-23
6.74281e-22
1.875e-06
1.3924e-23
6.47179e-22
1.875e-06
8.97767e-23
8.34453e-22
1.875e-06
2.81476e-23
6.94974e-22
1.875e-06
-8.87538e-23
5.44883e-22
1.875e-06
5.02786e-23
3.30058e-22
1.875e-06
5.72339e-23
2.51299e-22
1.875e-06
-4.51811e-23
2.85888e-22
1.875e-06
-4.50526e-23
3.70692e-22
1.875e-06
9.17305e-23
3.38784e-22
1.875e-06
3.76943e-23
1.9862e-22
1.875e-06
5.04389e-23
2.19621e-22
1.875e-06
-1.0136e-22
1.75187e-22
1.875e-06
-5.10515e-23
2.13024e-22
1.875e-06
-1.10514e-22
1.33437e-22
1.875e-06
-2.94761e-23
4.79193e-23
1.875e-06
-9.9538e-23
-6.31835e-23
1.875e-06
-1.52435e-22
-3.44748e-23
1.875e-06
-1.00691e-22
-3.33258e-23
1.875e-06
-4.08732e-23
7.00697e-24
1.875e-06
-6.7165e-23
-1.3693e-22
1.875e-06
4.11388e-23
-1.14591e-22
1.875e-06
6.84723e-23
1.87403e-23
1.875e-06
-1.84966e-23
1.26376e-23
1.875e-06
-4.61025e-24
7.25522e-23
1.875e-06
1.1369e-22
4.81845e-23
1.875e-06
3.32865e-23
-1.61643e-22
1.875e-06
-5.43303e-24
-2.59552e-22
1.875e-06
-7.65522e-23
-2.85932e-22
-2.9301e-23
-4.29272e-22
1.875e-06
-9.55272e-23
5.69273e-22
1.875e-06
-1.83999e-22
8.3934e-22
1.875e-06
-2.30037e-22
9.15902e-22
1.875e-06
1.31423e-23
1.06313e-21
1.875e-06
1.06783e-22
1.06846e-21
1.875e-06
-2.80434e-23
1.02605e-21
1.875e-06
-1.19216e-22
8.98704e-22
1.875e-06
-1.092e-22
8.2342e-22
1.875e-06
-1.04045e-23
8.26684e-22
1.875e-06
8.14034e-24
8.76658e-22
1.875e-06
1.74164e-23
6.43469e-22
1.875e-06
6.58924e-24
6.68264e-22
1.875e-06
2.24542e-23
7.99633e-22
1.875e-06
1.04487e-23
7.82433e-22
1.875e-06
4.63765e-23
6.11691e-22
1.875e-06
-1.21828e-23
2.89538e-22
1.875e-06
3.29064e-23
2.52504e-22
1.875e-06
2.89527e-22
3.36523e-22
1.875e-06
2.52479e-22
2.76901e-22
1.875e-06
1.69401e-23
1.7749e-22
1.875e-06
-2.03289e-22
2.17078e-22
1.875e-06
-2.04828e-22
2.54391e-22
1.875e-06
-2.5801e-23
1.89637e-22
1.875e-06
6.28955e-24
1.69471e-22
1.875e-06
2.18961e-23
1.94714e-22
1.875e-06
-1.60962e-22
2.76727e-23
1.875e-06
-1.55479e-22
1.52754e-24
1.875e-06
-2.21391e-22
-3.71525e-24
1.875e-06
-1.21445e-22
-3.70215e-23
1.875e-06
2.50409e-23
2.18063e-23
1.875e-06
4.01531e-23
-1.24986e-22
1.875e-06
-5.47499e-23
-1.41466e-22
1.875e-06
8.94109e-24
-6.62848e-23
1.875e-06
3.90258e-23
1.48723e-23
1.875e-06
9.19136e-23
8.83211e-23
1.875e-06
7.87546e-23
7.72093e-23
1.875e-06
1.73813e-23
-1.52516e-22
1.875e-06
-1.68192e-22
-3.10206e-22
1.875e-06
1.03139e-22
-2.3166e-22
4.71514e-23
-3.54994e-22
1.875e-06
-6.76786e-23
6.27368e-22
1.875e-06
-8.75261e-23
9.65149e-22
1.875e-06
-3.78333e-23
9.70217e-22
1.875e-06
4.53835e-24
1.03872e-21
1.875e-06
3.12332e-23
9.66463e-22
1.875e-06
-9.11388e-23
1.03628e-21
1.875e-06
-2.07662e-22
9.44038e-22
1.875e-06
-6.26923e-23
9.41843e-22
1.875e-06
1.95083e-23
8.81511e-22
1.875e-06
5.112e-23
8.58892e-22
1.875e-06
-2.88854e-23
7.18459e-22
1.875e-06
4.27585e-23
6.9996e-22
1.875e-06
-3.53381e-23
8.25306e-22
1.875e-06
-2.07237e-23
7.84623e-22
1.875e-06
1.28661e-22
5.17032e-22
1.875e-06
6.09205e-23
3.76459e-22
1.875e-06
-4.84557e-23
3.43488e-22
1.875e-06
-1.09408e-22
1.80542e-22
1.875e-06
4.33842e-23
8.52836e-23
1.875e-06
-5.95684e-23
1.04299e-22
1.875e-06
3.00447e-23
3.07278e-22
1.875e-06
2.67539e-24
3.1359e-22
1.875e-06
-1.41498e-23
2.42262e-22
1.875e-06
-3.18519e-23
1.43422e-22
1.875e-06
4.12863e-23
2.39587e-22
1.875e-06
7.40916e-24
5.51875e-23
1.875e-06
6.02702e-23
5.03479e-23
1.875e-06
2.2207e-23
5.51304e-23
1.875e-06
-1.99208e-23
4.81727e-23
1.875e-06
1.28291e-23
-3.54533e-23
1.875e-06
-1.39954e-22
-1.50597e-22
1.875e-06
-6.97851e-23
-8.9465e-23
1.875e-06
-1.37975e-22
-5.8428e-23
1.875e-06
-1.96259e-23
1.28393e-23
1.875e-06
4.70813e-23
6.82595e-23
1.875e-06
-4.37841e-24
-1.81806e-23
1.875e-06
-7.3603e-24
-1.62198e-22
1.875e-06
5.64019e-23
-1.23368e-22
1.875e-06
-3.3007e-23
-3.02399e-22
-9.22562e-23
-3.66484e-22
1.875e-06
9.18776e-23
6.99532e-22
1.875e-06
6.16263e-23
9.78893e-22
1.875e-06
-6.66704e-23
8.95734e-22
1.875e-06
-4.16484e-23
9.29355e-22
1.875e-06
-1.54212e-23
1.03783e-21
1.875e-06
-2.20658e-23
1.05678e-21
1.875e-06
-8.13145e-23
1.01587e-21
1.875e-06
-1.70366e-22
8.44276e-22
1.875e-06
-1.38545e-22
8.35058e-22
1.875e-06
7.96754e-23
9.53908e-22
1.875e-06
-1.57552e-22
7.59891e-22
1.875e-06
3.81215e-22
7.14033e-22
1.875e-06
5.71496e-23
7.11126e-22
1.875e-06
4.18894e-25
7.50234e-22
1.875e-06
1.67471e-23
6.22653e-22
1.875e-06
-3.5807e-23
4.13439e-22
1.875e-06
-2.32404e-23
2.51462e-22
1.875e-06
-1.10923e-22
1.389e-22
1.875e-06
-1.51316e-22
1.56448e-22
1.875e-06
-4.16055e-23
1.79172e-22
1.875e-06
-3.076e-23
2.15387e-22
1.875e-06
-4.38131e-23
2.71963e-22
1.875e-06
-1.09262e-22
3.65057e-22
1.875e-06
5.28122e-23
1.13059e-22
1.875e-06
1.46781e-22
1.89321e-22
1.875e-06
9.09888e-23
1.17044e-22
1.875e-06
1.15237e-23
6.61717e-23
1.875e-06
8.18583e-23
-4.37934e-23
1.875e-06
-1.9011e-22
-1.12338e-25
1.875e-06
9.3191e-23
-7.16551e-23
1.875e-06
-1.32157e-22
-3.16878e-23
1.875e-06
-7.87477e-23
-4.27668e-23
1.875e-06
9.25696e-23
2.70804e-23
1.875e-06
-1.2101e-22
5.30827e-23
1.875e-06
-2.84808e-23
1.42482e-23
1.875e-06
3.49615e-23
-6.9877e-24
1.875e-06
-1.29387e-23
-9.21887e-23
1.875e-06
5.79799e-23
-2.30071e-22
1.875e-06
-1.1448e-22
-3.38385e-22
-6.51626e-23
-3.56667e-22
1.875e-06
1.85058e-22
6.06292e-22
1.875e-06
2.18975e-22
9.10457e-22
1.875e-06
-6.00841e-25
9.51213e-22
1.875e-06
-1.33116e-22
9.10111e-22
1.875e-06
-1.2348e-22
9.65967e-22
1.875e-06
-2.15488e-23
1.09618e-21
1.875e-06
2.28552e-23
1.04198e-21
1.875e-06
-1.09608e-22
8.38107e-22
1.875e-06
-4.63902e-23
8.46856e-22
1.875e-06
1.06604e-22
9.48703e-22
1.875e-06
7.32579e-23
8.6879e-22
1.875e-06
-6.3497e-23
7.75338e-22
1.875e-06
-5.88628e-23
7.53942e-22
1.875e-06
1.46281e-22
6.60059e-22
1.875e-06
1.39654e-23
5.3049e-22
1.875e-06
-1.66296e-23
3.75668e-22
1.875e-06
-1.62133e-22
1.93207e-22
1.875e-06
-1.18484e-22
1.48595e-22
1.875e-06
-1.3549e-22
2.05863e-22
1.875e-06
-7.31767e-23
1.97703e-22
1.875e-06
-2.14494e-23
2.22969e-22
1.875e-06
-1.58084e-22
2.30782e-22
1.875e-06
6.49005e-23
4.03608e-22
1.875e-06
5.62361e-23
2.5327e-22
1.875e-06
2.50243e-23
1.09867e-22
1.875e-06
1.17715e-22
1.54211e-22
1.875e-06
5.90964e-23
-4.02832e-25
1.875e-06
1.13312e-22
-1.45236e-22
1.875e-06
1.06801e-22
8.48073e-24
1.875e-06
-1.13165e-22
-1.29285e-22
1.875e-06
1.91674e-23
1.56678e-23
1.875e-06
-2.79901e-23
-7.74994e-23
1.875e-06
-5.55622e-23
-1.12262e-22
1.875e-06
4.68767e-23
1.3294e-22
1.875e-06
7.01684e-23
-4.09528e-24
1.875e-06
1.13926e-22
-1.21691e-23
1.875e-06
-4.16058e-23
-3.64767e-23
1.875e-06
-1.05825e-22
-1.32081e-22
1.875e-06
-1.44081e-22
-3.94765e-22
-2.36321e-22
-4.12329e-22
1.875e-06
9.31483e-23
5.83555e-22
1.875e-06
1.00211e-22
8.75091e-22
1.875e-06
-7.94121e-24
8.98383e-22
1.875e-06
-5.06873e-23
1.00411e-21
1.875e-06
-5.02648e-23
9.14041e-22
1.875e-06
1.77773e-23
1.01052e-21
1.875e-06
-8.73402e-23
9.97263e-22
1.875e-06
5.07641e-24
1.00348e-21
1.875e-06
4.99401e-23
9.33171e-22
1.875e-06
-7.66126e-23
8.46098e-22
1.875e-06
-5.14391e-23
8.78725e-22
1.875e-06
-3.89593e-24
7.36256e-22
1.875e-06
7.24285e-24
7.62143e-22
1.875e-06