/*--------------------------------*- C++ -*----------------------------------*\
| =========                 |                                                 |
| \\      /  F ield         | OpenFOAM: The Open Source CFD Toolbox           |
|  \\    /   O peration     | Version:  v2012                                 |
|   \\  /    A nd           | Website:  www.openfoam.com                      |
|    \\/     M anipulation  |                                                 |
\*---------------------------------------------------------------------------*/
FoamFile
{
    version     2.0;
    format      ascii;
    class       volVectorField;
    location    "16";
    object      U;
}
// * * * * * * * * * * * * * * * * * * * * * * * * * * * * * * * * * * * * * //

dimensions      [0 1 -1 0 0 0 0];


internalField   nonuniform List<vector> 
64000
(
(0.003 1.7073e-19 1.98595e-19)
(0.003 3.0153e-19 3.05392e-19)
(0.003 3.52353e-19 3.86229e-19)
(0.003 3.45642e-19 4.07546e-19)
(0.003 4.06386e-19 3.49899e-19)
(0.003 3.71985e-19 2.74218e-19)
(0.003 2.53567e-19 2.04538e-19)
(0.003 1.34011e-19 1.54409e-19)
(0.003 2.1913e-19 2.79339e-19)
(0.003 2.99109e-19 2.70683e-19)
(0.003 2.36135e-19 2.05091e-19)
(0.003 2.13571e-19 2.46657e-19)
(0.003 1.82446e-19 2.13635e-19)
(0.003 1.77639e-19 1.81562e-19)
(0.003 1.73828e-19 2.30533e-19)
(0.003 1.94137e-19 1.94576e-19)
(0.003 8.94346e-20 1.25477e-19)
(0.003 1.12361e-20 1.22686e-19)
(0.003 8.27237e-20 -1.48695e-19)
(0.003 4.20889e-20 -2.82206e-19)
(0.003 -1.32168e-19 -1.71199e-19)
(0.003 5.14311e-20 5.25694e-20)
(0.003 2.04061e-19 1.05377e-19)
(0.003 2.96016e-19 8.67184e-20)
(0.003 3.37012e-19 1.3897e-19)
(0.003 1.23953e-19 1.29454e-19)
(0.003 6.72702e-21 1.26629e-19)
(0.003 1.14756e-19 1.1851e-19)
(0.003 1.18134e-19 1.44212e-19)
(0.003 -3.11205e-20 1.916e-19)
(0.003 -1.43068e-19 2.85791e-19)
(0.003 -3.60866e-20 1.26136e-19)
(0.003 1.10654e-19 6.2467e-20)
(0.003 -6.50137e-21 1.19255e-19)
(0.003 -8.4416e-21 6.42565e-20)
(0.003 8.29146e-20 -1.46666e-19)
(0.003 -1.3488e-19 -2.10403e-19)
(0.003 -2.81043e-19 -1.37841e-19)
(0.003 -5.94262e-20 7.77234e-20)
(0.003 -8.88789e-21 4.44456e-20)
(0.003 2.21246e-19 2.80177e-19)
(0.003 2.75359e-19 5.99767e-19)
(0.003 5.12875e-19 8.3692e-19)
(0.003 4.42471e-19 7.80746e-19)
(0.003 3.45124e-19 6.713e-19)
(0.003 4.61109e-19 6.81126e-19)
(0.003 3.77725e-19 5.58139e-19)
(0.003 3.33117e-19 3.84099e-19)
(0.003 2.92022e-19 5.12321e-19)
(0.003 2.38e-19 6.10749e-19)
(0.003 2.57162e-19 5.47213e-19)
(0.003 2.85244e-19 4.41792e-19)
(0.003 1.82175e-19 3.99064e-19)
(0.003 3.46795e-20 3.36038e-19)
(0.003 -8.7231e-21 3.6281e-19)
(0.003 4.04756e-20 2.79726e-19)
(0.003 2.6006e-19 1.04257e-19)
(0.003 2.50205e-19 2.1974e-19)
(0.003 2.31104e-19 3.50644e-20)
(0.003 2.13008e-19 -1.87007e-19)
(0.003 5.76339e-20 -1.32958e-19)
(0.003 -8.40768e-20 1.52522e-19)
(0.003 1.58321e-19 2.39979e-19)
(0.003 2.88237e-19 2.80496e-19)
(0.003 7.62684e-20 2.92738e-19)
(0.003 5.37128e-20 1.32775e-19)
(0.003 1.32356e-19 6.18473e-20)
(0.003 9.19553e-20 1.21914e-19)
(0.003 -1.90973e-20 1.77476e-19)
(0.003 -7.00087e-20 1.10925e-19)
(0.003 -1.63613e-19 1.39084e-19)
(0.003 -3.93907e-20 1.66442e-19)
(0.003 4.73251e-20 2.14208e-19)
(0.003 -9.88065e-20 1.19974e-19)
(0.003 -1.61539e-19 8.43461e-20)
(0.003 -2.4727e-19 -5.86826e-20)
(0.003 -2.00119e-19 -1.97926e-19)
(0.003 -5.74692e-20 -7.82172e-20)
(0.003 9.57301e-20 1.04702e-19)
(0.003 1.09311e-19 2.69914e-20)
(0.003 1.77832e-19 3.63146e-19)
(0.003 2.3473e-19 6.3997e-19)
(0.003 2.73154e-19 8.85007e-19)
(0.003 3.60562e-19 9.45318e-19)
(0.003 3.50291e-19 8.14133e-19)
(0.003 3.60818e-19 7.42631e-19)
(0.003 3.28135e-19 6.89646e-19)
(0.003 3.16934e-19 6.93469e-19)
(0.003 3.09753e-19 7.94281e-19)
(0.003 2.4408e-19 6.88072e-19)
(0.003 2.2595e-19 5.81155e-19)
(0.003 2.15634e-19 5.35898e-19)
(0.003 2.48659e-19 3.86724e-19)
(0.003 1.65805e-19 3.36088e-19)
(0.003 9.49062e-20 3.30602e-19)
(0.003 1.49923e-20 2.99838e-19)
(0.003 9.22946e-20 2.85647e-19)
(0.003 1.8291e-19 1.68938e-19)
(0.003 1.64586e-19 -8.10181e-20)
(0.003 5.56325e-20 -1.25623e-19)
(0.003 -4.16592e-21 6.40431e-20)
(0.003 3.99408e-20 2.61033e-19)
(0.003 1.9943e-19 3.15429e-19)
(0.003 1.70437e-19 3.17354e-19)
(0.003 1.75907e-20 2.56181e-19)
(0.003 1.1103e-19 1.61309e-19)
(0.003 1.25051e-19 1.59801e-19)
(0.003 -4.58393e-20 2.17411e-19)
(0.003 -3.07651e-20 1.84288e-19)
(0.003 5.23475e-20 1.8375e-19)
(0.003 -9.82158e-21 1.73917e-19)
(0.003 -1.90514e-21 1.9991e-19)
(0.003 -7.74572e-20 1.25435e-19)
(0.003 -1.59306e-19 7.4192e-20)
(0.003 -1.94293e-19 1.16364e-19)
(0.003 -2.7406e-19 -9.42998e-20)
(0.003 -1.48984e-19 -1.03176e-19)
(0.003 8.32226e-20 -4.47856e-20)
(0.003 1.55583e-19 1.09333e-20)
(0.003 1.34271e-19 6.25893e-21)
(0.003 3.58116e-19 4.31742e-19)
(0.003 3.482e-19 7.74552e-19)
(0.003 1.69316e-19 9.51157e-19)
(0.003 2.36571e-19 1.00098e-18)
(0.003 3.50572e-19 9.6636e-19)
(0.003 3.34503e-19 9.40343e-19)
(0.003 2.8941e-19 7.83358e-19)
(0.003 2.1581e-19 7.08343e-19)
(0.003 1.95884e-19 8.14859e-19)
(0.003 2.64454e-19 7.66825e-19)
(0.003 2.6499e-19 6.78283e-19)
(0.003 1.97412e-19 6.28279e-19)
(0.003 1.70626e-19 4.92206e-19)
(0.003 1.13364e-19 3.83721e-19)
(0.003 2.74814e-19 4.04887e-19)
(0.003 3.13831e-19 3.33e-19)
(0.003 1.16716e-19 2.63061e-19)
(0.003 -7.08403e-20 2.12623e-19)
(0.003 -1.24046e-19 -3.56526e-20)
(0.003 -5.13095e-20 -1.95152e-19)
(0.003 -2.41812e-20 6.91711e-20)
(0.003 1.45015e-19 3.59584e-19)
(0.003 2.67248e-19 4.60414e-19)
(0.003 1.60083e-19 4.13929e-19)
(0.003 1.24275e-19 3.05034e-19)
(0.003 6.59227e-20 2.07029e-19)
(0.003 -6.05376e-21 1.0942e-19)
(0.003 -3.38476e-20 4.25287e-20)
(0.003 5.45106e-20 2.15014e-19)
(0.003 3.73946e-20 3.17562e-19)
(0.003 -1.37453e-20 1.52708e-19)
(0.003 -4.17834e-20 1.19431e-19)
(0.003 -8.84755e-20 1.47062e-19)
(0.003 -1.01218e-19 8.29454e-20)
(0.003 -1.05019e-19 7.57598e-20)
(0.003 -6.90444e-20 -4.00142e-21)
(0.003 -1.22899e-21 1.45906e-20)
(0.003 5.32422e-20 7.83686e-20)
(0.003 1.0143e-19 9.22126e-20)
(0.003 9.13532e-20 6.19872e-20)
(0.003 1.86052e-19 5.43875e-19)
(0.003 2.56623e-19 9.44712e-19)
(0.003 1.59343e-19 1.01565e-18)
(0.003 1.37997e-19 9.80872e-19)
(0.003 2.01909e-19 1.08822e-18)
(0.003 1.84277e-19 1.01916e-18)
(0.003 2.50464e-19 8.64468e-19)
(0.003 3.2669e-19 7.10012e-19)
(0.003 2.4527e-19 7.32613e-19)
(0.003 2.27734e-19 8.50694e-19)
(0.003 2.16657e-19 7.87948e-19)
(0.003 1.88021e-19 6.74194e-19)
(0.003 1.61523e-19 5.40839e-19)
(0.003 1.67813e-19 4.25721e-19)
(0.003 1.82463e-19 4.64274e-19)
(0.003 2.5849e-19 4.95761e-19)
(0.003 1.34714e-19 3.64869e-19)
(0.003 -1.51684e-19 1.75648e-19)
(0.003 -2.15782e-19 3.64015e-20)
(0.003 -6.84165e-20 -1.04459e-19)
(0.003 4.26495e-20 6.56494e-21)
(0.003 1.22257e-19 3.08257e-19)
(0.003 1.82803e-19 5.25662e-19)
(0.003 1.59814e-19 4.42285e-19)
(0.003 1.17988e-19 3.76074e-19)
(0.003 2.72221e-20 2.53964e-19)
(0.003 1.1273e-20 1.06266e-19)
(0.003 3.01526e-20 1.43782e-19)
(0.003 3.46441e-20 2.30612e-19)
(0.003 2.28218e-20 1.68186e-19)
(0.003 1.4346e-19 8.6672e-20)
(0.003 1.42354e-19 1.2899e-19)
(0.003 -7.39295e-20 -1.33045e-20)
(0.003 -7.41353e-20 -6.05821e-20)
(0.003 3.78565e-20 9.24135e-20)
(0.003 1.53567e-20 6.03283e-20)
(0.003 3.24962e-20 5.63897e-20)
(0.003 6.17791e-20 9.58526e-20)
(0.003 3.98454e-21 1.09997e-19)
(0.003 -8.26662e-21 9.74114e-20)
(0.003 5.68488e-21 6.70141e-19)
(0.003 1.77672e-19 1.00286e-18)
(0.003 1.26283e-19 9.78402e-19)
(0.003 1.17103e-19 1.04702e-18)
(0.003 1.49449e-19 1.11655e-18)
(0.003 1.83246e-19 9.95899e-19)
(0.003 1.96951e-19 8.69844e-19)
(0.003 4.11399e-19 8.97516e-19)
(0.003 3.65422e-19 8.723e-19)
(0.003 1.67983e-19 7.95998e-19)
(0.003 1.94503e-19 7.57566e-19)
(0.003 1.96819e-19 8.00188e-19)
(0.003 1.61121e-19 6.5546e-19)
(0.003 2.5046e-19 4.32445e-19)
(0.003 1.56418e-19 4.72525e-19)
(0.003 -5.03334e-20 5.51713e-19)
(0.003 -1.10977e-19 4.45558e-19)
(0.003 -9.89248e-20 2.09135e-19)
(0.003 -1.58896e-19 1.28074e-19)
(0.003 -8.30007e-20 3.51811e-20)
(0.003 1.56937e-19 5.68298e-20)
(0.003 2.49555e-19 2.72503e-19)
(0.003 1.89002e-19 4.58086e-19)
(0.003 1.42213e-19 4.1254e-19)
(0.003 1.09535e-19 3.16002e-19)
(0.003 9.47577e-20 2.53756e-19)
(0.003 7.76462e-20 1.75852e-19)
(0.003 -5.64257e-20 1.09985e-19)
(0.003 -1.67951e-19 2.2488e-19)
(0.003 -1.17432e-20 3.07139e-19)
(0.003 2.52627e-19 2.61947e-19)
(0.003 1.60754e-19 5.37503e-20)
(0.003 8.59999e-22 -1.73785e-19)
(0.003 1.02617e-19 -9.70595e-20)
(0.003 9.85006e-20 7.04742e-20)
(0.003 6.46167e-20 4.04761e-20)
(0.003 4.32752e-20 8.92098e-20)
(0.003 8.28477e-20 4.09074e-20)
(0.003 6.89498e-20 -5.69027e-21)
(0.003 3.13377e-20 -4.77857e-21)
(0.003 5.28595e-21 7.70232e-19)
(0.003 9.45298e-20 1.16055e-18)
(0.003 1.73027e-19 1.0684e-18)
(0.003 1.23729e-19 1.03928e-18)
(0.003 1.78036e-19 1.11253e-18)
(0.003 1.3087e-19 1.07329e-18)
(0.003 1.95099e-19 9.50228e-19)
(0.003 3.53735e-19 9.17858e-19)
(0.003 3.44375e-19 9.48413e-19)
(0.003 2.46964e-19 8.98863e-19)
(0.003 1.83988e-19 8.14891e-19)
(0.003 1.91717e-19 7.77016e-19)
(0.003 2.0359e-19 6.13424e-19)
(0.003 2.28238e-19 5.5591e-19)
(0.003 1.19494e-19 5.62976e-19)
(0.003 -8.25188e-22 4.80316e-19)
(0.003 -9.82157e-20 3.4244e-19)
(0.003 -2.63578e-20 2.44681e-19)
(0.003 -9.34687e-22 1.2194e-19)
(0.003 1.56939e-20 9.41895e-20)
(0.003 2.35626e-19 1.60745e-19)
(0.003 2.41731e-19 2.92652e-19)
(0.003 9.60709e-20 4.41134e-19)
(0.003 5.62319e-20 5.0351e-19)
(0.003 4.77856e-20 3.92356e-19)
(0.003 8.66811e-20 2.20693e-19)
(0.003 1.99721e-20 1.63123e-19)
(0.003 -7.54249e-20 1.39415e-19)
(0.003 -1.38261e-19 1.60905e-19)
(0.003 -3.5752e-20 1.91456e-19)
(0.003 1.40661e-19 1.98432e-19)
(0.003 7.37195e-20 2.63628e-20)
(0.003 1.12488e-19 -1.08164e-19)
(0.003 1.88286e-19 8.79205e-20)
(0.003 9.94338e-20 1.54692e-19)
(0.003 6.4666e-20 9.21859e-21)
(0.003 5.01925e-20 -5.93746e-20)
(0.003 6.92905e-20 -6.111e-20)
(0.003 8.61129e-21 -7.70854e-20)
(0.003 -4.77688e-20 -1.99632e-19)
(0.003 1.77724e-19 6.55687e-19)
(0.003 1.27823e-19 9.96203e-19)
(0.003 2.33077e-19 1.09533e-18)
(0.003 2.4325e-19 1.16498e-18)
(0.003 1.36391e-19 1.20233e-18)
(0.003 1.47566e-19 1.06398e-18)
(0.003 2.51414e-19 1.01398e-18)
(0.003 1.99581e-19 1.06755e-18)
(0.003 2.47798e-19 1.05574e-18)
(0.003 3.35948e-19 9.40998e-19)
(0.003 2.42152e-19 8.18967e-19)
(0.003 1.56457e-19 7.99503e-19)
(0.003 6.66579e-20 6.50949e-19)
(0.003 1.73626e-19 5.68682e-19)
(0.003 1.46371e-19 5.68397e-19)
(0.003 5.7325e-20 5.31552e-19)
(0.003 5.20416e-21 2.92611e-19)
(0.003 8.61493e-20 1.56452e-19)
(0.003 2.49903e-19 1.14204e-19)
(0.003 2.43112e-19 1.6683e-19)
(0.003 2.29078e-19 2.22929e-19)
(0.003 1.28942e-19 3.59197e-19)
(0.003 -4.26967e-20 4.97509e-19)
(0.003 -7.15453e-20 4.70516e-19)
(0.003 -5.39836e-20 3.86785e-19)
(0.003 3.41287e-20 2.40565e-19)
(0.003 5.57334e-20 8.51024e-20)
(0.003 -1.08221e-20 1.01838e-19)
(0.003 -3.87235e-20 1.84574e-19)
(0.003 -4.00499e-20 2.47296e-19)
(0.003 -2.06254e-19 2.76707e-19)
(0.003 -7.08966e-20 1.04458e-19)
(0.003 1.97116e-19 4.58919e-20)
(0.003 2.33867e-19 1.51137e-19)
(0.003 2.03731e-19 5.65624e-20)
(0.003 7.05145e-20 -2.23117e-19)
(0.003 -6.54813e-20 -3.5515e-19)
(0.003 -1.26169e-19 -2.41415e-19)
(0.003 -2.03683e-19 -1.15034e-19)
(0.003 -1.31734e-19 -1.38805e-19)
(0.003 -3.85995e-20 6.36086e-19)
(0.003 7.49484e-20 1.15462e-18)
(0.003 1.76523e-19 1.23633e-18)
(0.003 2.2982e-19 1.25879e-18)
(0.003 1.36812e-19 1.19746e-18)
(0.003 2.22385e-19 1.12697e-18)
(0.003 2.63729e-19 1.13653e-18)
(0.003 1.24944e-19 1.01195e-18)
(0.003 1.18568e-19 1.02018e-18)
(0.003 2.23406e-19 1.04567e-18)
(0.003 1.93676e-19 8.84659e-19)
(0.003 3.95086e-20 8.05564e-19)
(0.003 -1.03246e-20 6.28175e-19)
(0.003 4.89677e-20 6.18056e-19)
(0.003 1.21127e-19 6.26111e-19)
(0.003 1.75547e-19 5.63689e-19)
(0.003 2.64903e-19 3.54274e-19)
(0.003 1.85293e-19 1.82698e-19)
(0.003 1.21114e-19 2.35762e-19)
(0.003 1.13688e-19 2.74057e-19)
(0.003 8.50855e-20 2.75575e-19)
(0.003 7.64479e-20 4.04734e-19)
(0.003 2.83915e-20 4.68095e-19)
(0.003 8.03137e-20 5.24062e-19)
(0.003 7.81516e-20 3.92031e-19)
(0.003 -6.81434e-20 1.95505e-19)
(0.003 -1.10618e-19 1.01051e-19)
(0.003 -2.07095e-20 1.01626e-19)
(0.003 7.08177e-20 9.06604e-20)
(0.003 -1.14075e-20 1.28392e-19)
(0.003 -1.95884e-19 1.42808e-19)
(0.003 -1.25123e-19 1.50143e-19)
(0.003 1.01264e-20 2.03536e-19)
(0.003 1.92566e-20 1.23966e-19)
(0.003 9.64003e-20 -1.07167e-19)
(0.003 1.81604e-19 -4.2398e-19)
(0.003 3.84668e-20 -3.87661e-19)
(0.003 -1.70385e-19 -2.95573e-19)
(0.003 -2.14666e-19 -1.95107e-19)
(0.003 -1.31961e-19 -1.02404e-19)
(0.003 -2.53516e-19 7.29623e-19)
(0.003 -2.7717e-20 1.08787e-18)
(0.003 1.61744e-19 1.29771e-18)
(0.003 2.40668e-19 1.34032e-18)
(0.003 1.76539e-19 1.28138e-18)
(0.003 1.53875e-19 1.23217e-18)
(0.003 2.91019e-19 1.22e-18)
(0.003 2.5259e-19 1.11133e-18)
(0.003 1.57893e-19 9.66149e-19)
(0.003 1.70544e-19 9.36708e-19)
(0.003 1.54425e-19 9.12221e-19)
(0.003 -2.90716e-20 8.11071e-19)
(0.003 -1.90179e-20 6.35935e-19)
(0.003 -7.35231e-20 6.42094e-19)
(0.003 3.00229e-20 7.1767e-19)
(0.003 1.54325e-19 5.83431e-19)
(0.003 2.59675e-19 4.38363e-19)
(0.003 1.85775e-19 3.14174e-19)
(0.003 -5.51993e-20 1.60563e-19)
(0.003 1.19804e-20 1.78689e-19)
(0.003 1.0958e-19 3.56541e-19)
(0.003 1.51638e-19 4.48583e-19)
(0.003 8.5082e-20 4.94793e-19)
(0.003 5.48609e-20 5.81766e-19)
(0.003 9.33143e-20 4.7223e-19)
(0.003 -7.44201e-21 2.1155e-19)
(0.003 -1.1062e-19 4.745e-20)
(0.003 -1.73402e-20 4.34953e-20)
(0.003 8.05581e-20 1.03676e-19)
(0.003 1.27181e-20 1.72007e-19)
(0.003 4.76276e-20 1.44046e-19)
(0.003 -3.47719e-20 1.28659e-19)
(0.003 -2.25894e-19 1.69165e-19)
(0.003 -2.49463e-19 8.14824e-20)
(0.003 -3.73661e-20 -9.61852e-20)
(0.003 2.90262e-19 -3.5521e-19)
(0.003 1.59268e-19 -5.21761e-19)
(0.003 -8.33286e-20 -4.08606e-19)
(0.003 -3.67324e-20 -2.83448e-19)
(0.003 5.22001e-21 -1.94405e-19)
(0.003 1.15164e-19 7.64356e-19)
(0.003 2.0082e-19 1.2247e-18)
(0.003 1.96544e-19 1.44551e-18)
(0.003 2.12528e-19 1.40945e-18)
(0.003 2.22039e-19 1.25022e-18)
(0.003 2.17379e-19 1.22411e-18)
(0.003 2.26336e-19 1.28151e-18)
(0.003 1.97366e-19 1.18676e-18)
(0.003 1.33948e-19 1.01048e-18)
(0.003 1.925e-19 9.26364e-19)
(0.003 2.20455e-19 8.9569e-19)
(0.003 2.67905e-20 8.31346e-19)
(0.003 5.47872e-20 6.60876e-19)
(0.003 7.27179e-20 5.69332e-19)
(0.003 1.09574e-20 6.82299e-19)
(0.003 8.66295e-20 7.05396e-19)
(0.003 9.63825e-20 5.46769e-19)
(0.003 -1.09417e-20 3.19805e-19)
(0.003 -4.47383e-20 1.36931e-19)
(0.003 3.90834e-20 1.29332e-19)
(0.003 1.75869e-19 3.65974e-19)
(0.003 1.9431e-19 5.34187e-19)
(0.003 2.46432e-20 5.23636e-19)
(0.003 5.93965e-21 6.2378e-19)
(0.003 4.42754e-20 4.27632e-19)
(0.003 -6.10859e-20 1.29526e-19)
(0.003 -1.64866e-19 9.14884e-20)
(0.003 -2.81688e-20 6.22539e-20)
(0.003 7.1868e-20 1.56112e-20)
(0.003 2.25714e-20 2.20699e-19)
(0.003 5.75357e-20 2.67286e-19)
(0.003 4.20339e-20 1.38135e-19)
(0.003 -1.73689e-19 6.1583e-20)
(0.003 -2.42253e-19 -1.39393e-20)
(0.003 -9.94008e-20 -6.16839e-20)
(0.003 -1.18661e-20 -2.69585e-19)
(0.003 5.03343e-20 -4.52765e-19)
(0.003 4.36146e-20 -3.65001e-19)
(0.003 4.92941e-20 -2.43307e-19)
(0.003 4.31401e-20 -1.71151e-19)
(0.003 3.02293e-19 8.83216e-19)
(0.003 2.83949e-19 1.33234e-18)
(0.003 1.76041e-19 1.44324e-18)
(0.003 1.29158e-19 1.36019e-18)
(0.003 2.14139e-19 1.30971e-18)
(0.003 2.46231e-19 1.34489e-18)
(0.003 1.84962e-19 1.24002e-18)
(0.003 1.98779e-19 1.14549e-18)
(0.003 1.33794e-19 9.22613e-19)
(0.003 8.10306e-20 9.87898e-19)
(0.003 1.25695e-19 9.99315e-19)
(0.003 1.05202e-19 8.49887e-19)
(0.003 1.46314e-19 7.39013e-19)
(0.003 1.94771e-19 6.3565e-19)
(0.003 7.37222e-20 6.47467e-19)
(0.003 -4.8504e-20 6.73802e-19)
(0.003 -6.65214e-20 6.07176e-19)
(0.003 3.19946e-20 3.15872e-19)
(0.003 2.56474e-19 1.2844e-19)
(0.003 2.10892e-19 2.06483e-19)
(0.003 3.90886e-20 3.3081e-19)
(0.003 -1.33333e-19 4.88979e-19)
(0.003 -9.71932e-20 4.97663e-19)
(0.003 -4.85827e-20 5.59277e-19)
(0.003 -1.05749e-19 4.64498e-19)
(0.003 -1.46227e-19 1.27503e-19)
(0.003 -1.08607e-19 7.31559e-20)
(0.003 3.60564e-20 1.56683e-19)
(0.003 1.06165e-20 7.39759e-20)
(0.003 -6.97723e-20 1.70312e-19)
(0.003 -1.27535e-20 2.36466e-19)
(0.003 -4.09723e-21 1.33089e-19)
(0.003 -2.07187e-20 1.92237e-20)
(0.003 -3.66002e-20 -4.51512e-20)
(0.003 -1.08543e-19 -1.39437e-21)
(0.003 -2.94872e-19 -3.07809e-19)
(0.003 -1.17698e-19 -4.75768e-19)
(0.003 1.5139e-19 -2.9171e-19)
(0.003 1.57563e-19 -1.61795e-19)
(0.003 8.84242e-20 -2.31733e-19)
(0.003 2.89148e-19 9.41109e-19)
(0.003 3.05005e-19 1.37336e-18)
(0.003 1.63796e-19 1.41993e-18)
(0.003 1.35841e-19 1.40851e-18)
(0.003 9.06356e-20 1.42048e-18)
(0.003 6.85026e-20 1.3195e-18)
(0.003 9.3805e-20 1.2134e-18)
(0.003 5.2203e-20 1.13996e-18)
(0.003 2.18063e-19 1.05328e-18)
(0.003 2.24206e-19 1.03363e-18)
(0.003 3.5775e-20 9.42464e-19)
(0.003 6.57531e-20 8.04082e-19)
(0.003 2.12012e-19 7.75536e-19)
(0.003 2.76511e-19 7.33046e-19)
(0.003 1.23115e-19 7.11534e-19)
(0.003 -2.0689e-20 6.89722e-19)
(0.003 -8.43469e-20 5.50768e-19)
(0.003 -2.08861e-20 3.13332e-19)
(0.003 7.26471e-20 2.73202e-19)
(0.003 1.18977e-19 2.60662e-19)
(0.003 7.78023e-20 3.01834e-19)
(0.003 -1.65569e-20 4.05995e-19)
(0.003 1.18308e-20 4.50163e-19)
(0.003 -3.70871e-20 4.80809e-19)
(0.003 -1.99923e-19 4.178e-19)
(0.003 -1.05417e-19 1.61063e-19)
(0.003 -2.28222e-20 4.77084e-20)
(0.003 -1.42451e-21 8.6498e-20)
(0.003 -1.19711e-19 5.76425e-20)
(0.003 -1.54619e-19 1.22605e-19)
(0.003 -4.74758e-20 1.91811e-19)
(0.003 -5.18532e-20 1.34423e-19)
(0.003 3.43239e-20 5.80632e-20)
(0.003 7.35571e-20 7.15337e-20)
(0.003 -1.39868e-19 8.39418e-21)
(0.003 -2.09465e-19 -3.4252e-19)
(0.003 8.56032e-21 -4.28957e-19)
(0.003 1.7173e-19 -2.76563e-19)
(0.003 2.06723e-19 -2.03734e-19)
(0.003 1.04907e-19 -2.92631e-19)
(0.003 1.81238e-20 1.00697e-18)
(0.003 2.02421e-19 1.46875e-18)
(0.003 2.19051e-19 1.42866e-18)
(0.003 1.58576e-20 1.4604e-18)
(0.003 -8.99401e-20 1.39056e-18)
(0.003 -7.77573e-20 1.29348e-18)
(0.003 6.99741e-20 1.18672e-18)
(0.003 1.56957e-19 1.05972e-18)
(0.003 1.50175e-19 1.07662e-18)
(0.003 1.31641e-19 1.12727e-18)
(0.003 1.17699e-19 1.02334e-18)
(0.003 2.47027e-19 8.16836e-19)
(0.003 2.19458e-19 8.37071e-19)
(0.003 3.79061e-20 8.18622e-19)
(0.003 -2.2163e-20 7.4282e-19)
(0.003 -3.95857e-20 6.93204e-19)
(0.003 -7.25675e-20 5.70006e-19)
(0.003 7.45808e-20 3.47616e-19)
(0.003 1.24113e-19 2.17403e-19)
(0.003 7.04978e-20 2.30509e-19)
(0.003 1.80944e-19 3.2733e-19)
(0.003 6.25995e-20 4.49063e-19)
(0.003 -5.03562e-20 4.60437e-19)
(0.003 -8.97365e-20 4.95694e-19)
(0.003 -2.03692e-19 4.19045e-19)
(0.003 -4.54769e-20 1.07173e-19)
(0.003 1.51449e-19 -1.08268e-19)
(0.003 4.15222e-20 -5.01607e-20)
(0.003 -1.60795e-19 -7.17207e-20)
(0.003 -1.73724e-19 1.92327e-19)
(0.003 -1.6559e-19 3.12534e-19)
(0.003 -8.2687e-20 1.35397e-19)
(0.003 4.06843e-20 5.94202e-20)
(0.003 6.45406e-20 5.44595e-23)
(0.003 -1.0026e-19 -3.37528e-20)
(0.003 -2.48742e-20 -2.00006e-19)
(0.003 1.25408e-19 -4.46134e-19)
(0.003 1.22667e-19 -3.13858e-19)
(0.003 1.182e-19 -3.15025e-19)
(0.003 4.97181e-20 -4.64609e-19)
(0.003 -2.01017e-19 9.94705e-19)
(0.003 -1.5472e-19 1.43871e-18)
(0.003 9.15559e-20 1.48676e-18)
(0.003 2.89166e-20 1.32826e-18)
(0.003 2.03583e-20 1.2946e-18)
(0.003 -1.71234e-20 1.32017e-18)
(0.003 1.10697e-19 1.30908e-18)
(0.003 2.11122e-19 1.18664e-18)
(0.003 6.42254e-20 1.10298e-18)
(0.003 -9.78688e-20 1.15485e-18)
(0.003 7.44598e-20 1.05408e-18)
(0.003 2.86545e-19 9.02116e-19)
(0.003 9.86201e-20 9.22301e-19)
(0.003 -8.98328e-20 8.19483e-19)
(0.003 -7.59299e-20 6.49139e-19)
(0.003 -9.01092e-20 6.9452e-19)
(0.003 -1.09962e-20 4.993e-19)
(0.003 2.07255e-19 3.7662e-19)
(0.003 1.52196e-19 3.60532e-19)
(0.003 1.12124e-19 2.36686e-19)
(0.003 1.93944e-19 3.63461e-19)
(0.003 5.35653e-20 4.56601e-19)
(0.003 -1.41958e-19 5.0782e-19)
(0.003 -3.00491e-19 4.47236e-19)
(0.003 -2.36913e-19 2.82482e-19)
(0.003 5.19479e-22 1.75616e-19)
(0.003 1.77433e-19 -5.41877e-20)
(0.003 -6.10398e-21 -1.57503e-19)
(0.003 -1.82833e-19 -3.5812e-20)
(0.003 -2.14836e-20 1.91516e-19)
(0.003 1.37038e-19 1.97031e-19)
(0.003 7.79352e-20 4.04635e-20)
(0.003 -7.46686e-20 4.17791e-20)
(0.003 -1.30022e-19 -6.9577e-21)
(0.003 -9.84681e-20 7.86462e-20)
(0.003 1.96055e-20 -1.17023e-19)
(0.003 1.80935e-19 -4.10639e-19)
(0.003 2.17342e-19 -3.52208e-19)
(0.003 1.1548e-19 -4.07181e-19)
(0.003 8.03534e-20 -5.39664e-19)
(0.003 -1.16393e-19 9.40902e-19)
(0.003 -2.78747e-19 1.37199e-18)
(0.003 -1.25909e-19 1.5416e-18)
(0.003 -3.66908e-20 1.40061e-18)
(0.003 5.43857e-20 1.35871e-18)
(0.003 7.12959e-20 1.38158e-18)
(0.003 2.24169e-20 1.33081e-18)
(0.003 9.3454e-20 1.27809e-18)
(0.003 1.48209e-20 1.16715e-18)
(0.003 -7.89114e-20 1.05837e-18)
(0.003 4.15047e-20 1.10214e-18)
(0.003 1.36554e-19 1.04495e-18)
(0.003 -1.56733e-21 1.00198e-18)
(0.003 4.36568e-21 8.17542e-19)
(0.003 -3.331e-21 6.70132e-19)
(0.003 -3.619e-20 6.59316e-19)
(0.003 -1.61964e-20 4.59855e-19)
(0.003 -5.15715e-20 3.69576e-19)
(0.003 8.40222e-20 3.63884e-19)
(0.003 2.45244e-19 3.50438e-19)
(0.003 8.30678e-20 3.89731e-19)
(0.003 3.82021e-20 5.24004e-19)
(0.003 -1.00904e-19 4.98812e-19)
(0.003 -2.96156e-19 3.14876e-19)
(0.003 -1.66306e-19 1.47794e-19)
(0.003 -1.00755e-19 1.67754e-19)
(0.003 -8.47178e-20 -1.99511e-20)
(0.003 -1.88178e-19 -2.06456e-19)
(0.003 -1.05863e-19 3.90762e-20)
(0.003 4.77933e-20 1.549e-19)
(0.003 1.83383e-19 1.45255e-19)
(0.003 1.02928e-19 -1.04175e-19)
(0.003 -2.09742e-20 -1.0519e-19)
(0.003 -1.36669e-20 1.292e-19)
(0.003 -7.02893e-21 1.47224e-19)
(0.003 9.15696e-21 3.67745e-20)
(0.003 1.09988e-19 -2.41745e-19)
(0.003 1.58717e-19 -4.34829e-19)
(0.003 1.00135e-19 -4.40428e-19)
(0.003 1.45524e-19 -5.13608e-19)
(0.003 -1.17383e-19 8.75207e-19)
(0.003 -1.33102e-19 1.31389e-18)
(0.003 -1.81431e-20 1.51251e-18)
(0.003 -7.09797e-20 1.40933e-18)
(0.003 -1.24061e-19 1.38887e-18)
(0.003 -1.76804e-20 1.439e-18)
(0.003 8.72597e-21 1.39931e-18)
(0.003 -2.53696e-20 1.27615e-18)
(0.003 1.73123e-20 1.18429e-18)
(0.003 9.09995e-20 1.16791e-18)
(0.003 4.09258e-20 1.13098e-18)
(0.003 4.42132e-20 1.10564e-18)
(0.003 1.42733e-20 1.01991e-18)
(0.003 1.41048e-20 9.17574e-19)
(0.003 -7.15603e-20 6.23795e-19)
(0.003 -4.36354e-20 5.09674e-19)
(0.003 1.39096e-20 3.97144e-19)
(0.003 -1.01544e-19 3.42559e-19)
(0.003 -3.7557e-20 4.87261e-19)
(0.003 1.74681e-19 4.83976e-19)
(0.003 1.39514e-19 4.67143e-19)
(0.003 7.35376e-20 4.1173e-19)
(0.003 -1.08115e-19 3.37808e-19)
(0.003 -2.04132e-19 1.95934e-19)
(0.003 -1.52464e-19 1.05603e-19)
(0.003 -9.28631e-20 1.79686e-19)
(0.003 -1.80134e-19 1.82039e-20)
(0.003 -2.7241e-19 -7.32512e-20)
(0.003 -1.80482e-19 3.0185e-20)
(0.003 -1.63251e-20 1.44184e-19)
(0.003 -3.00166e-20 5.96681e-20)
(0.003 -3.97894e-20 -1.7164e-19)
(0.003 4.2024e-20 -5.08333e-20)
(0.003 5.93331e-20 1.17618e-19)
(0.003 1.32668e-19 1.34194e-19)
(0.003 1.42677e-19 1.04795e-19)
(0.003 7.95717e-20 -1.37554e-19)
(0.003 1.24722e-20 -4.28854e-19)
(0.003 -5.07972e-20 -5.4238e-19)
(0.003 5.20691e-20 -5.91437e-19)
(0.003 -1.68221e-19 8.15389e-19)
(0.003 -1.93062e-19 1.38345e-18)
(0.003 -1.41106e-19 1.68223e-18)
(0.003 -1.35135e-21 1.49145e-18)
(0.003 5.70281e-20 1.33144e-18)
(0.003 -2.19604e-20 1.40988e-18)
(0.003 -9.63542e-20 1.39367e-18)
(0.003 -1.55596e-19 1.27798e-18)
(0.003 -3.67625e-20 1.23762e-18)
(0.003 2.39716e-20 1.19855e-18)
(0.003 3.3565e-20 1.1401e-18)
(0.003 3.94782e-20 1.13342e-18)
(0.003 7.30161e-20 1.02467e-18)
(0.003 3.41817e-20 9.24224e-19)
(0.003 1.50549e-20 6.62507e-19)
(0.003 4.98692e-20 5.69331e-19)
(0.003 9.06224e-20 4.37854e-19)
(0.003 2.18241e-19 2.31631e-19)
(0.003 1.69384e-19 2.2901e-19)
(0.003 3.05352e-20 4.06009e-19)
(0.003 -1.3847e-19 5.21708e-19)
(0.003 -1.5305e-19 5.90383e-19)
(0.003 -1.01622e-19 3.47768e-19)
(0.003 -4.39719e-20 1.41857e-19)
(0.003 -1.09811e-19 8.51606e-20)
(0.003 -1.67141e-19 1.40073e-19)
(0.003 -1.96895e-19 1.01172e-19)
(0.003 -2.91296e-19 -1.63858e-20)
(0.003 -1.2834e-19 3.92561e-20)
(0.003 -3.81356e-20 7.613e-20)
(0.003 -5.49462e-20 5.47819e-22)
(0.003 -1.57483e-20 -1.75485e-19)
(0.003 4.4282e-20 -7.79511e-20)
(0.003 1.00226e-19 9.95266e-20)
(0.003 1.31786e-19 1.39478e-19)
(0.003 1.16941e-19 5.55175e-20)
(0.003 -2.60619e-20 -1.63326e-19)
(0.003 -1.45164e-19 -3.67482e-19)
(0.003 9.95384e-21 -4.83936e-19)
(0.003 4.42023e-20 -5.3276e-19)
(0.003 -1.30174e-19 8.00101e-19)
(0.003 -2.56878e-19 1.34801e-18)
(0.003 -2.60254e-19 1.55645e-18)
(0.003 2.83439e-20 1.55078e-18)
(0.003 1.27837e-19 1.43647e-18)
(0.003 -8.36093e-20 1.38112e-18)
(0.003 -2.26796e-19 1.35437e-18)
(0.003 -1.50626e-19 1.32222e-18)
(0.003 2.49665e-20 1.29284e-18)
(0.003 3.96582e-20 1.24314e-18)
(0.003 -2.87172e-20 1.1448e-18)
(0.003 3.65033e-20 1.08636e-18)
(0.003 3.13343e-20 1.0365e-18)
(0.003 -1.28992e-20 9.57679e-19)
(0.003 1.47487e-19 6.62514e-19)
(0.003 7.16423e-20 5.55083e-19)
(0.003 -4.53922e-21 5.06774e-19)
(0.003 1.22622e-19 4.24994e-19)
(0.003 2.48627e-19 3.10629e-19)
(0.003 -1.77841e-21 2.97359e-19)
(0.003 -1.58381e-19 4.48654e-19)
(0.003 -1.53972e-19 4.79302e-19)
(0.003 -5.94197e-20 4.18255e-19)
(0.003 -5.63396e-20 2.47095e-19)
(0.003 -6.23803e-21 6.30552e-20)
(0.003 -1.422e-19 4.96098e-20)
(0.003 -3.8255e-20 4.41975e-20)
(0.003 -6.66181e-20 -1.07158e-20)
(0.003 -1.19027e-19 -4.78328e-20)
(0.003 -2.46367e-20 -2.50932e-20)
(0.003 -1.08436e-19 1.23541e-19)
(0.003 -9.63558e-20 -1.62708e-20)
(0.003 -7.66127e-20 -7.22247e-20)
(0.003 4.50066e-20 5.75278e-20)
(0.003 1.35552e-19 1.0788e-19)
(0.003 6.8034e-20 2.01134e-20)
(0.003 1.32454e-20 -4.44078e-20)
(0.003 -1.18794e-20 -2.1212e-19)
(0.003 3.00843e-20 -4.61091e-19)
(0.003 -3.17918e-21 -5.16115e-19)
(0.003 3.46788e-20 8.44154e-19)
(0.003 2.55494e-20 1.36157e-18)
(0.003 -6.55926e-20 1.51854e-18)
(0.003 -6.82366e-20 1.53601e-18)
(0.003 8.10576e-21 1.49242e-18)
(0.003 -8.76087e-20 1.37149e-18)
(0.003 -2.18716e-19 1.26505e-18)
(0.003 -2.00326e-19 1.32078e-18)
(0.003 -1.28472e-19 1.35764e-18)
(0.003 1.00781e-19 1.27927e-18)
(0.003 1.865e-19 1.10819e-18)
(0.003 8.04675e-20 1.10407e-18)
(0.003 1.65396e-20 9.14944e-19)
(0.003 -6.0683e-21 8.67439e-19)
(0.003 6.93313e-20 8.03043e-19)
(0.003 9.89577e-21 6.28095e-19)
(0.003 -9.48898e-20 4.0402e-19)
(0.003 -1.98226e-19 2.74267e-19)
(0.003 -7.61983e-20 3.95404e-19)
(0.003 -4.85612e-20 3.70332e-19)
(0.003 -8.19892e-20 3.8296e-19)
(0.003 -5.85749e-20 5.43188e-19)
(0.003 -2.53055e-20 5.22017e-19)
(0.003 3.30381e-20 1.87053e-19)
(0.003 1.7163e-19 6.35293e-20)
(0.003 9.44246e-20 6.10306e-20)
(0.003 7.42552e-20 1.12082e-19)
(0.003 1.23864e-19 -2.01003e-22)
(0.003 -2.06797e-20 -1.06087e-19)
(0.003 -1.0442e-19 -6.22605e-20)
(0.003 -2.23143e-19 9.35717e-20)
(0.003 -2.14712e-19 1.62103e-20)
(0.003 -1.45616e-19 -1.07794e-19)
(0.003 -2.03091e-20 4.85559e-20)
(0.003 3.36683e-20 1.14424e-19)
(0.003 7.27363e-20 7.92423e-20)
(0.003 8.03221e-20 -2.41429e-20)
(0.003 2.49253e-20 -3.00907e-19)
(0.003 -1.27985e-19 -5.52262e-19)
(0.003 -1.37955e-19 -6.46127e-19)
(0.003 2.04399e-19 8.40926e-19)
(0.003 2.08224e-19 1.32306e-18)
(0.003 -6.20104e-20 1.49791e-18)
(0.003 -1.85617e-19 1.50981e-18)
(0.003 -8.30834e-20 1.51321e-18)
(0.003 2.23639e-20 1.41294e-18)
(0.003 -7.5455e-22 1.2667e-18)
(0.003 -1.67487e-19 1.16933e-18)
(0.003 -2.08618e-19 1.22127e-18)
(0.003 7.23153e-20 1.39437e-18)
(0.003 2.48518e-19 1.37924e-18)
(0.003 -2.20798e-20 1.15563e-18)
(0.003 -4.24383e-20 9.89779e-19)
(0.003 1.40817e-19 7.86553e-19)
(0.003 4.60439e-20 7.14782e-19)
(0.003 -6.25244e-20 5.51648e-19)
(0.003 -1.2223e-19 3.63865e-19)
(0.003 -1.61563e-19 2.60422e-19)
(0.003 -2.45983e-19 3.62408e-19)
(0.003 -1.57622e-19 3.85569e-19)
(0.003 -6.80609e-20 4.17149e-19)
(0.003 -1.58792e-19 4.40393e-19)
(0.003 -7.26491e-20 4.64868e-19)
(0.003 1.16343e-19 3.01382e-19)
(0.003 1.95802e-19 1.67101e-19)
(0.003 1.7698e-19 1.0588e-19)
(0.003 2.16849e-21 2.39265e-20)
(0.003 1.23274e-19 -8.26048e-20)
(0.003 5.67799e-20 -9.72369e-20)
(0.003 -1.76123e-19 -1.45462e-19)
(0.003 -1.00263e-19 -8.76356e-21)
(0.003 -1.224e-19 -5.48787e-20)
(0.003 -4.11862e-20 -1.83352e-19)
(0.003 -6.22175e-21 2.19208e-20)
(0.003 -4.79207e-21 3.90635e-20)
(0.003 1.47545e-19 1.01538e-19)
(0.003 3.49312e-20 8.31329e-20)
(0.003 -7.24938e-20 -2.30221e-19)
(0.003 -1.9686e-19 -6.01683e-19)
(0.003 -2.90224e-19 -5.84844e-19)
(0.003 1.96749e-19 9.33126e-19)
(0.003 2.13477e-19 1.4325e-18)
(0.003 5.92416e-21 1.46888e-18)
(0.003 -1.18617e-19 1.46407e-18)
(0.003 -1.48503e-19 1.44451e-18)
(0.003 1.40819e-20 1.35866e-18)
(0.003 -5.56242e-20 1.29236e-18)
(0.003 -6.63499e-20 1.24897e-18)
(0.003 2.62168e-20 1.22884e-18)
(0.003 2.07732e-20 1.37955e-18)
(0.003 -1.48652e-20 1.36625e-18)
(0.003 -5.53591e-20 1.05853e-18)
(0.003 -2.69056e-20 9.12037e-19)
(0.003 -2.47516e-20 8.98926e-19)
(0.003 -3.89874e-20 7.23151e-19)
(0.003 -4.823e-20 5.10023e-19)
(0.003 -1.76876e-19 3.29045e-19)
(0.003 -2.41795e-19 2.69265e-19)
(0.003 -3.23677e-19 2.89745e-19)
(0.003 -1.62081e-19 3.46563e-19)
(0.003 -5.613e-20 5.31432e-19)
(0.003 -1.63888e-19 4.17775e-19)
(0.003 3.0187e-20 3.69108e-19)
(0.003 2.14529e-19 3.01734e-19)
(0.003 1.79127e-19 1.37815e-19)
(0.003 1.88999e-19 8.98099e-20)
(0.003 8.88678e-20 -2.22685e-20)
(0.003 8.33062e-20 -1.9383e-19)
(0.003 9.11343e-20 -1.22767e-19)
(0.003 -4.82863e-20 -1.03424e-19)
(0.003 7.97887e-20 -4.3778e-20)
(0.003 2.08252e-19 -1.9187e-20)
(0.003 6.94017e-20 -1.4212e-19)
(0.003 -1.74897e-20 -2.57012e-20)
(0.003 5.81517e-20 6.61491e-20)
(0.003 7.05979e-20 9.71147e-20)
(0.003 -8.35733e-20 -9.86613e-21)
(0.003 -1.81391e-19 -2.56935e-19)
(0.003 -1.57145e-19 -3.96317e-19)
(0.003 -1.21874e-19 -2.53602e-19)
(0.003 -7.6056e-20 9.36105e-19)
(0.003 -9.89136e-20 1.43406e-18)
(0.003 1.24517e-20 1.50866e-18)
(0.003 -5.58702e-20 1.3984e-18)
(0.003 -1.43991e-19 1.41038e-18)
(0.003 -2.33901e-20 1.46599e-18)
(0.003 4.38497e-21 1.26948e-18)
(0.003 1.3268e-19 1.131e-18)
(0.003 1.25771e-20 1.16203e-18)
(0.003 -1.96234e-19 1.29391e-18)
(0.003 -2.35623e-19 1.31552e-18)
(0.003 -8.42429e-20 1.18974e-18)
(0.003 -9.46911e-20 9.92158e-19)
(0.003 -1.30232e-19 7.57773e-19)
(0.003 -5.78302e-20 6.17105e-19)
(0.003 -1.33359e-19 5.72685e-19)
(0.003 -2.00241e-19 3.50906e-19)
(0.003 -1.99602e-19 1.88266e-19)
(0.003 -2.63995e-19 2.57973e-19)
(0.003 -2.23557e-19 3.79812e-19)
(0.003 -1.44783e-19 4.3398e-19)