/*--------------------------------*- C++ -*----------------------------------*\
| =========                 |                                                 |
| \\      /  F ield         | OpenFOAM: The Open Source CFD Toolbox           |
|  \\    /   O peration     | Version:  v2012                                 |
|   \\  /    A nd           | Website:  www.openfoam.com                      |
|    \\/     M anipulation  |                                                 |
\*---------------------------------------------------------------------------*/
FoamFile
{
    version     2.0;
    format      ascii;
    class       volScalarField;
    location    "470/rightSolid";
    object      T;
}
// * * * * * * * * * * * * * * * * * * * * * * * * * * * * * * * * * * * * * //

dimensions      [0 0 0 1 0 0 0];


internalField   nonuniform List<scalar> 
130
(
753.51605
761.50158
769.83494
778.10085
785.98187
793.26231
799.79858
805.4887
810.27242
814.12154
817.01762
818.95721
819.93276
747.66229
756.97927
766.48532
775.6954
784.29486
792.09949
799.00425
804.94718
809.90272
813.86501
816.83466
818.81782
819.81259
735.86072
748.27009
760.30443
771.42058
781.39046
790.1518
797.70902
804.09165
809.33614
813.48703
816.58007
818.63794
819.66427
718.24296
736.48428
752.60083
766.43139
778.17608
788.08463
796.38567
803.2441
808.79809
813.15086
816.37247
818.50445
819.56502
697.47643
725.33571
746.29763
762.72059
775.92691
786.69749
795.51802
802.70197
808.46873
812.96794
816.27101
818.44234
819.51981
697.44356
725.30441
746.27666
762.70364
775.91289
786.69039
795.51074
802.69577
808.46986
812.96605
816.26777
818.4372
819.51373
718.10962
736.38611
752.53516
766.38571
778.13774
788.04764
796.34375
803.20512
808.77795
813.14244
816.36527
818.49225
819.55074
735.60655
748.08428
760.1687
771.3282
781.32693
790.09435
797.64385
804.02347
809.2886
813.4571
816.55851
818.61408
819.64012
747.32508
756.72193
766.29325
775.55705
784.19628
792.01853
798.92089
804.86411
809.83889
813.82212
816.80821
818.79703
819.79322
753.15383
761.22815
769.62928
777.94595
785.86552
793.16591
799.70198
805.39343
810.1976
814.0702
816.98859
818.94085
819.91918
)
;

boundaryField
{
    maxX
    {
        type            zeroGradient;
    }
    minZ
    {
        type            zeroGradient;
    }
    maxZ
    {
        type            zeroGradient;
    }
    rightSolid_to_bottomWater
    {
        type            compressible::turbulentTemperatureCoupledBaffleMixed;
        refValue        nonuniform List<scalar> 
130
(
935.69959
934.50133
933.32504
932.20266
930.36126
928.98143
929.49609
929.97565
929.81015
930.41919
930.26488
930.77345
931.79452
935.10914
933.25536
932.12125
930.79977
929.3758
928.76814
929.40863
929.60082
929.71687
930.08522
929.9276
930.2473
931.04821
930.32618
930.86651
929.79695
928.96525
928.06707
928.48818
929.40037
930.64105
930.37908
930.0945
930.20511
931.56647
931.60254
925.78952
926.32032
926.11171
926.49082
927.92645
928.28476
930.55742
930.58797
930.22523
929.95069
930.66717
932.23084
932.54224
921.35511
926.48646
927.83604
928.1482
928.78558
929.4895
930.17548
929.87394
929.68831
933.40434
933.79967
933.81531
933.66562
925.13939
926.69819
929.00679
928.23227
928.46349
930.91881
931.19777
930.64128
932.43879
934.1701
934.58461
934.42031
934.24664
933.44769
930.65878
930.4551
929.85566
929.94849
930.07369
930.97475
930.90669
933.52585
934.0516
934.369
934.55528
934.70632
936.63738
936.85857
933.68802
933.46756
933.65988
933.06657
931.97748
931.53786
934.11353
934.27076
934.47481
934.29257
934.26264
941.06854
937.96842
936.39273
935.50733
935.36228
935.10183
933.70993
932.53374
934.16257
934.9088
935.35541
935.07645
935.31572
942.38728
942.51177
940.9191
939.08688
937.63219
936.46238
934.74668
933.26862
934.48173
935.26186
935.92272
936.59861
936.82686
)
;
        refGradient     uniform 0;
        valueFraction   nonuniform List<scalar> 
130
(
0.0075140686
0.0075140686
0.0075140686
0.0075140686
0.0075140686
0.0075140686
0.0075140686
0.0075140686
0.0075140686
0.0075140686
0.0075140686
0.0075140686
0.0075140686
0.0075140686
0.0075140686
0.0075140686
0.0075140686
0.0075140686
0.0075140686
0.0075140686
0.0075140686
0.0075140686
0.0075140686
0.0075140686
0.0075140686
0.0075140686
0.0075140686
0.0075140686
0.0075140686
0.0075140686
0.0075140686
0.0075140686
0.0075140686
0.0075140686
0.0075140686
0.0075140686
0.0075140686
0.0075140686
0.0075140686
0.0075140686
0.0075140686
0.0075140686
0.0075140686
0.0075140686
0.0075140686
0.0075140686
0.0075140686
0.0075140686
0.0075140686
0.0075140686
0.0075140686
0.0075140686
0.0075140686
0.0075140686
0.0075140686
0.0075140686
0.0075140686
0.0075140686
0.0075140686
0.0075140686
0.0075140686
0.0075140686
0.0075140686
0.0075140686
0.0075140686
0.0075140686
0.0075140686
0.0075140686
0.0075140686
0.0075140686
0.0075140686
0.0075140686
0.0075140686
0.0075140686
0.0075140686
0.0075140686
0.0075140686
0.0075140686
0.0075140686
0.0075140686
0.0075140686
0.0075140686
0.0075140686
0.0075140686
0.0075140686
0.0075140686
0.0075140686
0.0075140686
0.0075140686
0.0075140686
0.0075140686
0.0075140686
0.0075140686
0.0075140686
0.0075140686
0.0075140686
0.0075140686
0.0075140686
0.0075140686
0.0075140686
0.0075140686
0.0075140686
0.0075140686
0.0075140686
0.0075140686
0.0075140686
0.0075140686
0.0075140686
0.0075140686
0.0075140686
0.0075140686
0.0075140686
0.0075140686
0.0075140686
0.0075140686
0.0075140686
0.0075140686
0.0075140686
0.0075140686
0.0075140686
0.0075140686
0.0075140686
0.0075140686
0.0075140686
0.0075140686
0.0075140686
0.0075140686
0.0075140686
0.0075140686
0.0075140686
)
;
        value           nonuniform List<scalar> 
130
(
754.88487
762.80138
771.06328
779.25866
787.06665
794.28205
800.77309
806.4241
811.17066
814.99545
817.86863
819.79748
820.77337
749.07065
758.30367
767.72976
776.86072
785.38489
793.12634
799.98406
805.88381
810.80301
814.73832
817.6845
819.65519
820.64849
737.32182
749.64197
761.57783
772.60422
782.49245
791.19114
798.69846
805.04248
810.24563
814.36323
817.43389
819.48655
820.50543
719.80227
737.9105
753.90437
767.63386
779.30111
789.13792
797.39369
804.20084
809.71041
814.02846
817.23127
819.35899
820.41393
699.15837
726.84688
747.66144
763.96336
777.07525
787.77021
796.52964
803.65738
809.37946
813.87281
817.15405
819.3092
820.37746
699.15411
726.81734
747.6494
763.94716
777.05891
787.77391
796.53009
803.65698
809.40121
813.87665
817.1567
819.30861
820.37575
719.72722
737.84545
753.87171
767.61374
779.27819
789.11458
797.35514
804.16444
809.71509
814.05077
817.25179
819.3642
820.41588
737.11658
749.50225
761.4721
772.54615
782.47122
791.16831
798.65292
804.98128
810.22623
814.36465
817.44432
819.4831
820.50121
748.78029
758.08329
767.57089
776.75847
785.33172
793.09325
799.93332
805.82307
810.77273
814.73169
817.69872
819.67053
820.66105
754.57512
762.58973
770.91577
779.15622
787.00538
794.24216
800.71627
806.3539
811.13113
814.98054
817.88201
819.82469
820.7974
)
;
        Tnbr            T;
        thicknessLayers List<scalar> 0();
        kappaLayers     List<scalar> 0();
        kappaMethod     solidThermo;
        kappa           none;
        alphaAni        none;
        alpha           none;
        field           T;
    }
    rightSolid_to_topAir
    {
        type            compressible::turbulentTemperatureCoupledBaffleMixed;
        refValue        nonuniform List<scalar> 
130
(
492.71045
486.01514
480.16106
475.44693
471.93243
469.55071
468.19849
467.79538
468.32199
469.85649
472.63378
477.21772
484.5343
437.88538
432.35548
429.00604
427.1455
426.24258
425.98176
426.24033
427.03448
428.47652
430.78208
434.35227
440.20354
450.36139
447.8649
438.98759
431.40943
425.06001
419.8756
415.92972
413.40289
412.44624
413.0773
415.21976
418.86132
424.94277
435.44616
500.78722
502.19334
502.83434
502.322
500.47479
497.27134
492.89106
487.89582
483.44507
481.34386
483.58924
490.66304
501.59828
503.59874
507.95313
512.54933
517.06824
521.19717
524.63593
527.14469
528.64015
529.3397
529.90199
531.46408
535.6646
544.39155
503.13878
507.02485
511.04456
514.83995
518.11959
520.68968
522.46471
523.47913
523.94077
524.40805
525.9065
529.79429
537.52345
495.97713
496.18318
495.15154
492.72809
489.29344
485.44492
481.61975
478.03359
474.97259
473.60315
476.44691
485.3565
495.65994
444.30854
435.86286
428.7226
422.9399
418.62637
415.9015
414.78583
415.15303
416.75079
419.35992
423.05283
428.95785
440.78002
436.50857
431.15684
427.85244
425.9599
425.08329
425.04605
425.78594
427.25973
429.45945
432.48795
436.76433
443.40918
453.13157
491.64586
484.85491
478.92813
474.14979
470.60452
468.27171
467.08263
466.95172
467.8159
469.69152
472.77274
477.60345
484.90617
)
;
        refGradient     uniform 0;
        valueFraction   nonuniform List<scalar> 
130
(
0.00032132529
0.00032132529
0.00032132529
0.00032132529
0.00032132529
0.00032132529
0.00032132529
0.00032132529
0.00032132529
0.00032132529
0.00032132529
0.00032132529
0.00032132529
0.00032132529
0.00032132529
0.00032132529
0.00032132529
0.00032132529
0.00032132529
0.00032132529
0.00032132529
0.00032132529
0.00032132529
0.00032132529
0.00032132529
0.00032132529
0.00032132529
0.00032132529
0.00032132529
0.00032132529
0.00032132529
0.00032132529
0.00032132529
0.00032132529
0.00032132529
0.00032132529
0.00032132529
0.00032132529
0.00032132529
0.00032132529
0.00032132529
0.00032132529
0.00032132529
0.00032132529
0.00032132529
0.00032132529
0.00032132529
0.00032132529
0.00032132529
0.00032132529
0.00032132529
0.00032132529
0.00032132529
0.00032132529
0.00032132529
0.00032132529
0.00032132529
0.00032132529
0.00032132529
0.00032132529
0.00032132529
0.00032132529
0.00032132529
0.00032132529
0.00032132529
0.00032132529
0.00032132529
0.00032132529
0.00032132529
0.00032132529
0.00032132529
0.00032132529
0.00032132529
0.00032132529
0.00032132529
0.00032132529
0.00032132529
0.00032132529
0.00032132529
0.00032132529
0.00032132529
0.00032132529
0.00032132529
0.00032132529
0.00032132529
0.00032132529
0.00032132529
0.00032132529
0.00032132529
0.00032132529
0.00032132529
0.00032132529
0.00032132529
0.00032132529
0.00032132529
0.00032132529
0.00032132529
0.00032132529
0.00032132529
0.00032132529
0.00032132529
0.00032132529
0.00032132529
0.00032132529
0.00032132529
0.00032132529
0.00032132529
0.00032132529
0.00032132529
0.00032132529
0.00032132529
0.00032132529
0.00032132529
0.00032132529
0.00032132529
0.00032132529
0.00032132529
0.00032132529
0.00032132529
0.00032132529
0.00032132529
0.00032132529
0.00032132529
0.00032132529
0.00032132529
0.00032132529
0.00032132529
0.00032132529
0.00032132529
0.00032132529
)
;
        value           nonuniform List<scalar> 
130
(
753.43212
761.41293
769.74172
778.00348
785.88086
793.15823
799.69198
805.38018
810.16257
814.01096
816.90702
818.84748
819.82506
747.56262
756.87481
766.37672
775.58326
784.17969
791.98176
798.88441
804.82572
809.78016
813.74194
816.71181
818.69625
819.69395
735.76805
748.17054
760.19857
771.30912
781.27414
790.03142
797.58543
803.96573
809.20878
813.35906
816.45231
818.51149
819.54086
718.17287
736.40877
752.52034
766.3463
778.08664
787.991
796.28799
803.14264
808.69345
813.0442
816.26552
818.3991
819.46284
697.41383
725.26556
746.22223
762.64139
775.8448
786.61305
795.43158
802.61374
808.37891
812.87688
816.17942
818.35141
819.43135
697.38075
725.23391
746.20077
762.62372
775.82979
786.60469
795.42279
802.60586
808.37827
812.87319
816.17436
818.34436
819.42303
718.03778
736.30849
752.4521
766.29748
778.04466
787.95015
796.24238
803.1004
808.67046
813.03314
816.25588
818.38505
819.44652
735.51242
747.98346
760.06176
771.21588
781.21003
789.97377
797.5205
803.89817
809.16215
813.33021
816.43184
818.48867
819.51819
747.22461
756.61677
766.184
775.44425
784.08046
791.9002
798.8006
804.74241
809.71633
813.6993
816.68583
818.67617
819.67518
753.06917
761.13874
769.53528
777.84777
785.76369
793.06102
799.59465
805.28429
810.08724
813.95924
816.87772
818.83092
819.8113
)
;
        Tnbr            T;
        thicknessLayers List<scalar> 0();
        kappaLayers     List<scalar> 0();
        kappaMethod     solidThermo;
        kappa           none;
        alphaAni        none;
        alpha           none;
        field           T;
    }
    rightSolid_to_heater
    {
        type            compressible::turbulentTemperatureCoupledBaffleMixed;
        refValue        nonuniform List<scalar> 10(746.36635 739.18983 724.15475 699.3651 658.19951 658.15173 699.16599 723.81121 738.7552 745.90872);
        refGradient     uniform 0;
        valueFraction   nonuniform List<scalar> 10(0.50000003 0.50000003 0.50000003 0.50000003 0.50000003 0.50000003 0.50000003 0.50000003 0.50000003 0.50000003);
        value           nonuniform List<scalar> 10(749.94114 743.42599 730.00767 708.80392 677.83782 677.79746 708.63757 729.70861 743.03984 749.53096);
        Tnbr            T;
        thicknessLayers List<scalar> 0();
        kappaLayers     List<scalar> 0();
        kappaMethod     solidThermo;
        kappa           none;
        alphaAni        none;
        alpha           none;
        field           T;
    }
}


// ************************************************************************* //
