/*--------------------------------*- C++ -*----------------------------------*\
| =========                 |                                                 |
| \\      /  F ield         | OpenFOAM: The Open Source CFD Toolbox           |
|  \\    /   O peration     | Version:  v2012                                 |
|   \\  /    A nd           | Website:  www.openfoam.com                      |
|    \\/     M anipulation  |                                                 |
\*---------------------------------------------------------------------------*/
FoamFile
{
    version     2.0;
    format      ascii;
    class       volScalarField;
    location    "160/heater";
    object      T;
}
// * * * * * * * * * * * * * * * * * * * * * * * * * * * * * * * * * * * * * //

dimensions      [0 0 0 1 0 0 0];


internalField   nonuniform List<scalar> 
80
(
639.3856
640.76633
643.4742
647.31577
632.72436
634.36281
637.59389
642.21668
618.53802
620.69738
625.05543
631.46543
595.14015
597.85684
603.81824
613.50341
340.25608
337.40741
337.47949
340.45886
405.76548
402.09198
402.33309
406.37248
459.4718
456.16716
456.7644
460.96564
502.99207
500.54093
501.99282
506.65486
536.88591
536.00313
539.356
545.95963
560.51635
562.84466
569.5872
583.50395
340.27886
337.41078
337.46713
340.42035
405.80705
402.10886
402.33931
406.36505
459.49383
456.19706
456.80132
461.00011
503.03731
500.57668
502.02999
506.69264
536.8781
536.02713
539.38668
545.98167
560.53424
562.87258
569.6193
583.53154
595.23328
597.98118
603.95338
613.64074
618.73856
620.90314
625.25027
631.64653
632.92656
634.55822
637.7677
642.3392
639.57981
640.93439
643.60092
647.38324
)
;

boundaryField
{
    minY
    {
        type            fixedValue;
        value           uniform 300;
    }
    minZ
    {
        type            zeroGradient;
    }
    maxZ
    {
        type            zeroGradient;
    }
    heater_to_topAir
    {
        type            compressible::turbulentTemperatureCoupledBaffleMixed;
        refValue        nonuniform List<scalar> 
40
(
447.58787
449.3475
449.73828
448.83016
427.66941
425.18403
421.65301
417.72778
435.12686
434.15337
431.33623
426.60531
444.66005
447.54042
449.8664
451.11837
444.09016
446.24176
448.36234
449.90254
444.11901
446.27429
448.48114
450.17626
444.76296
447.67642
450.06056
451.39488
435.21576
434.24692
431.42845
426.69203
427.72967
425.24569
421.71899
417.8022
447.64571
449.4118
449.80687
448.90071
)
;
        refGradient     uniform 0;
        valueFraction   nonuniform List<scalar> 
40
(
0.00032132529
0.00032132529
0.00032132529
0.00032132529
0.00032132529
0.00032132529
0.00032132529
0.00032132529
0.00032132529
0.00032132529
0.00032132529
0.00032132529
0.00032132529
0.00032132529
0.00032132529
0.00032132529
0.00032132529
0.00032132529
0.00032132529
0.00032132529
0.00032132529
0.00032132529
0.00032132529
0.00032132529
0.00032132529
0.00032132529
0.00032132529
0.00032132529
0.00032132529
0.00032132529
0.00032132529
0.00032132529
0.00032132529
0.00032132529
0.00032132529
0.00032132529
0.00032132529
0.00032132529
0.00032132529
0.00032132529
)
;
        value           nonuniform List<scalar> 
40
(
639.30937
640.69008
643.3969
647.23659
632.64434
634.28133
637.50991
642.12951
618.46586
620.62406
624.97942
631.3853
595.07986
597.79643
603.75624
613.438
560.46882
562.79686
569.53744
583.44936
560.48663
562.8247
569.56951
583.47697
595.17272
597.92049
603.89115
613.57513
618.66598
620.82939
625.17389
631.56608
632.84604
634.47627
637.68333
642.2517
639.50311
640.85771
643.52327
647.30373
)
;
        Tnbr            T;
        thicknessLayers List<scalar> 0();
        kappaLayers     List<scalar> 0();
        kappaMethod     solidThermo;
        kappa           none;
        alphaAni        none;
        alpha           none;
        field           T;
    }
    heater_to_rightSolid
    {
        type            compressible::turbulentTemperatureCoupledBaffleMixed;
        refValue        nonuniform List<scalar> 10(651.97899 647.84644 639.42675 626.69343 611.66969 611.67865 626.81514 639.56148 647.91435 652.00132);
        refGradient     uniform 0;
        valueFraction   nonuniform List<scalar> 10(0.49999997 0.49999997 0.49999997 0.49999997 0.49999997 0.49999997 0.49999997 0.49999997 0.49999997 0.49999997);
        value           nonuniform List<scalar> 10(649.63968 645.02404 635.43894 620.0918 597.58099 597.59924 620.2212 635.59671 645.1191 649.68441);
        Tnbr            T;
        thicknessLayers List<scalar> 0();
        kappaLayers     List<scalar> 0();
        kappaMethod     solidThermo;
        kappa           none;
        alphaAni        none;
        alpha           none;
        field           T;
    }
    heater_to_leftSolid
    {
        type            compressible::turbulentTemperatureCoupledBaffleMixed;
        refValue        nonuniform List<scalar> 10(699.94571 699.8246 699.60141 699.27805 699.05452 699.14397 699.49896 699.86367 700.12283 700.19078);
        refGradient     uniform 0;
        valueFraction   nonuniform List<scalar> 10(2.0832898e-05 2.0832898e-05 2.0832898e-05 2.0832898e-05 2.0832898e-05 2.0832898e-05 2.0832898e-05 2.0832898e-05 2.0832898e-05 2.0832898e-05);
        value           nonuniform List<scalar> 10(639.37226 632.71163 618.52648 595.13038 560.50912 560.52692 595.22324 618.72663 632.91337 639.56605);
        Tnbr            T;
        thicknessLayers List<scalar> 1(0.001);
        kappaLayers     List<scalar> 1(0.0005);
        kappaMethod     solidThermo;
        kappa           none;
        alphaAni        none;
        alpha           none;
        field           T;
    }
    heater_to_bottomWater
    {
        type            compressible::turbulentTemperatureCoupledBaffleMixed;
        refValue        nonuniform List<scalar> 
92
(
974.12841
971.56972
974.24269
979.21078
974.32071
971.38416
972.3578
976.53005
970.19116
969.40237
972.41057
970.38515
966.76697
971.74509
972.89309
973.71631
970.9847
971.93536
971.40167
972.00593
969.01411
968.2259
961.89801
960.61819
967.3661
965.88412
964.21602
960.35449
962.3336
962.3336
957.18958
957.18958
957.56326
957.56326
956.23313
956.23313
952.21155
961.25482
966.91706
971.17374
962.09519
968.76221
958.09246
966.42623
950.96427
959.64512
953.52182
971.78716
969.79705
967.57627
953.82486
970.79182
972.0721
970.57203
970.35503
969.69284
968.90647
971.53774
959.97772
969.41083
972.18679
969.96585
967.22581
970.87176
967.07195
963.01285
970.60936
969.10192
964.69277
969.5939
945.19872
961.37076
963.21214
963.24673
955.696
963.67294
961.37076
963.21214
963.24673
963.67294
979.12909
979.86669
980.42815
981.66494
981.19155
978.79112
980.76953
980.62877
981.56471
976.70702
978.14935
979.51732
)
;
        refGradient     uniform 0;
        valueFraction   nonuniform List<scalar> 
92
(
0.0075140686
0.0075140686
0.0075140686
0.0075140686
0.0075140686
0.0075140686
0.0075140686
0.0075140686
0.0075140686
0.0075140686
0.0075140686
0.0075140686
0.0075140686
0.0075140686
0.0075140686
0.0075140686
0.0075140686
0.0075140686
0.0075140686
0.0075140686
0.0075140686
0.0075140686
0.0075140686
0.0075140686
0.0075140686
0.0075140686
0.0075140686
0.0075140686
0.0075140686
0.0075140686
0.0075140686
0.0075140686
0.0075140686
0.0075140686
0.0075140686
0.0075140686
0.0075140679
0.0075140679
0.0075140679
0.0075140679
0.0075140679
0.0075140679
0.0075140679
0.0075140679
0.0075140679
0.0075140679
0.0075140679
0.0075140686
0.0075140686
0.0075140686
0.0075140679
0.0075140686
0.0075140679
0.0075140686
0.0075140686
0.0075140686
0.0075140679
0.0075140686
0.0075140679
0.0075140686
0.0075140686
0.0075140686
0.0075140679
0.0075140686
0.0075140679
0.0075140686
0.0075140686
0.0075140686
0.0075140679
0.0075140686
0.0075140679
0.0075140686
0.0075140686
0.0075140686
0.0075140679
0.0075140686
0.0075140686
0.0075140686
0.0075140686
0.0075140686
0.0075140686
0.0075140686
0.0075140686
0.0075140686
0.0075140686
0.0075140686
0.0075140686
0.0075140686
0.0075140686
0.0075140686
0.0075140686
0.0075140686
)
;
        value           nonuniform List<scalar> 
92
(
641.88639
643.23737
645.94468
649.79437
635.27711
636.88105
640.09484
644.71381
621.16724
623.30429
627.65182
633.9979
344.96275
342.17289
342.25302
345.21606
410.00976
406.37096
406.60622
410.61983
463.29588
460.01007
460.55523
464.71532
506.47488
504.03091
505.45925
510.05718
597.88741
540.07444
600.54487
539.15946
606.46386
542.48969
616.06557
549.03342
344.85338
345.12243
409.97919
410.61357
463.24389
464.77651
506.4052
510.1028
539.98901
549.05905
344.88587
345.02312
342.16166
342.20084
345.02834
345.15583
410.0593
410.04803
406.37594
406.59965
410.58923
410.60901
463.24993
463.32081
460.06956
460.65257
464.79926
464.82666
506.51754
506.48704
504.10191
505.53291
510.12737
510.1642
539.93792
540.05944
539.2285
542.56283
549.0513
549.11124
597.97234
600.71325
606.64045
616.25753
621.43305
623.58674
627.90511
634.2621
635.52897
637.13022
640.3302
644.86589
642.13459
643.44238
646.09947
649.8633
)
;
        Tnbr            T;
        thicknessLayers List<scalar> 0();
        kappaLayers     List<scalar> 0();
        kappaMethod     solidThermo;
        kappa           none;
        alphaAni        none;
        alpha           none;
        field           T;
    }
}


// ************************************************************************* //
