/*--------------------------------*- C++ -*----------------------------------*\
| =========                 |                                                 |
| \\      /  F ield         | OpenFOAM: The Open Source CFD Toolbox           |
|  \\    /   O peration     | Version:  v2012                                 |
|   \\  /    A nd           | Website:  www.openfoam.com                      |
|    \\/     M anipulation  |                                                 |
\*---------------------------------------------------------------------------*/
FoamFile
{
    version     2.0;
    format      ascii;
    class       volScalarField;
    location    "710/leftSolid";
    object      T;
}
// * * * * * * * * * * * * * * * * * * * * * * * * * * * * * * * * * * * * * //

dimensions      [0 0 0 1 0 0 0];


internalField   nonuniform List<scalar> 
130
(
926.84425
926.80844
926.72988
926.60473
926.43215
926.21194
925.94248
925.6209
925.24074
924.7856
924.36684
924.07019
923.91569
926.80566
926.76721
926.68487
926.55768
926.38447
926.16442
925.89766
925.58501
925.22919
924.83252
924.44625
924.12378
923.92176
926.72387
926.68472
926.60018
926.46883
926.29165
926.06964
925.80475
925.50078
925.13442
924.73853
924.35465
924.02642
923.81582
926.61615
926.57404
926.48045
926.33555
926.14955
925.92346
925.65711
925.34605
924.97335
924.55698
924.14926
923.81304
923.60481
926.4824
926.43596
926.33065
926.16971
925.98487
925.76415
925.49792
925.1841
924.80824
924.37051
923.92814
923.60158
923.40041
926.39213
926.34444
926.24519
926.09495
925.89758
925.64655
925.36794
925.0541
924.6917
924.28223
923.8928
923.55964
923.35132
926.39999
926.35665
926.26058
926.10998
925.8987
925.63527
925.35411
925.06216
924.74704
924.40464
924.039
923.68179
923.49495
926.45256
926.41092
926.3062
926.13729
925.91884
925.67965
925.42548
925.155
924.8645
924.55629
924.24216
923.93547
923.76807
926.52047
926.47308
926.36842
926.20005
925.9735
925.7292
925.4922
925.25054
924.99818
924.73581
924.47257
924.2332
924.11827
926.58001
926.52948
926.4158
926.22288
925.97607
925.74449
925.5199
925.29567
925.07079
924.85016
924.64078
924.47158
924.38013
)
;

boundaryField
{
    minX
    {
        type            zeroGradient;
    }
    minZ
    {
        type            zeroGradient;
    }
    maxZ
    {
        type            zeroGradient;
    }
    leftSolid_to_bottomWater
    {
        type            compressible::turbulentTemperatureCoupledBaffleMixed;
        refValue        nonuniform List<scalar> 
130
(
965.89088
965.79568
965.66575
965.36691
965.13704
965.13493
965.15047
965.05583
964.79746
950.52478
939.76016
938.13908
938.08893
965.86147
965.51786
964.96819
964.76713
964.79613
964.85309
964.92091
964.84857
965.85178
963.13874
959.2889
952.6141
940.95547
964.05281
964.24706
964.37548
964.39988
964.37862
964.2991
964.16109
966.99645
962.9094
959.29322
955.45718
947.55204
936.25706
963.50715
964.15256
964.07906
962.83667
962.26426
961.89923
962.24312
963.05909
959.53961
953.00509
945.28598
934.98982
926.5187
961.28748
961.70503
960.11094
955.58766
956.85833
959.24678
959.51066
959.45281
955.92076
944.17861
927.80922
926.81874
919.09997
958.84957
958.06961
957.17688
956.45226
956.15301
952.59251
952.27854
951.05301
946.65821
935.42508
932.29249
925.15413
914.32996
960.88352
960.85496
959.99916
959.45995
956.72005
950.53764
948.65194
948.86183
948.2945
947.61891
941.99191
921.35648
919.18648
961.82386
963.33835
961.53041
957.23163
952.42912
952.09833
951.85293
950.87601
948.62879
945.72612
943.60258
929.16734
924.69706
962.54647
962.22286
961.78327
960.53172
955.58182
951.61017
951.96381
951.77881
950.81257
948.95869
945.90054
936.01276
938.49904
964.5096
964.35816
964.24249
959.27652
950.82071
951.03966
950.88683
950.31795
949.53037
949.40206
947.9796
946.38893
946.75073
)
;
        refGradient     uniform 0;
        valueFraction   nonuniform List<scalar> 
130
(
0.0075140686
0.0075140686
0.0075140686
0.0075140686
0.0075140686
0.0075140686
0.0075140686
0.0075140686
0.0075140686
0.0075140686
0.0075140686
0.0075140686
0.0075140686
0.0075140686
0.0075140686
0.0075140686
0.0075140686
0.0075140686
0.0075140686
0.0075140686
0.0075140686
0.0075140686
0.0075140686
0.0075140686
0.0075140686
0.0075140686
0.0075140686
0.0075140686
0.0075140686
0.0075140686
0.0075140686
0.0075140686
0.0075140686
0.0075140686
0.0075140686
0.0075140686
0.0075140686
0.0075140686
0.0075140686
0.0075140686
0.0075140686
0.0075140686
0.0075140686
0.0075140686
0.0075140686
0.0075140686
0.0075140686
0.0075140686
0.0075140686
0.0075140686
0.0075140686
0.0075140686
0.0075140686
0.0075140686
0.0075140686
0.0075140686
0.0075140686
0.0075140686
0.0075140686
0.0075140686
0.0075140686
0.0075140686
0.0075140686
0.0075140686
0.0075140686
0.0075140686
0.0075140686
0.0075140686
0.0075140686
0.0075140686
0.0075140686
0.0075140686
0.0075140686
0.0075140686
0.0075140686
0.0075140686
0.0075140686
0.0075140686
0.0075140686
0.0075140686
0.0075140686
0.0075140686
0.0075140686
0.0075140686
0.0075140686
0.0075140686
0.0075140686
0.0075140686
0.0075140686
0.0075140686
0.0075140686
0.0075140686
0.0075140686
0.0075140686
0.0075140686
0.0075140686
0.0075140686
0.0075140686
0.0075140686
0.0075140686
0.0075140686
0.0075140686
0.0075140686
0.0075140686
0.0075140686
0.0075140686
0.0075140686
0.0075140686
0.0075140686
0.0075140686
0.0075140686
0.0075140686
0.0075140686
0.0075140686
0.0075140686
0.0075140686
0.0075140686
0.0075140686
0.0075140686
0.0075140686
0.0075140686
0.0075140686
0.0075140686
0.0075140686
0.0075140686
0.0075140686
0.0075140686
0.0075140686
0.0075140686
0.0075140686
)
;
        value           nonuniform List<scalar> 
130
(
927.13707
927.1008
927.02183
926.89534
926.72228
926.50366
926.23627
925.91635
925.53708
924.97813
924.48164
924.17504
924.0214
927.09858
927.05782
926.97194
926.84415
926.67241
926.45438
926.19006
925.87914
925.53349
925.11936
924.70702
924.33681
924.04889
927.00389
926.96645
926.88346
926.75324
926.57717
926.35617
926.09216
925.81172
925.41739
924.99727
924.58745
924.20238
923.90866
926.89293
926.85593
926.76244
926.60925
926.42028
926.19308
925.93125
925.62864
925.23233
924.77003
924.30745
923.89663
923.62639
926.74347
926.70049
926.58396
926.39019
926.21626
926.01508
925.7528
925.44093
925.04148
924.51903
923.95698
923.62544
923.3679
926.63557
926.58237
926.47716
926.32259
926.12445
925.84851
925.56961
925.24896
924.85638
924.36573
923.95569
923.57143
923.28351
926.65865
926.61542
926.51367
926.36022
926.12998
925.8221
925.52881
925.24063
924.92369
924.57884
924.1737
923.66419
923.46253
926.7179
926.68794
926.57046
926.37059
926.11778
925.8779
925.62379
925.34801
925.04284
924.71517
924.38746
923.97463
923.77496
926.79079
926.74134
926.63419
926.45773
926.19574
925.92342
925.69086
925.44966
925.19197
924.91767
924.63342
924.32153
924.22617
926.86468
926.8134
926.69972
926.47097
926.16247
925.93429
925.71026
925.48347
925.25441
925.0345
924.81602
924.63616
924.54809
)
;
        Tnbr            T;
        thicknessLayers List<scalar> 0();
        kappaLayers     List<scalar> 0();
        kappaMethod     solidThermo;
        kappa           none;
        alphaAni        none;
        alpha           none;
        field           T;
    }
    leftSolid_to_heater
    {
        type            compressible::turbulentTemperatureCoupledBaffleMixed;
        refValue        nonuniform List<scalar> 10(731.38304 722.07299 702.4646 670.56672 623.85881 623.88725 670.73068 702.83441 722.59402 732.00901);
        refGradient     uniform 0;
        valueFraction   nonuniform List<scalar> 10(2.08329e-05 2.08329e-05 2.08329e-05 2.08329e-05 2.08329e-05 2.08329e-05 2.08329e-05 2.08329e-05 2.08329e-05 2.08329e-05);
        value           nonuniform List<scalar> 10(923.91089 923.91669 923.81055 923.59922 923.39397 923.34506 923.48964 923.76337 924.11391 924.37599);
        Tnbr            T;
        thicknessLayers List<scalar> 1(0.001);
        kappaLayers     List<scalar> 1(0.0005);
        kappaMethod     solidThermo;
        kappa           none;
        alphaAni        none;
        alpha           none;
        field           T;
    }
    leftSolid_to_topAir
    {
        type            compressible::turbulentTemperatureCoupledBaffleMixed;
        refValue        nonuniform List<scalar> 
130
(
325.47679
349.02974
370.34502
390.03881
408.62233
426.39611
443.45762
459.64144
474.64865
488.43032
500.84868
511.64916
520.26841
325.46875
348.76594
369.58227
388.53365
406.09362
422.50242
437.81336
451.95212
464.69077
475.65723
484.32206
490.04252
491.96862
325.46214
348.79834
369.67247
388.69859
406.35814
422.9063
438.45287
453.01563
466.50699
478.70384
489.18489
497.23058
501.56124
325.4575
348.80483
369.71337
388.80398
406.57791
423.32593
439.20806
454.30817
468.64503
482.1346
494.49045
505.022
512.42626
325.45118
348.79726
369.70988
388.80888
406.59689
423.36599
439.27578
454.40846
468.76524
482.20821
494.30835
504.12339
510.47614
325.44751
348.79004
369.69944
388.79553
406.57987
423.34406
439.24981
454.38243
468.74998
482.23584
494.46124
504.55083
511.17
325.44876
348.78796
369.68889
388.77192
406.53728
423.27504
439.14585
454.2367
468.5765
482.095
494.53858
505.27848
513.01011
325.45121
348.77756
369.64212
388.65784
406.30567
422.84129
438.37471
452.92581
466.40845
478.60815
489.12486
497.28384
501.85681
325.45735
348.74432
369.55135
388.49337
406.04328
422.44238
437.74593
451.87844
464.61177
475.57547
484.25072
490.02273
492.08889
325.46627
349.00984
370.31626
390.00017
408.57214
426.33433
443.38425
459.56045
474.56366
488.3475
500.77476
511.59272
520.24657
)
;
        refGradient     uniform 0;
        valueFraction   nonuniform List<scalar> 
130
(
0.00032132529
0.00032132529
0.00032132529
0.00032132529
0.00032132529
0.00032132529
0.00032132529
0.00032132529
0.00032132529
0.00032132529
0.00032132529
0.00032132529
0.00032132529
0.00032132529
0.00032132529
0.00032132529
0.00032132529
0.00032132529
0.00032132529
0.00032132529
0.00032132529
0.00032132529
0.00032132529
0.00032132529
0.00032132529
0.00032132529
0.00032132529
0.00032132529
0.00032132529
0.00032132529
0.00032132529
0.00032132529
0.00032132529
0.00032132529
0.00032132529
0.00032132529
0.00032132529
0.00032132529
0.00032132529
0.00032132529
0.00032132529
0.00032132529
0.00032132529
0.00032132529
0.00032132529
0.00032132529
0.00032132529
0.00032132529
0.00032132529
0.00032132529
0.00032132529
0.00032132529
0.00032132529
0.00032132529
0.00032132529
0.00032132529
0.00032132529
0.00032132529
0.00032132529
0.00032132529
0.00032132529
0.00032132529
0.00032132529
0.00032132529
0.00032132529
0.00032132529
0.00032132529
0.00032132529
0.00032132529
0.00032132529
0.00032132529
0.00032132529
0.00032132529
0.00032132529
0.00032132529
0.00032132529
0.00032132529
0.00032132529
0.00032132529
0.00032132529
0.00032132529
0.00032132529
0.00032132529
0.00032132529
0.00032132529
0.00032132529
0.00032132529
0.00032132529
0.00032132529
0.00032132529
0.00032132529
0.00032132529
0.00032132529
0.00032132529
0.00032132529
0.00032132529
0.00032132529
0.00032132529
0.00032132529
0.00032132529
0.00032132529
0.00032132529
0.00032132529
0.00032132529
0.00032132529
0.00032132529
0.00032132529
0.00032132529
0.00032132529
0.00032132529
0.00032132529
0.00032132529
0.00032132529
0.00032132529
0.00032132529
0.00032132529
0.00032132529
0.00032132529
0.00032132529
0.00032132529
0.00032132529
0.00032132529
0.00032132529
0.00032132529
0.00032132529
0.00032132529
0.00032132529
0.00032132529
0.00032132529
0.00032132529
)
;
        value           nonuniform List<scalar> 
130
(
926.65043
926.62219
926.55048
926.43166
926.26506
926.05058
925.78662
925.4703
925.09506
924.64451
924.22988
923.9368
923.7852
926.61189
926.58092
926.50526
926.38416
926.2166
926.00183
925.74
925.43191
925.08026
924.68719
924.30378
923.98324
923.7821
926.53019
926.49851
926.42066
926.29542
926.12391
925.90722
925.64735
925.34809
924.98617
924.59429
924.21391
923.88846
923.67949
926.42256
926.38791
926.30101
926.16225
925.98196
925.76125
925.50003
925.1939
924.82597
924.41411
924.01056
923.67808
923.47237
926.28881
926.24986
926.15127
925.99647
925.81737
925.60205
925.34099
925.03215
924.66116
924.22811
923.78977
923.46648
923.26753
926.19858
926.1584
926.0659
925.92183
925.73024
925.48463
925.2112
924.90236
924.54482
924.13996
923.75459
923.42481
923.21885
926.20643
926.17061
926.08132
925.93697
925.7315
925.47356
925.19752
924.91051
924.60017
924.26228
923.90079
923.54722
923.36301
926.259
926.22485
926.12691
925.96424
925.75161
925.51782
925.26871
925.003
924.71696
924.41281
924.10216
923.79823
923.6324
926.32695
926.28707
926.18916
926.02698
925.80619
925.56723
925.33522
925.09822
924.85006
924.59133
924.33096
924.0935
923.97929
926.38652
926.34358
926.2368
926.0503
925.80953
925.58374
925.36472
925.14579
924.92586
924.70976
924.50445
924.3388
924.25013
)
;
        Tnbr            T;
        thicknessLayers List<scalar> 0();
        kappaLayers     List<scalar> 0();
        kappaMethod     solidThermo;
        kappa           none;
        alphaAni        none;
        alpha           none;
        field           T;
    }
}


// ************************************************************************* //
