/*--------------------------------*- C++ -*----------------------------------*\
| =========                 |                                                 |
| \\      /  F ield         | OpenFOAM: The Open Source CFD Toolbox           |
|  \\    /   O peration     | Version:  v2012                                 |
|   \\  /    A nd           | Website:  www.openfoam.com                      |
|    \\/     M anipulation  |                                                 |
\*---------------------------------------------------------------------------*/
FoamFile
{
    version     2.0;
    format      ascii;
    class       surfaceScalarField;
    location    "320/topAir";
    object      phi;
}
// * * * * * * * * * * * * * * * * * * * * * * * * * * * * * * * * * * * * * //

dimensions      [1 0 -1 0 0 0 0];
oriented        oriented;


internalField   nonuniform List<scalar> 
3140
(
9.4827611e-06
-2.864054e-07
7.2659759e-08
9.6579127e-06
-2.5838739e-07
8.3303002e-08
9.8284132e-06
-2.4364313e-07
7.3232768e-08
9.9681864e-06
-1.9574539e-07
5.6080201e-08
1.0070513e-05
-1.3581389e-07
3.3610041e-08
1.0142983e-05
-7.9301864e-08
6.9696269e-09
1.0215063e-05
-3.1410416e-08
-4.0519528e-08
1.031178e-05
7.7199955e-09
-1.042701e-07
1.0439168e-05
6.8903762e-08
-1.9610564e-07
1.0619155e-05
1.4807803e-07
-3.2786177e-07
1.0849454e-05
2.8412584e-07
-5.1420668e-07
1.1102022e-05
5.1668522e-07
-7.6902733e-07
1.1320418e-05
8.8059755e-07
-1.0987736e-06
1.1501955e-05
1.3246332e-06
-1.5059891e-06
1.1627697e-05
1.8264772e-06
-1.9521035e-06
1.170633e-05
2.3124633e-06
-2.3910735e-06
1.1744405e-05
2.7375248e-06
-2.775673e-06
1.1738299e-05
3.083348e-06
-3.0774034e-06
1.1689648e-05
3.3423444e-06
-3.2939416e-06
1.1618569e-05
3.508314e-06
-3.4375959e-06
1.1556833e-05
3.5842798e-06
-3.5230632e-06
1.1531633e-05
3.5857297e-06
-3.5612616e-06
1.1556997e-05
3.5324128e-06
-3.5587704e-06
1.1630765e-05
3.4430763e-06
-3.5181475e-06
1.1733162e-05
3.3341668e-06
-3.4382262e-06
1.1819964e-05
3.2236846e-06
-3.312581e-06
1.1800428e-05
3.1418684e-06
-3.1249693e-06
1.1490047e-05
3.151229e-06
-2.8441925e-06
1.051517e-05
3.3905939e-06
-2.4199785e-06
4.1973662e-06
-1.7885246e-06
9.1195628e-06
-2.1668629e-07
7.968763e-08
9.0838246e-06
-3.2633205e-07
1.0368522e-07
9.0766562e-06
-3.4639927e-07
1.0992962e-07
9.1120715e-06
-3.4297132e-07
1.1181895e-07
9.1890267e-06
-3.217794e-07
1.0902303e-07
9.3018779e-06
-2.9183609e-07
9.9701845e-08
9.4530518e-06
-2.6456136e-07
8.200321e-08
9.6560635e-06
-2.4830827e-07
5.3029897e-08
9.9358446e-06
-2.2101172e-07
1.007907e-08
1.0319539e-05
-1.6708582e-07
-6.8711408e-08
1.0832882e-05
-3.9547957e-08
-1.9002413e-07
1.1467182e-05
2.5182133e-07
-3.6982311e-07
1.213608e-05
8.3814299e-07
-6.2674266e-07
1.2725595e-05
1.6873779e-06
-9.5240256e-07
1.3180806e-05
2.6753352e-06
-1.3040766e-06
1.3479872e-05
3.6248105e-06
-1.6113436e-06
1.361131e-05
4.4284449e-06
-1.8222624e-06
1.3588454e-05
5.0482802e-06
-1.9420143e-06
1.3451928e-05
5.4939316e-06
-2.0151259e-06
1.3267585e-05
5.7774327e-06
-2.0850893e-06
1.3097363e-05
5.9126407e-06
-2.1588128e-06
1.297519e-05
5.9265472e-06
-2.2197867e-06
1.2911437e-05
5.8472809e-06
-2.2528234e-06
1.2897297e-05
5.6991241e-06
-2.2443014e-06
1.2908782e-05
5.4977298e-06
-2.1782806e-06
1.2901078e-05
5.2585669e-06
-2.0314417e-06
1.2783177e-05
5.0218823e-06
-1.7676749e-06
1.2381242e-05
4.8805164e-06
-1.3345983e-06
1.1417129e-05
5.0264176e-06
-6.8105679e-07
5.6885244e-06
2.4707091e-07
9.1759428e-06
-2.0534476e-07
8.1675885e-08
9.0142617e-06
-2.723062e-07
1.076547e-07
8.8364547e-06
-2.8540031e-07
1.1680772e-07
8.6551903e-06
-2.8514708e-07
1.2344015e-07
8.4823954e-06
-2.7771408e-07
1.2872981e-07
8.3235038e-06
-2.6525286e-07
1.3230964e-07
8.1767924e-06
-2.5282001e-07
1.3497222e-07
8.03603e-06
-2.4614159e-07
1.3859882e-07
7.9157725e-06
-2.4753269e-07
1.4678003e-07
7.8514314e-06
-2.6284551e-07
1.6009833e-07
7.9439025e-06
-3.024884e-07
1.7045524e-07
8.3446212e-06
-3.0694934e-07
1.5788364e-07
9.1035055e-06
-2.2692593e-08
1.0172422e-07
1.0168113e-05
6.2310482e-07
-3.5286436e-10
1.1157361e-05
1.7621382e-06
-7.5872833e-08
1.1951543e-05
2.9042499e-06
-7.3320743e-08
1.2510673e-05
3.770401e-06
9.9393405e-08
1.279303e-05
4.3459418e-06
4.20514e-07
1.2864741e-05
4.7194821e-06
7.031989e-07
1.2821192e-05
4.9407562e-06
8.8049403e-07
1.2757551e-05
5.0331469e-06
9.4310866e-07
1.2711542e-05
5.0059429e-06
9.662167e-07
1.2688958e-05
4.8816201e-06
9.8742713e-07
1.2668398e-05
4.6850602e-06
1.0333424e-06
1.2621619e-05
4.4413452e-06
1.1013686e-06
1.2526338e-05
4.1753367e-06
1.176123e-06
1.2335909e-05
3.9165599e-06
1.2926126e-06
1.1985426e-05
3.7425113e-06
1.4842971e-06
1.1338305e-05
3.8392357e-06
1.8285088e-06
4.597262e-06
2.4433217e-06
8.9838209e-06
7.9786276e-08
8.6069631e-06
1.0455114e-07
8.2089865e-06
1.1257584e-07
7.8062861e-06
1.1755285e-07
7.4075987e-06
1.2097302e-07
7.0194631e-06
1.2288241e-07
6.6420919e-06
1.2455109e-07
6.2675879e-06
1.2836259e-07
5.8816931e-06
1.3836298e-07
5.4575199e-06
1.6132914e-07
4.9462227e-06
2.0881234e-07
4.3347614e-06
3.0451978e-07
3.8308844e-06
4.8124662e-07
3.6973872e-06
7.569909e-07
4.2728226e-06
1.1878197e-06
5.3433379e-06
1.8351721e-06
6.4794618e-06
2.6357285e-06
7.4398455e-06
3.3868988e-06
8.187369e-06
3.9731126e-06
8.7820822e-06
4.3469344e-06
9.2795961e-06
4.5361939e-06
9.7160555e-06
4.5696762e-06
1.0083625e-05
4.5138687e-06
1.0362952e-05
4.4051827e-06
1.053418e-05
4.2692003e-06
1.0585512e-05
4.1227084e-06
1.0541654e-05
3.9586835e-06
1.0479098e-05
3.8027467e-06
1.0652918e-05
3.66215e-06
3.4752991e-06
9.5953982e-06
-2.8591196e-07
3.2188703e-08
9.8876059e-06
-2.5911509e-07
5.0276454e-08
1.0164073e-05
-2.5624857e-07
5.3103621e-08
1.0397352e-05
-2.2520043e-07
4.810897e-08
1.0580113e-05
-1.8671777e-07
3.7691845e-08
1.0723145e-05
-1.5671665e-07
2.0789657e-08
1.0830769e-05
-1.4243964e-07
-5.548242e-09
1.0908824e-05
-1.4749387e-07
-3.4660979e-08
1.0966132e-05
-1.7662706e-07
-7.6597109e-08
1.1009395e-05
-2.3595434e-07
-1.3496529e-07
1.1044418e-05
-3.3331956e-07
-2.1569123e-07
1.1076936e-05
-4.7612245e-07
-3.2520769e-07
1.111446e-05
-6.6731895e-07
-4.6880762e-07
1.12202e-05
-9.5614475e-07
-6.5553746e-07
1.1412384e-05
-1.2699291e-06
-8.7447636e-07
1.1693154e-05
-1.5655704e-06
-1.1065513e-06
1.2011143e-05
-1.765252e-06
-1.3287796e-06
1.2282762e-05
-1.813337e-06
-1.5360889e-06
1.2457602e-05
-1.7362582e-06
-1.7329818e-06
1.2537069e-05
-1.6050599e-06
-1.9126203e-06
1.2564114e-05
-1.4827515e-06
-2.0682565e-06
1.2585074e-05
-1.389806e-06
-2.1936977e-06
1.2631901e-05
-1.3246318e-06
-2.2826828e-06
1.2716993e-05
-1.2767046e-06
-2.3287158e-06
1.2840299e-05
-1.2372651e-06
-2.3269659e-06
1.2996382e-05
-1.1975263e-06
-2.2744852e-06
1.3162938e-05
-1.1303691e-06
-2.1653979e-06
1.3266028e-05
-9.633625e-07
-1.9894191e-06
1.3155764e-05
-5.5857511e-07
-1.7580904e-06
6.973353e-07
-1.4520301e-06
9.2449216e-06
-2.1811508e-07
3.5938634e-08
9.3569925e-06
-3.3021696e-07
6.2718555e-08
9.4919058e-06
-3.5534629e-07
7.4119229e-08
9.6633682e-06
-3.6183146e-07
7.6996605e-08
9.8681267e-06
-3.5670468e-07
7.4265265e-08
1.0094876e-05
-3.4884118e-07
6.5097293e-08
1.0335763e-05
-3.4884939e-07
4.7553905e-08
1.0587951e-05
-3.6591624e-07
1.9300881e-08
1.0855025e-05
-4.0904391e-07
-2.4531748e-08
1.1132348e-05
-4.9222953e-07
-8.9708554e-08
1.1426677e-05
-6.3352508e-07
-1.8409468e-07
1.1749175e-05
-8.5024802e-07
-3.1815385e-07
1.2118371e-05
-1.1615544e-06
-5.0169528e-07
1.2535867e-05
-1.5896768e-06
-7.3642462e-07
1.3037693e-05
-2.0684547e-06
-1.0074903e-06
1.3578262e-05
-2.4514492e-06
-1.2661347e-06
1.4055592e-05
-2.587927e-06
-1.4769276e-06
1.436746e-05
-2.4054349e-06
-1.6616725e-06
1.4485257e-05
-2.0270939e-06
-1.8418881e-06
1.4452123e-05
-1.6324978e-06
-2.0242741e-06
1.435653e-05
-1.3469901e-06
-2.1986966e-06
1.4245886e-05
-1.1434294e-06
-2.3551637e-06
1.4144608e-05
-1.0025493e-06
-2.4731348e-06
1.4060163e-05
-9.0995919e-07
-2.5259049e-06
1.4012322e-05
-8.7848128e-07
-2.488257e-06
1.4060967e-05
-9.2827666e-07
-2.3480787e-06
1.4317817e-05
-1.0420746e-06
-2.1112512e-06
1.5017648e-05
-1.213986e-06
-1.781986e-06
1.6716378e-05
-1.4807208e-06
-1.4560561e-06
-1.561445e-06
-1.4072014e-06
9.3035651e-06
-2.0769793e-07
3.665373e-08
9.2923307e-06
-2.7594532e-07
6.4617014e-08
9.2664706e-06
-2.9080677e-07
7.8128024e-08
9.2386981e-06
-2.9456209e-07
8.394324e-08
9.2190524e-06
-2.9357298e-07
8.5244204e-08
9.210619e-06
-2.8990281e-07
8.1805805e-08
9.2128922e-06
-2.8886167e-07
7.2713505e-08
9.2252272e-06
-2.9674051e-07
5.7092098e-08
9.2484991e-06
-3.2021327e-07
3.4683443e-08
9.2807944e-06
-3.7098865e-07
6.5704511e-09
9.3387922e-06
-4.6917681e-07
-5.1881167e-08
9.4350058e-06
-6.4834655e-07
-1.4022521e-07
9.5927096e-06
-9.4430117e-07
-2.7324176e-07
9.837887e-06
-1.378917e-06
-4.5632893e-07
1.0211335e-05
-1.8560124e-06
-6.6169174e-07
1.0656091e-05
-2.1700368e-06
-7.9914653e-07
1.1066521e-05
-2.1278991e-06
-7.7048159e-07
1.1397703e-05
-1.7164364e-06
-5.9897122e-07
1.1570923e-05
-1.117059e-06
-3.7956082e-07
1.1600655e-05
-5.0521231e-07
-2.7660611e-07
1.1556852e-05
-4.3326034e-08
-3.1761931e-07
1.1540196e-05
1.8985936e-07
-3.5248006e-07
1.1579472e-05
2.6560249e-07
-3.2352386e-07
1.1630194e-05
2.4938609e-07
-1.8165188e-07
1.1682611e-05
1.4806926e-07
1.6724076e-08
1.1692357e-05
-2.9432182e-08
2.6201804e-07
1.1688325e-05
-2.5938547e-07
5.0837883e-07
1.1806703e-05
-6.0152231e-07
7.4777948e-07
1.227515e-05
-8.9008042e-07
7.6308323e-07
-1.0916518e-06
3.5162223e-07
9.1054075e-06
3.5632775e-08
8.8716157e-06
6.2397162e-08
8.6183828e-06
7.5001562e-08
8.3613268e-06
8.0046304e-08
8.1080993e-06
8.0627149e-08
7.8644468e-06
7.6631799e-08
7.6327134e-06
6.7422699e-08
7.4117219e-06
5.2613674e-08
7.1973191e-06
3.2553136e-08
6.9781679e-06
9.4930465e-09
6.7443321e-06
-2.6525872e-08
6.472428e-06
-7.1917444e-08
6.1388789e-06
-1.2948718e-07
5.7283088e-06
-2.1125338e-07
5.3435607e-06
-2.8301147e-07
5.1652453e-06
-1.5546316e-07
5.3459997e-06
3.2885425e-07
5.6906068e-06
1.3278391e-06
5.9377137e-06
2.61071e-06
6.2382093e-06
3.5425342e-06
6.6491675e-06
4.0826503e-06
7.0925826e-06
4.3166035e-06
7.4957662e-06
4.3764837e-06
7.8205689e-06
4.3297792e-06
8.0422657e-06
4.1955415e-06
8.1749916e-06
3.9595399e-06
8.3065167e-06
3.5659972e-06
8.4542346e-06
3.0509978e-06
8.9792266e-06
2.2438161e-06
7.8502279e-07
9.5725272e-06
-2.8756997e-07
1.624702e-08
9.8556193e-06
-2.5949074e-07
2.6742065e-08
1.0131411e-05
-2.5310067e-07
3.0502266e-08
1.0367534e-05
-2.175541e-07
2.9646843e-08
1.0553848e-05
-1.7436508e-07
2.5862815e-08
1.0694696e-05
-1.3973529e-07
1.9807277e-08
1.0795302e-05
-1.1768023e-07
1.1661336e-08
1.0867412e-05
-1.0722872e-07
5.9878644e-10
1.0912483e-05
-1.1060553e-07
-1.0912808e-08
1.0934454e-05
-1.3145229e-07
-2.5331683e-08
1.0935544e-05
-1.7500244e-07
-4.1641361e-08
1.0917072e-05
-2.4847429e-07
-5.8175189e-08
1.0882255e-05
-3.6305038e-07
-7.0971372e-08
1.0901999e-05
-5.9875865e-07
-7.6821961e-08
1.1005738e-05
-9.1397788e-07
-6.4974141e-08
1.1210934e-05
-1.2893043e-06
-2.3776232e-08
1.1454538e-05
-1.6270276e-06
5.2915478e-08
1.1659277e-05
-1.8808499e-06
1.3810721e-07
1.1800251e-05
-2.0616136e-06
1.8568319e-07
1.1882887e-05
-2.1935692e-06
1.9629974e-07
1.1931924e-05
-2.3029627e-06
1.836454e-07
1.1978698e-05
-2.4053291e-06
1.6292135e-07
1.2042408e-05
-2.4974896e-06
1.4937174e-07
1.2121756e-05
-2.5659705e-06
1.5640178e-07
1.2208108e-05
-2.6023272e-06
1.8754488e-07
1.2307874e-05
-2.6121587e-06
2.362132e-07
1.2458847e-05
-2.6062611e-06
2.8769361e-07
1.2716522e-05
-2.5445512e-06
2.9445698e-07
1.2987374e-05
-2.1452996e-06
1.1221918e-07
-8.7864617e-07
-4.7247156e-07
9.217118e-06
-2.1785469e-07
1.8074833e-08
9.316968e-06
-3.2920192e-07
3.2582142e-08
9.450162e-06
-3.5223252e-07
4.0061936e-08
9.6232561e-06
-3.5517239e-07
4.1528831e-08
9.8299104e-06
-3.4496241e-07
3.8220114e-08
1.0055531e-05
-3.3022608e-07
2.9983756e-08
1.0289719e-05
-3.2000484e-07
1.5712236e-08
1.0528245e-05
-3.2027585e-07
-6.150684e-09
1.076727e-05
-3.3712039e-07
-3.7007223e-08
1.1006187e-05
-3.7938779e-07
-8.0653142e-08
1.1245871e-05
-4.5862344e-07
-1.4012805e-07
1.1493989e-05
-5.9734954e-07
-2.1739483e-07
1.1771725e-05
-8.3258546e-07
-3.0996226e-07
1.2072492e-05
-1.2314853e-06
-4.0466251e-07
1.243639e-05
-1.8172441e-06
-4.6850247e-07
1.2788906e-05
-2.4155687e-06
-4.9287234e-07
1.2980072e-05
-2.7503698e-06
-5.4502944e-07
1.2982273e-05
-2.8571993e-06
-6.8745711e-07
1.2834034e-05
-2.8343712e-06
-9.204809e-07
1.2580949e-05
-2.7588526e-06
-1.2051719e-06
1.2274219e-05
-2.7002916e-06
-1.4935337e-06
1.1957169e-05
-2.696632e-06
-1.7452175e-06
1.1644785e-05
-2.7273261e-06
-1.9287054e-06
1.1334294e-05
-2.7585867e-06
-2.0198909e-06
1.1024187e-05
-2.7741238e-06
-2.0027305e-06
1.073852e-05
-2.8172079e-06
-1.8530235e-06
1.0627337e-05
-2.9922847e-06
-1.6088622e-06
1.111994e-05
-3.3357874e-06
-1.4778523e-06
1.2841967e-05
-3.5845567e-06
-1.7351726e-06
-3.1882315e-06
-2.4428171e-06
9.2767521e-06
-2.07336e-07
1.834309e-08
9.2541493e-06
-2.7521671e-07
3.3234075e-08
9.2274629e-06
-2.88979e-07
4.1560531e-08
9.2032705e-06
-2.9113948e-07
4.4102606e-08
9.1896939e-06
-2.8799374e-07
4.1852347e-08
9.1880915e-06
-2.8125208e-07
3.4434986e-08
9.1957171e-06
-2.7544449e-07
2.0529098e-08
9.2098134e-06
-2.7522942e-07
-2.0477837e-09
9.2276301e-06
-2.8510398e-07
-3.514557e-08
9.2510336e-06
-3.1244751e-07
-8.3767509e-08
9.2680596e-06
-3.7264479e-07
-1.5487903e-07
9.2739131e-06
-4.8989118e-07
-2.5353181e-07
9.2634183e-06
-7.1181047e-07
-3.8352427e-07
9.2425999e-06
-1.1312277e-06
-5.3578209e-07
9.2473324e-06
-1.8236001e-06
-6.5999036e-07
9.1913912e-06
-2.4681321e-06
-6.9004346e-07
8.881486e-06
-2.5122817e-06
-6.9689915e-07
8.4885585e-06
-2.2735622e-06
-7.8726853e-07
8.1020295e-06
-1.8646853e-06
-9.6009511e-07
7.6664573e-06
-1.3926824e-06
-1.2044376e-06
7.1755064e-06
-1.0625103e-06
-1.4612152e-06
6.6931068e-06
-9.1885354e-07
-1.6436822e-06
6.2564888e-06
-9.312116e-07
-1.6776741e-06
5.9223032e-06
-1.0555595e-06
-1.5442915e-06
5.7157782e-06
-1.2755631e-06
-1.2690896e-06
5.5898646e-06
-1.59089e-06
-8.3244526e-07
5.6496532e-06
-2.0614479e-06
-4.7611372e-07
6.3223134e-06
-2.6689927e-06
-5.8592925e-07
7.8637599e-06
-3.157018e-06
-1.2004993e-06
-2.7853143e-06
-2.6401374e-06
9.0793367e-06
1.7911931e-08
8.8342486e-06
3.2268119e-08
8.5801548e-06
4.0116006e-08
8.3268169e-06
4.2244267e-08
8.0798285e-06
3.9621364e-08
7.8433434e-06
3.1864492e-08
7.617765e-06
1.7556457e-08
7.4004886e-06
-5.3393885e-09
7.1871717e-06
-3.9233644e-08
6.9741653e-06
-8.9947098e-08
6.7415654e-06
-1.6656889e-07
6.4616659e-06
-2.8190597e-07
6.0817461e-06
-4.6137148e-07
5.4984533e-06
-7.5914799e-07
4.6204374e-06
-1.2280652e-06
3.6717609e-06
-1.6728557e-06
3.2086709e-06
-1.7144822e-06
3.1986867e-06
-9.3041801e-07
3.4294574e-06
5.1936061e-07
3.6530926e-06
1.9289605e-06
3.9900639e-06
2.6845219e-06
4.3739769e-06
3.0141807e-06
4.7279493e-06
3.0908871e-06
4.9685991e-06
3.0325455e-06
5.01881e-06
2.8681653e-06
4.8042578e-06
2.5807462e-06
4.5557002e-06
1.7498232e-06
4.5207717e-06
4.1300377e-07
4.7848412e-06
-1.1752487e-06
-3.7831995e-06
9.5669304e-06
-2.8770436e-07
6.03657e-09
9.8425814e-06
-2.5902343e-07
1.0181601e-08
1.0112501e-05
-2.5098775e-07
1.1659784e-08
1.0343983e-05
-2.1267592e-07
1.0946859e-08
1.0526266e-05
-1.6489968e-07
8.5991066e-09
1.0664168e-05
-1.2286931e-07
4.9020276e-09
1.0765257e-05
-8.9458306e-08
1.5877111e-10
1.0836058e-05
-6.3444774e-08
-6.6224906e-09
1.0883097e-05
-4.3465444e-08
-1.4353152e-08
1.0911362e-05
-2.9794884e-08
-2.3679358e-08
1.0928433e-05
-2.4387734e-08
-3.4227678e-08
1.0946975e-05
-3.2417643e-08
-4.4262184e-08
1.0992762e-05
-6.7972277e-08
-4.8886573e-08
1.1159218e-05
-2.0296816e-07
-4.0716351e-08
1.1455731e-05
-3.7223898e-07
9.9116569e-09
1.1793077e-05
-4.4787561e-07
8.5510627e-08
1.2047864e-05
-3.8363837e-07
1.8027675e-07
1.2206805e-05
-2.9696684e-07
2.744743e-07
1.2308282e-05
-2.8658129e-07
3.6888397e-07
1.2392008e-05
-3.5652553e-07
4.6674573e-07
1.2485524e-05
-4.8536393e-07
5.7247446e-07
1.2600167e-05
-6.4928372e-07
6.9383612e-07
1.2728334e-05
-8.2331962e-07
8.4023545e-07
1.2847636e-05
-9.8426173e-07
1.0167687e-06
1.2943211e-05
-1.1281621e-06
1.2153883e-06
1.301442e-05
-1.2420727e-06
1.4016831e-06
1.29985e-05
-1.2071787e-06
1.5037463e-06
1.2617384e-05
-7.6554411e-07
1.4326451e-06
1.1297084e-05
3.1170253e-07
1.1162418e-06
2.788809e-06
4.4206626e-07
9.2099052e-06
-2.1761654e-07
7.0513725e-09
9.2987241e-06
-3.2855847e-07
1.330054e-08
9.4216352e-06
-3.5055843e-07
1.672646e-08
9.5848466e-06
-3.5145703e-07
1.7106319e-08
9.7810371e-06
-3.3752651e-07
1.4667739e-08
9.9952516e-06
-3.1643072e-07
9.3460177e-09
1.0216394e-05
-2.958734e-07
1.0044674e-09
1.0439495e-05
-2.8011809e-07
-1.2554427e-08
1.0662211e-05
-2.7230746e-07
-3.0853442e-08
1.0885573e-05
-2.78033e-07
-5.5748778e-08
1.1117918e-05
-3.0893411e-07
-8.7907271e-08
1.1383128e-05
-3.8972794e-07
-1.2530749e-07
1.173361e-05
-5.7037467e-07
-1.5814005e-07
1.2218543e-05
-9.3410749e-07
-1.5872619e-07
1.2848399e-05
-1.3848822e-06
-8.6136296e-08
1.3390541e-05
-1.4866183e-06
3.3195453e-09
1.3662905e-05
-1.2350336e-06
3.378205e-08
1.3720786e-05
-1.0375474e-06
-4.8126686e-09
1.3649711e-05
-1.019446e-06
-1.1645184e-07
1.3475799e-05
-1.1215381e-06
-2.6602477e-07
1.3234404e-05
-1.286405e-06
-4.5067444e-07
1.2941933e-05
-1.4726484e-06
-6.2858936e-07
1.25853e-05
-1.6522427e-06
-7.4181918e-07
1.2130545e-05
-1.8041997e-06
-7.4319612e-07
1.1582256e-05
-1.9579722e-06
-6.2183334e-07
1.1108444e-05
-2.162872e-06
-4.5471933e-07
1.101013e-05
-2.3155777e-06
-3.9610083e-07
1.1317058e-05
-1.859194e-06
-6.832894e-07
1.1635933e-05
-4.5632788e-07
-1.2889007e-06
1.8174716e-06
-1.9628523e-06
9.2698806e-06
-2.072992e-07
7.1052871e-09
9.2363064e-06
-2.7518983e-07
1.343918e-08
9.1988137e-06
-2.8861036e-07
1.7104711e-08
9.1636193e-06
-2.8991579e-07
1.7755674e-08
9.1377625e-06
-2.8522503e-07
1.5407797e-08
9.121891e-06
-2.758729e-07
9.7492852e-09
9.1118776e-06
-2.6588155e-07
5.5168781e-10
9.1047454e-06
-2.5899687e-07
-1.603471e-08
9.0957222e-06
-2.5897868e-07
-3.9447901e-08
9.0798654e-06
-2.7238902e-07
-7.355006e-08
9.0520562e-06
-3.1367718e-07
-1.2232151e-07
9.0133847e-06
-4.1517562e-07
-1.8940955e-07
8.986251e-06
-6.5450942e-07
-2.7226294e-07
9.060459e-06
-1.2027221e-06
-3.4138155e-07
9.2613004e-06
-1.9696493e-06
-2.7560633e-07
9.1858674e-06
-1.9963639e-06
-1.0326969e-07
8.5196165e-06
-1.1465113e-06
-1.1691191e-07
7.6942519e-06
-7.3743045e-07
-2.594461e-07
6.9002119e-06
-6.6964736e-07
-5.1324116e-07
6.1961012e-06
-7.8234738e-07
-8.363507e-07
5.4995868e-06
-8.7805438e-07
-1.1685093e-06
4.7864946e-06
-1.0071844e-06
-1.3893427e-06
4.0752846e-06
-1.2181743e-06
-1.3915472e-06
3.3511091e-06
-1.4594002e-06
-1.1543051e-06
2.6220944e-06
-1.775895e-06
-7.1160501e-07
2.1400506e-06
-2.2525229e-06
-2.5375137e-07
2.5031744e-06
-2.8848471e-06
-2.6278244e-07
3.696384e-06
-2.554574e-06
-1.0745554e-06
5.2605354e-06
-8.4794708e-07
-2.3616508e-06
1.0815617e-06
-3.3493075e-06
9.0726641e-06
6.9004594e-09
8.8168076e-06
1.2934432e-08
8.5520345e-06
1.6278251e-08
8.287785e-06
1.6577612e-08
8.0283696e-06
1.3811296e-08
7.7767095e-06
7.6513551e-09
7.531422e-06
-3.0378869e-09
7.2882164e-06
-2.1130834e-08
7.0382731e-06
-4.8268843e-08
6.7661504e-06
-9.0212739e-08
6.442604e-06
-1.5669807e-07
6.0117597e-06
-2.6623431e-07
5.3537359e-06
-4.5784668e-07
4.2118878e-06
-8.1987468e-07
2.3783875e-06
-1.3617827e-06
2.1112661e-07
-1.4974299e-06
-1.3152981e-06
-1.3226682e-06
-1.8585098e-06
-1.1191791e-06
-1.4225054e-06
-5.7964758e-07
-6.2376365e-07
3.5176445e-07
1.5108489e-07
1.0324501e-06
7.7552825e-07
1.383472e-06
1.1383738e-06
1.5095539e-06
1.1859084e-06
1.5242497e-06
8.1341327e-07
1.4621598e-06
-1.037358e-07
1.2417415e-06
-1.3074309e-06
7.1787496e-08
-1.9754873e-06
-1.4549795e-06
-9.1912743e-07
-3.0534131e-06
-4.4936713e-06
9.5638545e-06
-2.8800742e-07
-7.9494222e-10
9.8355385e-06
-2.5958394e-07
-1.8515088e-09
1.0102009e-05
-2.516031e-07
-3.1184245e-09
1.0330723e-05
-2.1311282e-07
-4.5482406e-09
1.0510536e-05
-1.6494862e-07
-6.1464523e-09
1.0645889e-05
-1.2236616e-07
-7.9542994e-09
1.0744539e-05
-8.8305762e-08
-1.0044887e-08
1.0812329e-05
-6.1651923e-08
-1.262085e-08
1.0855307e-05
-4.1499789e-08
-1.5691674e-08
1.087993e-05
-2.8776394e-08
-1.9386145e-08
1.0896453e-05
-2.7007398e-08
-2.3609549e-08
1.0924881e-05
-4.5296895e-08
-2.7292826e-08
1.1008172e-05
-1.0501825e-07
-2.7151593e-08
1.1270313e-05
-2.8842975e-07
-1.4607072e-08
1.1660245e-05
-3.9564186e-07
1.5372038e-08
1.1991208e-05
-3.02917e-07
5.7290963e-08
1.2205232e-05
-1.2251512e-07
8.8670409e-08
1.2334507e-05
2.7075365e-08
1.1798362e-07
1.2421741e-05
1.2796227e-07
1.5347971e-07
1.2514355e-05
1.737143e-07
2.001099e-07
1.2654903e-05
1.7094493e-07
2.6054008e-07
1.2865136e-05
1.4805252e-07
3.3495691e-07
1.3133057e-05
1.5304996e-07
4.1854099e-07
1.3410796e-05
2.3982054e-07
4.9843287e-07
1.3617807e-05
4.5074055e-07
5.5689747e-07
1.3634932e-05
8.0402328e-07
5.7983655e-07
1.3265037e-05
1.3154215e-06
5.5747502e-07
1.22016e-05
2.0150073e-06
4.8028017e-07
9.9609501e-06
3.0138389e-06
3.4235958e-07
4.7866215e-06
1.8709705e-07
9.2058154e-06
-2.1766082e-07
-1.4105499e-10
9.2887238e-06
-3.2871089e-07
-4.7868112e-10
9.4055924e-06
-3.5069188e-07
-1.0485861e-09
9.5628699e-06
-3.5136954e-07
-1.9069929e-09
9.7526922e-06
-3.3697934e-07
-3.1131522e-09
9.959546e-06
-3.1511262e-07
-4.7471698e-09
1.0172676e-05
-2.9348081e-07
-6.9324891e-09
1.0384751e-05
-2.7634593e-07
-9.9139583e-09
1.0593586e-05
-2.6758612e-07
-1.3575662e-08
1.0801656e-05
-2.7448351e-07
-1.808152e-08
1.1022872e-05
-3.1333161e-07
-2.2771743e-08
1.1296812e-05
-4.2008128e-07
-2.445748e-08
1.1713053e-05
-6.6567776e-07
-1.3790819e-08
1.2357558e-05
-1.1152216e-06
2.3334706e-08
1.3067031e-05
-1.2994905e-06
1.0820349e-07
1.3543158e-05
-9.3143324e-07
1.5584071e-07
1.3860713e-05
-5.7284534e-07
1.6679164e-07
1.4069484e-05
-3.6083572e-07
1.7464944e-07
1.4181596e-05
-2.8887637e-07
1.8848349e-07
1.4213786e-05
-3.2591302e-07
2.0105994e-07
1.4217855e-05
-4.990606e-07
2.1364165e-07
1.4223938e-05
-7.1266419e-07
2.2207218e-07
1.4260287e-05
-8.6320983e-07
2.3015726e-07
1.4383844e-05
-8.7859768e-07
2.3785808e-07
1.4620771e-05
-6.6410954e-07
2.3473779e-07
1.4882218e-05
-1.6755604e-07
2.2639464e-07
1.4612466e-05
9.8024691e-07
1.7510707e-07
1.3489277e-05
2.3486515e-06
7.1534466e-08
1.1307927e-05
3.9811541e-06
-1.0544603e-07
5.9961896e-06
-3.4774148e-07
9.2658168e-06
-2.0730178e-07
-1.1040584e-10
9.2262099e-06
-2.7525601e-07
-4.0928098e-10
9.1821833e-06
-2.8864348e-07
-9.1748336e-10
9.1400561e-06
-2.897882e-07
-1.6986444e-09
9.1061545e-06
-2.8482099e-07
-2.8489238e-09
9.0803512e-06
-2.7504105e-07
-4.5185252e-09
9.0587168e-06
-2.6435148e-07
-6.942305e-09
9.0339736e-06
-2.5702798e-07
-1.0607827e-08
8.9997432e-06
-2.5717177e-07
-1.5629517e-08
8.9481826e-06
-2.7335497e-07
-2.3114549e-08
8.8720094e-06
-3.2566797e-07
-3.3808069e-08
8.7735703e-06
-4.6428106e-07
-4.6768527e-08
8.7071401e-06
-8.2198583e-07
-4.9530697e-08
8.9418272e-06
-1.6842229e-06
-7.0004426e-09
9.2705872e-06
-2.0502033e-06
1.4800658e-07
8.8984769e-06
-8.5933797e-07
1.9861532e-07
8.4968079e-06
-4.2567428e-07
1.3960152e-07
7.9221973e-06
-1.1279371e-07
6.9341365e-08
7.1744395e-06
-4.7447761e-08
-4.0882128e-09
6.2768817e-06
-1.6382348e-07
-9.6973267e-08
5.2057937e-06
-4.2570427e-07
-1.6487306e-07
4.0538953e-06
-7.6457116e-07
-1.7675521e-07
3.015959e-06
-1.1068591e-06
-9.8247858e-08
2.4012565e-06
-1.3818566e-06
-2.1947194e-08
2.6261499e-06
-1.6252175e-06
4.0965214e-08
4.0528604e-06
-1.6966567e-06
-1.3345434e-07
5.9777444e-06
-7.3885197e-07
-4.5695665e-07
7.1048737e-06
8.3657477e-07
-6.9019412e-07
7.0150469e-06
2.6246324e-06
-9.2522759e-07
4.5499493e-06
-1.0849729e-06
9.0686578e-06
-1.0722721e-10
8.8067382e-06
-4.023904e-10
8.5352894e-06
-9.1684684e-10
8.2638016e-06
-1.7232969e-09
7.9957375e-06
-2.9460088e-09
7.7331441e-06
-4.7966486e-09
7.4733931e-06
-7.6386938e-09
7.2073115e-06
-1.2077462e-08
6.9209308e-06
-1.9059976e-08
6.5884201e-06
-3.105683e-08
6.1586495e-06
-5.2594602e-08
5.5208383e-06
-9.2701794e-08
4.4094006e-06
-1.6837671e-07
2.2035523e-06
-2.9786987e-07
-8.7276374e-07
-3.2621365e-07
-3.0737378e-06
-1.5124889e-07
-4.5894959e-06
-2.2826978e-07
-5.4610459e-06
-3.5559835e-07
-5.6559281e-06
-4.2644697e-07
-5.0880914e-06
-3.7280647e-07
-4.2518713e-06
-2.2234202e-07
-3.5223669e-06
-1.0424616e-07
-3.0427098e-06
-7.1333645e-08
-2.7688726e-06
-1.2629709e-07
-2.6531543e-06
-2.7448284e-07
-2.6198548e-06
-4.8277977e-07
-2.3879838e-06
-8.837379e-07
-1.5320026e-06
-1.4407388e-06
-1.4310728e-07
-1.8026362e-06
-1.7922889e-06
9.5636751e-06
-2.8797088e-07
-7.4838012e-09
9.8351988e-06
-2.59736e-07
-1.3573074e-08
1.0101454e-05
-2.5193808e-07
-1.7348266e-08
1.0329826e-05
-2.1364398e-07
-1.9172669e-08
1.0509096e-05
-1.6572313e-07
-1.9577347e-08
1.064357e-05
-1.2346238e-07
-1.8843253e-08
1.074055e-05
-8.9907071e-08
-1.6991653e-08
1.0806191e-05
-6.4134251e-08
-1.3999244e-08
1.0846002e-05
-4.5405927e-08
-9.9559245e-09
1.0867362e-05
-3.5376512e-08
-5.2028453e-09
1.0884087e-05
-3.965719e-08
-4.6427585e-10
1.0924429e-05
-7.2520719e-08
5.176967e-09
1.1052344e-05
-1.6039803e-07
5.7941027e-09
1.1401573e-05
-3.5962771e-07
-3.4913159e-09
1.1797392e-05
-3.4491138e-07
-3.4768881e-08
1.2105756e-05
-1.6115333e-07
-8.9362691e-08
1.2328914e-05
1.8482768e-08
-1.5245989e-07
1.2499237e-05
1.7393475e-07
-2.2576799e-07
1.2652186e-05
3.1491612e-07
-3.1382104e-07
1.2827833e-05
4.4378959e-07
-4.1862328e-07
1.3055401e-05
5.7881216e-07
-5.4489122e-07
1.3331687e-05
7.5258686e-07
-6.9263055e-07
1.3610366e-05
1.0036387e-06
-8.6211684e-07
1.3821726e-05
1.3395255e-06
-1.0504679e-06
1.3892929e-05
1.72846e-06
-1.2405944e-06
1.3719595e-05
2.1517604e-06
-1.3964063e-06
1.3115067e-05
2.6261202e-06
-1.4620682e-06
1.1776681e-05
3.1904679e-06
-1.3699714e-06
9.2060082e-06
3.9069388e-06
-9.9229292e-07
5.2297108e-06
-3.5318922e-07
9.2058377e-06
-2.1765312e-07
-7.3269935e-09
9.2886039e-06
-3.2876562e-07
-1.4212995e-08
9.4051799e-06
-3.5087323e-07
-1.86849e-08
9.561936e-06
-3.5172239e-07
-2.0577769e-08
9.7508591e-06
-3.3759806e-07
-2.0151777e-08
9.9561655e-06
-3.1616631e-07
-1.7337647e-08
1.0166341e-05
-2.9532597e-07
-1.1674803e-08
1.0374933e-05
-2.7983094e-07
-2.7920136e-09
1.0578511e-05
-2.7407176e-07
1.1532673e-08
1.0780653e-05
-2.8777685e-07
3.2207137e-08
1.1000588e-05
-3.4264027e-07
6.0327286e-08
1.1295768e-05
-4.8671654e-07
9.465431e-08
1.1800859e-05
-8.0441379e-07
1.2532914e-07
1.2600197e-05
-1.2681251e-06
1.3285768e-07
1.3246537e-05
-9.8507696e-07
1.0224039e-07
1.3735628e-05
-5.7936352e-07
8.4999631e-08
1.4112877e-05
-3.0455491e-07
1.1202884e-07
1.4429612e-05
-1.2951227e-07
1.6002629e-07
1.4670873e-05
3.4507492e-08
2.2578016e-07
1.4909802e-05
7.3618167e-08
3.3022088e-07
1.5196741e-05
4.8229735e-08
4.5547371e-07
1.554578e-05
5.4708268e-08
5.6992787e-07
1.5875068e-05
2.7455622e-07
6.3004512e-07
1.6069286e-05
7.7490635e-07
6.0922743e-07
1.6080659e-05
1.429307e-06
5.2404549e-07
1.5789954e-05
2.2354444e-06
4.3531194e-07
1.4942321e-05
3.1486549e-06
5.0220765e-07
1.3194806e-05
4.2169799e-06
7.9442382e-07
1.0292446e-05
5.4578613e-06
1.2469392e-06
7.0293559e-06
1.8892933e-06
9.2658183e-06
-2.0730844e-07
-7.3132881e-09
9.2261344e-06
-2.7529103e-07
-1.4200444e-08
9.1818609e-06
-2.8873881e-07
-1.8778744e-08
9.1391821e-06
-2.899795e-07
-2.0762944e-08
9.1041444e-06
-2.8517279e-07
-2.0236587e-08
9.0760969e-06
-2.7570363e-07
-1.6933538e-08
9.0497384e-06
-2.6571127e-07
-1.0198072e-08
9.0187787e-06
-2.595148e-07
3.6586289e-11
8.9721104e-06
-2.626119e-07
1.9579596e-08
8.8992205e-06
-2.8597997e-07
4.7979464e-08
8.7893021e-06
-3.5697207e-07
9.0443988e-08
8.6528827e-06
-5.4784984e-07
1.5078984e-07
8.6374587e-06
-1.0601286e-06
2.2162416e-07
9.3827646e-06
-2.2674786e-06
2.4693557e-07
9.3390778e-06
-9.9161575e-07
1.9690486e-07
9.1940692e-06
-4.0266698e-07
1.6561866e-07
8.8809422e-06
-7.181259e-08
2.1925353e-07
8.3727686e-06
1.337977e-07
3.1306739e-07
7.7640081e-06
1.4819291e-07
4.8892923e-07
7.0204021e-06
-3.235742e-08
7.5070545e-07
6.1327578e-06
-2.5460018e-07
1.0233288e-06
5.4305565e-06
-5.9691373e-07
1.1742531e-06
5.3589864e-06
-8.7056155e-07
1.1133905e-06
6.1656469e-06
-9.0388898e-07
8.4263031e-07
7.7090161e-06
-6.0356663e-07
5.2256586e-07
9.2737954e-06
1.897934e-07
3.4011721e-07
9.92932e-06
1.3915739e-06
6.3904555e-07
9.2908272e-06
2.8296348e-06
1.3320325e-06
7.4189094e-06
4.2463458e-06
2.1558349e-06
5.8611867e-06
2.9458497e-06
9.0686314e-06
-7.0952323e-09
8.8066039e-06
-1.3666277e-08
8.5348603e-06
-1.7912486e-08
8.2626977e-06
-1.9540581e-08
7.9931821e-06
-1.8603615e-08
7.7274964e-06
-1.4815011e-08
7.4617153e-06
-7.5692677e-09
7.1856627e-06
4.4598957e-09
6.877657e-06
2.6333365e-08
6.4999923e-06
6.0627296e-08
5.9732615e-06
1.1716331e-07
5.119502e-06
2.1320724e-07
3.506827e-06
3.8416321e-07
2.246978e-07
7.1613745e-07
-2.3926439e-06
1.2871785e-06
-4.0746324e-06
1.1228802e-06
-5.2098981e-06
8.3039311e-07
-5.875268e-06
4.3876778e-07
-5.9482827e-06
-2.1133201e-07
-5.5363603e-06
-8.2387262e-07
-4.8152914e-06
-1.2038639e-06
-4.1237076e-06
-1.3975495e-06
-3.5602517e-06
-1.5093912e-06
-3.0139192e-06
-1.5798478e-06
-2.2332174e-06
-1.6597815e-06
-1.1041728e-06
-1.4176934e-06
-3.2454864e-07
-2.6275467e-07
-1.0355352e-07
1.1778357e-06
-1.7724285e-07
2.5454626e-06
3.7596153e-06
9.5664464e-06
-2.8756487e-07
-1.7350182e-08
9.841675e-06
-2.5936227e-07
-2.9373789e-08
1.0111083e-05
-2.5175451e-07
-3.4915508e-08
1.034187e-05
-2.1386402e-07
-3.5993275e-08
1.0523226e-05
-1.6655576e-07
-3.4263836e-08
1.0659905e-05
-1.2504575e-07
-3.0354836e-08
1.0759701e-05
-9.2228531e-08
-2.4429738e-08
1.0829865e-05
-6.6947404e-08
-1.7078616e-08
1.0875541e-05
-4.8931691e-08
-6.5620858e-09
1.0902778e-05
-3.8837172e-08
6.5414812e-09
1.0922016e-05
-3.9817915e-08
2.0280348e-08
1.0952971e-05
-6.058913e-08
3.5020331e-08
1.1034035e-05
-1.2079805e-07
4.5785834e-08
1.1272518e-05
-2.8823835e-07
4.6615662e-08
1.1615497e-05
-3.9994625e-07
2.2811156e-08
1.1921104e-05
-3.4289387e-07
-5.1177483e-08
1.212979e-05
-2.018963e-07
-1.5805804e-07
1.225854e-05
-1.1179252e-07
-2.4107635e-07
1.2351899e-05
-1.1078065e-07
-2.9405194e-07
1.2442876e-05
-1.8091356e-07
-3.2533648e-07
1.2555474e-05
-3.0326265e-07
-3.4967627e-07
1.2695138e-05
-4.4551448e-07
-3.8116302e-07
1.283984e-05
-5.696307e-07
-4.3111322e-07
1.2963333e-05
-6.6664581e-07
-5.0177611e-07