/*--------------------------------*- C++ -*----------------------------------*\
| =========                 |                                                 |
| \\      /  F ield         | OpenFOAM: The Open Source CFD Toolbox           |
|  \\    /   O peration     | Version:  v2012                                 |
|   \\  /    A nd           | Website:  www.openfoam.com                      |
|    \\/     M anipulation  |                                                 |
\*---------------------------------------------------------------------------*/
FoamFile
{
    version     2.0;
    format      ascii;
    class       volScalarField;
    location    "320/topAir";
    object      rho;
}
// * * * * * * * * * * * * * * * * * * * * * * * * * * * * * * * * * * * * * //

dimensions      [1 -3 0 0 0 0 0];


internalField   nonuniform List<scalar> 
1200
(
1.0780107
1.0127546
0.96015839
0.91626034
0.87845384
0.84516844
0.81549322
0.78906522
0.76602265
0.74596343
0.72867026
0.71409168
0.70249031
0.70041239
0.70123688
0.70512622
0.71162564
0.71969188
0.72812415
0.73597005
0.74266976
0.74797817
0.75183985
0.75427201
0.75529359
0.75488181
0.7529046
0.74898256
0.74226297
0.73171715
1.1567564
1.1532515
1.1484832
1.1426878
1.136041
1.1286809
1.1207338
1.1119639
1.1000701
1.0844949
1.0632189
1.03522
1.0007727
0.96494913
0.93164785
0.9038784
0.88246449
0.86680843
0.85600947
0.84929488
0.84580598
0.84449082
0.84429033
0.84424919
0.84352548
0.84131305
0.83665547
0.8281036
0.81317803
0.79007226
1.1585786
1.1584611
1.1582433
1.1579037
1.1574243
1.1567899
1.1559882
1.1550009
1.1537519
1.1521529
1.1499619
1.1434585
1.1260469
1.0956787
1.0566712
1.0151368
0.97597079
0.94263526
0.91574649
0.89507192
0.8799498
0.86939992
0.86228727
0.85748715
0.85398065
0.85086323
0.84724794
0.84203511
0.83334935
0.81861845
1.158618
1.1586142
1.1586048
1.1585865
1.1585548
1.1585043
1.1584288
1.1583205
1.1581681
1.1579545
1.1576396
1.1569786
1.1548883
1.1429079
1.1116504
1.0698571
1.0287023
0.99220473
0.96096389
0.93498129
0.91409363
0.89788198
0.88563336
0.87648281
0.86956743
0.86409782
0.8593508
0.85452484
0.84837125
0.83893241
1.0780373
1.0134458
0.96194553
0.91946313
0.88339353
0.85221168
0.82505006
0.80142822
0.78116468
0.76430602
0.75108304
0.74183582
0.73706117
0.74493941
0.75680594
0.77145718
0.78661989
0.79979954
0.80971431
0.8164467
0.82078711
0.8234652
0.82491106
0.82523966
0.82438086
0.82218365
0.81832159
0.81195843
0.80121819
0.7849091
1.1567591
1.1533201
1.148732
1.1432649
1.1371274
1.1304926
1.1235294
1.1164218
1.1093725
1.1026316
1.0965092
1.091373
1.0876222
1.0859256
1.0860214
1.0866318
1.0857903
1.0821475
1.0760574
1.0685833
1.0605111
1.0520016
1.0429915
1.0332823
1.0226318
1.0108552
0.99789076
0.98386335
0.96868815
0.94416927
1.1585787
1.1584644
1.1582579
1.1579444
1.1575138
1.1569601
1.1562817
1.1554831
1.1545748
1.1535782
1.1525267
1.1513949
1.1501388
1.1488666
1.1462296
1.1397501
1.1267132
1.1064662
1.0832477
1.061011
1.0418799
1.0237621
1.0065061
0.98986622
0.9738999
0.95875885
0.94299172
0.92612938
0.90821309
0.88889578
1.158618
1.1586143
1.1586056
1.158589
1.1585614
1.1585189
1.1584577
1.1583735
1.1582619
1.1581181
1.1579344
1.1576789
1.157163
1.15497
1.1464043
1.1249597
1.0903462
1.0508821
1.0132945
0.98022077
0.95293172
0.93269729
0.91712003
0.90460361
0.89405066
0.88475176
0.87719698
0.87061016
0.86412555
0.85704855
1.0780645
1.0133719
0.96174657
0.91912445
0.88288799
0.85149986
0.82402101
0.79983187
0.7785815
0.76012066
0.74448979
0.73192331
0.72312014
0.7280054
0.73823602
0.75377247
0.77233708
0.79112875
0.80833319
0.82304296
0.83502867
0.84436862
0.8511015
0.85513274
0.85637798
0.85492894
0.8510024
0.84453449
0.83385948
0.81211938
1.1567594
1.1533099
1.1487022
1.14321
1.1370402
1.1303589
1.1233146
1.1160533
1.1087387
1.1015764
1.0948346
1.0888995
1.0843546
1.0823487
1.0833072
1.0857771
1.0868784
1.0855133
1.0816441
1.0756022
1.0678238
1.0584553
1.0472759
1.0339992
1.0186033
1.0013493
0.98244708
0.96224978
0.94087506
0.91516856
1.1585787
1.158464
1.1582563
1.1579414
1.1575094
1.1569545
1.156275
1.1554735
1.1545591
1.1535503
1.1524832
1.1514203
1.1504692
1.1497493
1.148497
1.142687
1.1297154
1.1146914
1.099231
1.0835298
1.0678047
1.0510714
1.0319166
1.0100191
0.98642334
0.96292018
0.9407095
0.92015752
0.90108057
0.88004364
1.158618
1.1586143
1.1586055
1.1585889
1.1585612
1.1585189
1.1584582
1.1583753
1.1582661
1.1581272
1.1579554
1.1577468
1.1574776
1.1568251
1.1522589
1.1318443
1.0951494
1.0698291
1.0444364
1.0125045
0.98222847
0.95790006
0.93895351
0.92384704
0.91128405
0.90035979
0.89084696
0.88248944
0.87175172
0.85118821
1.0780937
1.0133815
0.96168502
0.91894142
0.88250957
0.85080605
0.82282869
0.79788871
0.77549483
0.75531407
0.73716191
0.72104276
0.70757164
0.707653
0.71088171
0.71480088
0.7167193
0.71657224
0.71587965
0.71589154
0.71729662
0.72031403
0.72475691
0.73013523
0.73591327
0.74129557
0.74417037
0.74043087
0.72696296
0.71206703
1.15676
1.1533074
1.1486876
1.1431692
1.1369517
1.130187
1.1230001
1.1155007
1.1077983
1.1000236
1.092374
1.0852051
1.0792068
1.0758217
1.074831
1.0731965
1.0696051
1.0649955
1.0599191
1.0543723
1.0479663
1.0401419
1.0302459
1.0177583
1.0024919
0.98430404
0.96326105
0.94176593
0.91229457
0.84860505
1.1585787
1.1584638
1.1582554
1.1579386
1.1575027
1.1569406
1.1562481
1.1554241
1.1544719
1.1534021
1.1522416
1.1510544
1.1499787
1.1490373
1.1450545
1.131541
1.1155192
1.1037054
1.0936478
1.0825654
1.0680971
1.0489347
1.0246131
0.99674137
0.96792135
0.93927196
0.91054244
0.89115372
0.87472865
0.84620109
1.158618
1.1586143
1.1586055
1.1585887
1.1585608
1.1585179
1.158456
1.1583708
1.1582579
1.1581124
1.1579295
1.1577009
1.1573534
1.1556875
1.1384954
1.0837104
1.0220656
1.0115098
1.0148744
1.0092459
0.98674906
0.96424141
0.94715946
0.93223813
0.91845843
0.90415831
0.88318244
0.86493674
0.84560901
0.81764758
1.078139
1.0134448
0.96174728
0.91899136
0.88253787
0.85080122
0.8227781
0.79777847
0.77531689
0.75507809
0.73692478
0.72099626
0.70823526
0.71204252
0.71723124
0.71955073
0.71742697
0.71160651
0.70514897
0.69853721
0.69217006
0.68640396
0.68154628
0.67782561
0.67533678
0.67391954
0.67290535
0.67091616
0.66606464
0.65646706
1.156761
1.1533087
1.1486859
1.1431599
1.1369288
1.1301425
1.1229228
1.1153774
1.1076133
1.0997699
1.092083
1.0850204
1.0795012
1.0770071
1.0748088
1.0704283
1.0647741
1.0575475
1.0468141
1.0349511
1.0237477
1.0132052
1.00133
0.98527321
0.96302663
0.93427508
0.89937929
0.85882737
0.81183785
0.75663409
1.1585787
1.1584638
1.1582552
1.1579375
1.1575001
1.156935
1.1562376
1.1554059
1.1544423
1.1533576
1.1521839
1.1510072
1.15
1.1486066
1.1365663
1.1205488
1.109872
1.1036078
1.0977884
1.0891897
1.0747267
1.0521529
1.0217134
0.9874653
0.95561694
0.93253834
0.9169745
0.89392175
0.85634251
0.80327148
1.158618
1.1586143
1.1586054
1.1585886
1.1585605
1.1585173
1.1584548
1.1583685
1.1582534
1.1581042
1.1579146
1.1576682
1.1571513
1.1526351
1.0967944
1.0036594
0.98653006
0.9794384
0.97389831
0.9684876
0.96006523
0.94744455
0.93368303
0.91965999
0.90594636
0.89303955
0.88105883
0.86900055
0.84352391
0.80056578
1.078193
1.0135372
0.96186908
0.91913785
0.88270655
0.8509908
0.82299133
0.79802784
0.7756274
0.75549939
0.73757325
0.72216352
0.71046329
0.71550578
0.71943204
0.71904953
0.71492278
0.70933102
0.70298518
0.69638894
0.68997144
0.68410806
0.67908347
0.6750655
0.6720753
0.66989952
0.66788832
0.66482848
0.65911095
0.64872129
1.1567624
1.1533126
1.1486933
1.1431717
1.136946
1.1301664
1.122956
1.1154251
1.1076888
1.099907
1.0923703
1.0856745
1.0809103
1.0789796
1.0749347
1.0693569
1.0623129
1.0497097
1.0329121
1.0134991
0.99203783
0.96839516
0.94200968
0.91287518
0.88200809
0.85071583
0.81950082
0.78795145
0.75476732
0.71666675
1.1585788
1.1584639
1.1582554
1.1579381
1.1575009
1.1569363
1.1562395
1.1554087
1.1544472
1.1533684
1.1522133
1.1510932
1.150166
1.1473544
1.1303016
1.1192578
1.1130928
1.1075973
1.1009827
1.0922253
1.0777559
1.054545
1.0229763
0.98881772
0.95754131
0.92796043
0.89594157
0.85964309
0.81692719
0.76580425
1.158618
1.1586143
1.1586054
1.1585887
1.1585606
1.1585174
1.1584548
1.1583684
1.1582531
1.1581032
1.1579111
1.1576442
1.1567592
1.1455792
1.0192657
0.98760436
0.97906602
0.97397676
0.96701887
0.95845918
0.94896413
0.93788808
0.92653602
0.91624528
0.90698922
0.89821635
0.88839136
0.86086656
0.82155326
0.77345868
1.0782464
1.0136411
0.96202374
0.91934341
0.88296634
0.8513143
0.82339059
0.79851282
0.77621432
0.75619362
0.73832419
0.72274732
0.71031195
0.71197179
0.71545449
0.71727322
0.71627726
0.71364305
0.71108908
0.70977935
0.71039185
0.71295182
0.71684868
0.72137661
0.72598634
0.729778
0.73042886
0.724663
0.71460389
0.70044423
1.1567637
1.1533183
1.148708
1.1432014
1.1369979
1.1302498
1.1230832
1.1156108
1.1079501
1.1002529
1.0927646
1.0859465
1.0806606
1.0782132
1.0763386
1.0726416
1.0677087
1.0622666
1.056546
1.0503108
1.0429372
1.0335544
1.021507
1.0068772
0.99021191
0.97173761
0.95147549
0.92959338
0.88737722
0.82178525
1.1585788
1.1584641
1.1582562
1.15794
1.157505
1.1569441
1.1562531
1.1554313
1.1544825
1.15342
1.1522785
1.1511432
1.150175
1.1488651
1.1390081
1.1235636
1.1125428
1.1042922
1.0953967
1.083905
1.0680587
1.0466949
1.0200375
0.99070518
0.96149438
0.93271343
0.90672317
0.88571007
0.86454176
0.82632546
1.158618
1.1586143
1.1586055
1.1585888
1.1585609
1.158518
1.1584562
1.1583711
1.1582579
1.158112
1.1579276
1.1576902
1.1571964
1.1529868
1.1068791
1.0370511
1.0098646
1.0093657
1.0095492
0.99495287
0.97556149
0.95714185
0.93960809
0.92591317
0.91300541
0.89590298
0.87565745
0.85531523
0.83287047
0.80092402
1.0782842
1.0137456
0.96223235
0.9196979
0.88353459
0.85221219
0.82480399
0.8006936
0.77952573
0.76116711
0.74570443
0.73345992
0.72530082
0.73132381
0.74274854
0.75817264
0.7750661
0.7916336
0.8068643
0.82028875
0.83176741
0.84114173
0.84804364
0.85207204
0.85305822
0.8511655
0.84665911
0.83938182
0.82716237
0.8039956
1.1567648
1.1533254
1.1487314
1.1432557
1.1371049
1.1304451
1.1234257
1.1161944
1.108918
1.1018134
1.0951783
1.0894594
1.0853484
1.0840392
1.085198
1.0863045
1.0855859
1.0829304
1.0783562
1.0719981
1.0639575
1.0540069
1.0417277
1.0269546
1.0099904
0.99136434
0.97151806
0.95108169
0.92848223
0.90004026
1.1585788
1.1584644
1.1582574
1.1579434
1.1575126
1.1569594
1.1562817
1.1554825
1.1545712
1.1535678
1.1525123
1.1514795
1.1505964
1.1498513
1.1466247
1.1362412
1.1217843
1.1079305
1.0939076
1.0793699
1.063925
1.0461058
1.0248984
1.0009145
0.97586576
0.95162644
0.92955773
0.9104818
0.89171199
0.86699657
1.158618
1.1586143
1.1586055
1.158589
1.1585614
1.1585192
1.1584585
1.1583755
1.1582662
1.1581268
1.1579539
1.1577415
1.1574276
1.1560294
1.1428851
1.106658
1.0734389
1.0587541
1.0343327
1.003253
0.97483093
0.95236837
0.93465743
0.92021919
0.90803798
0.89773217
0.88895115
0.88129601
0.86794176
0.8399209
1.0783
1.0138907
0.96252209
0.92014196
0.88415784
0.85305425
0.82595541
0.80238682
0.78216321
0.76533969
0.75215593
0.74299477
0.73846018
0.74690684
0.75982528
0.77569283
0.79162796
0.80494211
0.81451581
0.82072095
0.8245674
0.82684756
0.82793393
0.82786187
0.8265404
0.8238225
0.81941168
0.81252231
0.80115816
0.78348008
1.1567656
1.1533385
1.1487664
1.1433184
1.1372024
1.1305911
1.1236518
1.1165684
1.1095429
1.1028321
1.0967521
1.0916991
1.0881312
1.0868029
1.0874074
1.0882673
1.087031
1.0825983
1.0756503
1.0674133
1.0586438
1.0493981
1.0395139
1.0287587
1.0169529
1.004032
0.99008377
0.97538393
0.9596732
0.93674514
1.1585788
1.158465
1.1582591
1.1579467
1.1575175
1.1569655
1.1562889
1.155492
1.1545854
1.1535903
1.1525424
1.1514332
1.1502333
1.1490624
1.1464565
1.1394907
1.1249967
1.1035497
1.0796658
1.0574392
1.0385982
1.0207393
1.0036657
0.98713048
0.97127328
0.95535577
0.93893414
0.92215718
0.90489974
0.88652675
1.158618
1.1586143
1.1586056
1.1585891
1.1585615
1.1585192
1.158458
1.1583737
1.1582619
1.1581176
1.1579334
1.1576815
1.1572023
1.1553237
1.1472953
1.1261625
1.0927453
1.052825
1.0139565
0.97983092
0.95212866
0.93174414
0.9159612
0.90309
0.89223119
0.88355047
0.87642073
0.87013492
0.86388028
0.85705309
1.0782953
1.0132361
0.96078159
0.91699221
0.87927489
0.84606375
0.81644133
0.79001314
0.76695907
0.74688058
0.72956572
0.71497279
0.70338561
0.70136106
0.70236048
0.70653815
0.71333977
0.72162936
0.7301727
0.73802756
0.74466046
0.74984664
0.75352922
0.75571334
0.75641413
0.75561653
0.75320755
0.74883723
0.74165645
0.7305616
1.1567634
1.1532716
1.148521
1.1427468
1.1361239
1.128789
1.1208685
1.1122281
1.1005252
1.0852045
1.0644171
1.0369373
1.0031007
0.96776177
0.93464666
0.90662684
0.88454435
0.86807725
0.85661503
0.84949592
0.84580985
0.84436891
0.84397886
0.84361391
0.84245001
0.83975627
0.83469303
0.82597045
0.8112576
0.78845876
1.1585787
1.1584617
1.1582447
1.1579063
1.1574286
1.1567961
1.1559966
1.1550143
1.1537745
1.152191
1.1500472
1.1441838
1.1282405
1.0993376
1.0614524
1.0202082
0.98088248
0.94674483
0.91883151
0.89723053
0.88141676
0.87039074
0.86292544
0.85780597
0.85396523
0.85049026
0.84652877
0.8410439
0.83222431
0.81744504
1.158618
1.1586142
1.1586049
1.1585866
1.158555
1.1585046
1.1584292
1.1583209
1.1581686
1.1579552
1.1576428
1.1570156
1.1551082
1.1449694
1.1159232
1.0749603
1.0339402
0.99672591
0.96438052
0.93735024
0.91569144
0.89899146
0.88644159
0.87707562
0.86996667
0.86430561
0.85936336
0.85434685
0.84801524
0.83839571
)
;

boundaryField
{
    maxY
    {
        type            calculated;
        value           nonuniform List<scalar> 
300
(
1.1586175
1.1586175
1.1586175
1.1586175
1.1586175
1.1586175
1.1586175
1.1586175
1.1586175
1.1586175
1.1586136
1.1586138
1.1586138
1.1586137
1.1586137
1.1586137
1.1586138
1.1586138
1.1586138
1.1586137
1.1586043
1.158605
1.158605
1.1586049
1.1586049
1.1586049
1.158605
1.158605
1.1586051
1.1586043
1.158586
1.1585885
1.1585884
1.1585882
1.1585881
1.1585881
1.1585883
1.1585885
1.1585886
1.1585861
1.1585542
1.1585608
1.1585607
1.1585602
1.15856
1.15856
1.1585603
1.1585608
1.158561
1.1585544
1.1585038
1.1585184
1.1585184
1.1585173
1.1585168
1.1585168
1.1585175
1.1585186
1.1585186
1.1585041
1.1584283
1.1584572
1.1584577
1.1584555
1.1584543
1.1584543
1.1584557
1.158458
1.1584574
1.1584286
1.15832
1.1583729
1.1583747
1.1583703
1.1583679
1.1583679
1.1583705
1.158375
1.1583732
1.1583204
1.1581676
1.1582614
1.1582656
1.1582574
1.1582529
1.1582526
1.1582574
1.1582657
1.1582614
1.1581681
1.157954
1.1581176
1.1581267
1.1581119
1.1581037
1.1581027
1.1581114
1.1581263
1.1581171
1.1579547
1.1576391
1.1579339
1.1579549
1.1579289
1.1579141
1.1579106
1.1579271
1.1579534
1.1579329
1.1576423
1.156978
1.1576784
1.1577463
1.1577004
1.1576677
1.1576437
1.1576897
1.157741
1.157681
1.157015
1.1548877
1.1571625
1.1574771
1.1573529
1.1571508
1.1567587
1.1571959
1.157427
1.1572018
1.1551077
1.1429074
1.1549695
1.1568246
1.155687
1.1526345
1.1455787
1.1529863
1.1560289
1.1553232
1.1449689
1.11165
1.1464038
1.1522584
1.1384949
1.0967939
1.0192652
1.1068786
1.1428846
1.1472948
1.1159227
1.0698567
1.1249592
1.1318437
1.0837099
1.003659
0.98760397
1.0370506
1.1066576
1.126162
1.0749598
1.0287019
1.0903457
1.0951489
1.0220652
0.98652968
0.97906565
1.0098642
1.0734385
1.0927448
1.0339398
0.99220434
1.0508817
1.0698286
1.0115094
0.97943802
0.97397639
1.0093653
1.0587537
1.0528246
0.99672552
0.96096353
1.0132941
1.044436
1.014874
0.97389794
0.9670185
1.0095488
1.0343323
1.0139561
0.96438015
0.93498094
0.98022039
1.0125041
1.0092455
0.96848723
0.95845882
0.99495248
1.0032526
0.97983054
0.9373499
0.91409331
0.95293137
0.9822281
0.98674868
0.96006487
0.94896378
0.97556112
0.97483056
0.95212831
0.91569111
0.89788167
0.93269695
0.9578997
0.96424104
0.9474442
0.93788773
0.95714149
0.95236802
0.9317438
0.89899114
0.88563305
0.9171197
0.93895316
0.94715911
0.93368269
0.92653569
0.93960775
0.93465709
0.91596087
0.88644128
0.8764825
0.90460329
0.9238467
0.93223779
0.91965966
0.91624495
0.92591284
0.92021885
0.90308968
0.87707532
0.86956713
0.89405035
0.91128372
0.9184581
0.90594604
0.9069889
0.91300508
0.90803765
0.89223087
0.86996637
0.86409752
0.88475145
0.90035947
0.90415798
0.89303924
0.89821603
0.89590266
0.89773185
0.88355016
0.86430532
0.85935051
0.87719668
0.89084665
0.88318213
0.88105852
0.88839105
0.87565715
0.88895084
0.87642042
0.85936307
0.85452455
0.87060986
0.88248913
0.86493645
0.86900026
0.86086627
0.85531495
0.88129571
0.87013462
0.85434657
0.84837097
0.86412526
0.87175142
0.84560872
0.84352363
0.821553
0.8328702
0.86794146
0.86387999
0.84801496
0.83893214
0.85704826
0.85118792
0.81764731
0.80056553
0.77345844
0.80092377
0.83992063
0.8570528
0.83839543
)
;
    }
    minX
    {
        type            calculated;
        value           nonuniform List<scalar> 
40
(
1.1586221
1.1586211
1.1586201
1.158619
1.1586221
1.1586211
1.1586201
1.158619
1.1586221
1.1586211
1.1586201
1.158619
1.1586221
1.1586211
1.1586201
1.158619
1.1586221
1.1586211
1.1586201
1.158619
1.1586221
1.1586211
1.1586201
1.158619
1.1586221
1.1586211
1.1586201
1.158619
1.1586221
1.1586211
1.1586201
1.158619
1.1586221
1.1586211
1.1586201
1.158619
1.1586221
1.1586211
1.1586201
1.158619
)
;
    }
    maxX
    {
        type            calculated;
        value           nonuniform List<scalar> 
40
(
0.73158484
0.78983559
0.8184311
0.83881426
0.78474611
0.94399106
0.88870496
0.85694687
0.81200694
0.91519039
0.88021085
0.85175353
0.71198229
0.84836742
0.84620585
0.8185799
0.65644471
0.75604444
0.802865
0.80135923
0.64874908
0.71664126
0.7657346
0.77430351
0.70045468
0.82152147
0.82641879
0.8021535
0.80365787
0.90022881
0.86761861
0.84154796
0.78325877
0.93659947
0.88650853
0.8569995
0.73042467
0.78823136
0.81727494
0.83830594
)
;
    }
    minZ
    {
        type            calculated;
        value           nonuniform List<scalar> 
120
(
1.0780107
1.1567564
1.1585786
1.158618
1.0127546
1.1532515
1.1584611
1.1586142
0.96015839
1.1484832
1.1582433
1.1586048
0.91626034
1.1426878
1.1579037
1.1585865
0.87845384
1.136041
1.1574243
1.1585548
0.84516844
1.1286809
1.1567899
1.1585043
0.81549322
1.1207338
1.1559882
1.1584288
0.78906522
1.1119639
1.1550009
1.1583205
0.76602265
1.1000701
1.1537519
1.1581681
0.74596343
1.0844949
1.1521529
1.1579545
0.72867026
1.0632189
1.1499619
1.1576396
0.71409168
1.03522
1.1434585
1.1569786
0.70249031
1.0007727
1.1260469
1.1548883
0.70041239
0.96494913
1.0956787
1.1429079
0.70123688
0.93164785
1.0566712
1.1116504
0.70512622
0.9038784
1.0151368
1.0698571
0.71162564
0.88246449
0.97597079
1.0287023
0.71969188
0.86680843
0.94263526
0.99220473
0.72812415
0.85600947
0.91574649
0.96096389
0.73597005
0.84929488
0.89507192
0.93498129
0.74266976
0.84580598
0.8799498
0.91409363
0.74797817
0.84449082
0.86939992
0.89788198
0.75183985
0.84429033
0.86228727
0.88563336
0.75427201
0.84424919
0.85748715
0.87648281
0.75529359
0.84352548
0.85398065
0.86956743
0.75488181
0.84131305
0.85086323
0.86409782
0.7529046
0.83665547
0.84724794
0.8593508
0.74898256
0.8281036
0.84203511
0.85452484
0.74226297
0.81317803
0.83334935
0.84837125
0.73171715
0.79007226
0.81861845
0.83893241
)
;
    }
    maxZ
    {
        type            calculated;
        value           nonuniform List<scalar> 
120
(
1.0782953
1.1567634
1.1585787
1.158618
1.0132361
1.1532716
1.1584617
1.1586142
0.96078159
1.148521
1.1582447
1.1586049
0.91699221
1.1427468
1.1579063
1.1585866
0.87927489
1.1361239
1.1574286
1.158555
0.84606375
1.128789
1.1567961
1.1585046
0.81644133
1.1208685
1.1559966
1.1584292
0.79001314
1.1122281
1.1550143
1.1583209
0.76695907
1.1005252
1.1537745
1.1581686
0.74688058
1.0852045
1.152191
1.1579552
0.72956572
1.0644171
1.1500472
1.1576428
0.71497279
1.0369373
1.1441838
1.1570156
0.70338561
1.0031007
1.1282405
1.1551082
0.70136106
0.96776177
1.0993376
1.1449694
0.70236048
0.93464666
1.0614524
1.1159232
0.70653815
0.90662684
1.0202082
1.0749603
0.71333977
0.88454435
0.98088248
1.0339402
0.72162936
0.86807725
0.94674483
0.99672591
0.7301727
0.85661503
0.91883151
0.96438052
0.73802756
0.84949592
0.89723053
0.93735024
0.74466046
0.84580985
0.88141676
0.91569144
0.74984664
0.84436891
0.87039074
0.89899146
0.75352922
0.84397886
0.86292544
0.88644159
0.75571334
0.84361391
0.85780597
0.87707562
0.75641413
0.84245001
0.85396523
0.86996667
0.75561653
0.83975627
0.85049026
0.86430561
0.75320755
0.83469303
0.84652877
0.85936336
0.74883723
0.82597045
0.8410439
0.85434685
0.74165645
0.8112576
0.83222431
0.84801524
0.7305616
0.78845876
0.81744504
0.83839571
)
;
    }
    topAir_to_rightSolid
    {
        type            calculated;
        value           nonuniform List<scalar> 
130
(
0.47185467
0.46702207
0.4620677
0.45724587
0.45273072
0.44864658
0.44504565
0.44194473
0.43934018
0.43725266
0.43570381
0.43467889
0.43416684
0.47543342
0.46971326
0.46400839
0.4586056
0.45366785
0.44928503
0.44548118
0.44224907
0.43956417
0.43742693
0.43584591
0.43480213
0.43428053
0.48280824
0.47499918
0.4676571
0.46107093
0.45531405
0.45037637
0.44621162
0.44275377
0.43993673
0.43771679
0.43608608
0.43501412
0.43448161
0.49431111
0.48237649
0.47231401
0.4640144
0.45719039
0.45156724
0.44698682
0.44327899
0.4403216
0.43802406
0.4363371
0.43523219
0.43468327
0.50860176
0.48959022
0.4762214
0.46626019
0.45855101
0.45243577
0.4475693
0.44369476
0.44064009
0.43828593
0.43656163
0.43543742
0.43488014
0.50866841
0.48965656
0.47629144
0.46633767
0.45864432
0.45256047
0.44771494
0.4438548
0.44081082
0.43846599
0.43674597
0.43562223
0.43506592
0.49453212
0.48260134
0.47255205
0.46427572
0.45749015
0.45193066
0.44740114
0.44373459
0.44080722
0.43853041
0.43685995
0.43576474
0.43522066
0.48322235
0.47540703
0.46808276
0.46152999
0.45581824
0.45093774
0.44683258
0.44343147
0.4406662
0.43849663
0.43689842
0.43584518
0.43531927
0.4759454
0.47022516
0.46454351
0.45918178
0.4543
0.44997914
0.44624105
0.44307476
0.44045948
0.43839457
0.43686251
0.43584764
0.43534003
0.47240644
0.46757564
0.46264794
0.45787398
0.45342669
0.44940635
0.44587636
0.44284707
0.44031822
0.4383116
0.43681699
0.43582459
0.43532806
)
;
    }
    topAir_to_heater
    {
        type            calculated;
        value           nonuniform List<scalar> 
40
(
0.48378727
0.48248679
0.47991287
0.47625771
0.4898995
0.48831317
0.48518525
0.48075455
0.5032514
0.50106345
0.49670849
0.49041622
0.52667324
0.5236795
0.51729777
0.50731184
0.5651902
0.56204172
0.55388427
0.5381197
0.56529986
0.56213679
0.55396529
0.53818967
0.5269881
0.52397283
0.5175654
0.50755152
0.50370077
0.50152968
0.4971649
0.49085459
0.4904303
0.48883777
0.48570549
0.48127525
0.48437741
0.48304904
0.48045322
0.47681198
)
;
    }
    topAir_to_leftSolid
    {
        type            calculated;
        value           nonuniform List<scalar> 
130
(
0.40862078
0.40865207
0.40870876
0.40879529
0.40889352
0.40899009
0.40908561
0.40918108
0.40927539
0.40936852
0.40945254
0.4095193
0.40955949
0.40865246
0.40867903
0.40873394
0.40881756
0.40892766
0.40903713
0.40914589
0.40925461
0.40936298
0.40947101
0.40957045
0.40965129
0.40970394
0.40872137
0.4087467
0.40880142
0.40888575
0.40899946
0.40913644
0.40926936
0.40940106
0.40953631
0.40966807
0.40979336
0.40989615
0.40996977
0.40882498
0.40885255
0.40891145
0.40900255
0.4091269
0.40927801
0.40944313
0.40960406
0.40977079
0.40994277
0.41012966
0.41025608
0.41031979
0.40897914
0.40900725
0.40906862
0.409166
0.40930193
0.40946523
0.409649
0.40983318
0.41002607
0.41022766
0.41041315
0.41054593
0.41061732
0.40917121
0.40919879
0.40925946
0.40935522
0.40948473
0.4096318
0.40979899
0.40998167
0.4101873
0.41040273
0.41058093
0.41071036
0.41078577
0.40936909
0.40939252
0.40944384
0.40952295
0.40963039
0.40976294
0.40991478
0.41007233
0.41023921
0.41041403
0.41058129
0.41070844
0.41078
0.40950543
0.40952972
0.40957625
0.40964683
0.40974239
0.40986208
0.40999302
0.41012602
0.41025977
0.41039442
0.41051465
0.41060786
0.41065602
0.40959148
0.40961435
0.40966248
0.40973467
0.40982715
0.40993403
0.410044
0.41015289
0.4102559
0.41035327
0.41044321
0.41051751
0.41056132
0.40963842
0.4096597
0.40970632
0.40977777
0.40986882
0.40996901
0.41006604
0.41015656
0.41023969
0.4103199
0.41039741
0.41046404
0.41050694
)
;
    }
}


// ************************************************************************* //
