/*--------------------------------*- C++ -*----------------------------------*\
| =========                 |                                                 |
| \\      /  F ield         | OpenFOAM: The Open Source CFD Toolbox           |
|  \\    /   O peration     | Version:  v2012                                 |
|   \\  /    A nd           | Website:  www.openfoam.com                      |
|    \\/     M anipulation  |                                                 |
\*---------------------------------------------------------------------------*/
FoamFile
{
    version     2.0;
    format      ascii;
    class       volVectorField;
    location    "320/topAir";
    object      U;
}
// * * * * * * * * * * * * * * * * * * * * * * * * * * * * * * * * * * * * * //

dimensions      [0 1 -1 0 0 0 0];


internalField   nonuniform List<vector> 
1200
(
(0.10392867 -0.0022870147 0.00087226702)
(0.11640088 -0.0024143299 0.0013065846)
(0.12713288 -0.0022569705 0.0013894543)
(0.13548137 -0.0017756306 0.0012638547)
(0.14275351 -0.0010281447 0.00094632501)
(0.14953775 -0.00017315686 0.00039918771)
(0.15604939 0.00070226437 -0.00040367306)
(0.16255298 0.0015232152 -0.0015784121)
(0.16920949 0.0023612226 -0.0033661954)
(0.17629418 0.0033807214 -0.0060530307)
(0.18398303 0.0048737794 -0.010005314)
(0.19202278 0.0072103454 -0.015617767)
(0.19915553 0.010821936 -0.023174269)
(0.20399206 0.015322969 -0.032632211)
(0.20640452 0.020522928 -0.043440374)
(0.2069348 0.025634055 -0.054608587)
(0.20605725 0.030012175 -0.06496158)
(0.20410176 0.033388826 -0.073578012)
(0.20132885 0.035711974 -0.080079849)
(0.1981317 0.036983172 -0.084540938)
(0.19510212 0.037274499 -0.087264425)
(0.19284881 0.036780565 -0.088590576)
(0.19176756 0.035742504 -0.088799223)
(0.19195125 0.034388835 -0.088077475)
(0.19319766 0.032926423 -0.086517733)
(0.19499464 0.031597053 -0.084091104)
(0.19634057 0.030820612 -0.080558027)
(0.19526613 0.031475116 -0.075335465)
(0.1882758 0.035576297 -0.067384732)
(0.14724958 0.04918149 -0.054490507)
(0.09870515 -0.0036406879 0.00085159295)
(0.098449105 -0.004471336 0.0012864044)
(0.098738827 -0.0045715403 0.0014710697)
(0.099416001 -0.0041677606 0.0015595633)
(0.10058718 -0.003439327 0.0015813525)
(0.10228772 -0.0026166774 0.0015244502)
(0.10449263 -0.0018429945 0.0013689484)
(0.10728086 -0.0012330967 0.0010685455)
(0.11112591 -0.00049940404 0.00051296611)
(0.1164649 0.00070240031 -0.00045971388)
(0.12412332 0.0031189869 -0.0021317772)
(0.13449305 0.0077854052 -0.0048768967)
(0.14737335 0.015651494 -0.0092044365)
(0.16120709 0.025996558 -0.015361513)
(0.17410852 0.038088416 -0.023079091)
(0.18470336 0.050217084 -0.031439714)
(0.19226375 0.061151963 -0.039338341)
(0.19655096 0.070438206 -0.046037512)
(0.19781966 0.077751497 -0.051344409)
(0.19686439 0.082752841 -0.055356841)
(0.19484649 0.085357377 -0.058231408)
(0.19282612 0.085935852 -0.060046325)
(0.19143457 0.085049751 -0.060844074)
(0.19088732 0.083237831 -0.060663467)
(0.19110406 0.080906349 -0.05951647)
(0.19176862 0.078445772 -0.057282669)
(0.19218889 0.076598614 -0.053517086)
(0.19097958 0.076966543 -0.047154624)
(0.18664106 0.082919895 -0.035952271)
(0.15757666 0.099458697 -0.01519026)
(0.098847104 -0.0028133066 0.00087786525)
(0.098070455 -0.0040819764 0.0013334039)
(0.096512281 -0.0044826152 0.00153829)
(0.094512183 -0.0045687323 0.0016624538)
(0.092530334 -0.0045237916 0.0017585722)
(0.090749481 -0.0044288683 0.0018388357)
(0.089165221 -0.0043753176 0.0019191648)
(0.087704586 -0.0044517959 0.0020333515)
(0.086384855 -0.0044896211 0.0022457158)
(0.085453462 -0.0043901041 0.0026016671)
(0.085368611 -0.0039073058 0.0030414538)
(0.087839869 -0.0017142327 0.0032168342)
(0.096020716 0.0051455154 0.002486038)
(0.1095701 0.018267948 0.00056874385)
(0.12626568 0.035630835 -0.0026426739)
(0.14285647 0.053901959 -0.0061869093)
(0.1574137 0.070597581 -0.0091122964)
(0.16852858 0.084009252 -0.011154114)
(0.17578318 0.094108043 -0.012541165)
(0.17979036 0.10104021 -0.013734995)
(0.18181787 0.10498096 -0.015079213)
(0.18302262 0.10623778 -0.016534882)
(0.18397321 0.10531177 -0.017676399)
(0.18473934 0.10274508 -0.018146146)
(0.18511857 0.0990116 -0.017849573)
(0.18489295 0.094554982 -0.016590501)
(0.18377328 0.090062855 -0.014001648)
(0.18119363 0.087142411 -0.0093455565)
(0.17735281 0.089475677 -0.0011685467)
(0.15591826 0.1035203 0.013483162)
(0.09687959 -0.0015280653 0.00084375526)
(0.094715504 -0.0022532779 0.0012611942)
(0.091070847 -0.0024750209 0.0014272434)
(0.086587363 -0.0025083526 0.0015105862)
(0.082074386 -0.0024513086 0.0015672553)
(0.077777041 -0.0023319979 0.0016128905)
(0.073662335 -0.0021869979 0.0016692526)
(0.069638106 -0.0020572362 0.0017774183)
(0.065580008 -0.001968229 0.002007825)
(0.061280225 -0.0020525874 0.0024757641)
(0.056349038 -0.0027191431 0.003372763)
(0.050367371 -0.0040516151 0.0050864892)
(0.042614349 -0.004303697 0.0082383162)
(0.037975791 0.0024026473 0.012674205)
(0.043214835 0.018045573 0.01763677)
(0.056592826 0.035810588 0.022639087)
(0.072798017 0.050735836 0.02779315)
(0.088583066 0.061987352 0.033118199)
(0.1024271 0.070291818 0.038161375)
(0.11402887 0.076135147 0.042068054)
(0.12384711 0.079690926 0.044554549)
(0.13239886 0.080968506 0.045829428)
(0.13984137 0.080185615 0.046163579)
(0.1459585 0.077707959 0.045882218)
(0.15043875 0.073985279 0.045307617)
(0.15307674 0.069518978 0.044780719)
(0.15398753 0.064897689 0.044656206)
(0.15388931 0.061376655 0.045310069)
(0.15651643 0.061888539 0.046616495)
(0.17050151 0.072563715 0.047558724)
(0.10518751 -0.0022856931 0.0010131019)
(0.11851229 -0.0024198826 0.0014233169)
(0.1304957 -0.0023434082 0.0014374234)
(0.14019344 -0.0020337916 0.0012298988)
(0.14863561 -0.0015554874 0.00082520663)
(0.15635066 -0.0010732049 0.00018735765)
(0.1633782 -0.00071778609 -0.00073024759)
(0.16964102 -0.00056130863 -0.0020626198)
(0.17510592 -0.0006596088 -0.0040360232)
(0.17975872 -0.0010795743 -0.0069143124)
(0.18354482 -0.0019273077 -0.011025579)
(0.18636717 -0.0033078018 -0.016678638)
(0.18775443 -0.0052800733 -0.024003054)
(0.18745498 -0.0083283302 -0.032672455)
(0.18673797 -0.011905979 -0.041874004)
(0.18688973 -0.015472234 -0.050455528)
(0.18818529 -0.018289612 -0.057455041)
(0.18996522 -0.019822182 -0.062658079)
(0.19129267 -0.020229665 -0.066400349)
(0.19169594 -0.020138609 -0.069052432)
(0.19137763 -0.020114873 -0.070810903)
(0.19094805 -0.020302451 -0.071785837)
(0.1909942 -0.020613634 -0.072030547)
(0.19185573 -0.020923605 -0.071542934)
(0.1936233 -0.02114587 -0.07027151)
(0.19626473 -0.021138521 -0.068095648)
(0.19967059 -0.020449087 -0.064745521)
(0.20349898 -0.017802486 -0.059725248)
(0.2068533 -0.0096083036 -0.052416213)
(0.19710576 0.014202004 -0.041929311)
(0.099996901 -0.0036492008 0.0010713485)
(0.10068514 -0.0045118126 0.0016315076)
(0.10236566 -0.0047394932 0.001845134)
(0.1046144 -0.004576719 0.001910268)
(0.10727665 -0.0042069532 0.001872759)
(0.11030269 -0.0038623542 0.0017155063)
(0.11360742 -0.0037197504 0.0014029873)
(0.11711122 -0.0038919259 0.00086948338)
(0.12080094 -0.0044839226 5.770238e-06)
(0.12463473 -0.005634669 -0.0013446805)
(0.12859541 -0.0075485115 -0.0033612142)
(0.13272679 -0.010406423 -0.0062787618)
(0.13713348 -0.014333926 -0.010333691)
(0.14182492 -0.019803508 -0.015371252)
(0.14700601 -0.02597804 -0.020674532)
(0.15286972 -0.031540902 -0.024991759)
(0.15897765 -0.034786786 -0.027483199)
(0.16437798 -0.034713611 -0.028700141)
(0.16807861 -0.031926207 -0.029668523)
(0.16980183 -0.028041426 -0.030978471)
(0.17014743 -0.024620531 -0.032621962)
(0.17004525 -0.022181601 -0.034368669)
(0.17010133 -0.020560295 -0.035881835)
(0.17053708 -0.01948222 -0.036717497)
(0.17148541 -0.01898291 -0.03633263)
(0.17337451 -0.019152408 -0.034159135)
(0.17723035 -0.019850518 -0.029612929)
(0.18534356 -0.020320252 -0.021739729)
(0.20345742 -0.018427062 -0.0087946202)
(0.26059395 -0.0075827062 0.0075276254)
(0.10014831 -0.0028406191 0.0010917367)
(0.1003289 -0.0041332808 0.0016776284)
(0.10021762 -0.00457479 0.0019360441)
(0.099922405 -0.0047347574 0.0020722134)
(0.099653141 -0.0048013443 0.0021487891)
(0.099525383 -0.0048568192 0.0021698917)
(0.099552364 -0.0049804791 0.0021359965)
(0.099711704 -0.0052594398 0.0020561489)
(0.099993907 -0.0058019969 0.0019561491)
(0.10039492 -0.006796405 0.0018278482)
(0.10098175 -0.0085093528 0.0015597359)
(0.10193107 -0.01127176 0.00091934401)
(0.10349421 -0.01550404 -0.00016482482)
(0.10579146 -0.02176999 -0.0013488632)
(0.10914585 -0.029278683 -0.0018081153)
(0.11381644 -0.036252521 0.00057624754)
(0.11975136 -0.040048627 0.0069637535)
(0.12660535 -0.038627953 0.01512995)
(0.13282908 -0.03368129 0.02263171)
(0.13722771 -0.028018651 0.028012991)
(0.1397877 -0.023683396 0.031033556)
(0.14120974 -0.020069286 0.033567612)
(0.1432709 -0.017587681 0.035877314)
(0.14629395 -0.016228674 0.03839375)
(0.14975686 -0.016017839 0.041183346)
(0.15268101 -0.01745906 0.043420974)
(0.15518348 -0.019860859 0.045775345)
(0.15842445 -0.022779212 0.048591247)
(0.16547724 -0.026258553 0.05363245)
(0.1897405 -0.029923817 0.063099402)
(0.098124449 -0.0015547466 0.0010665028)
(0.09685946 -0.0023088235 0.0016335528)
(0.094590506 -0.0025625875 0.0018777913)
(0.091731781 -0.0026396352 0.0019969445)
(0.088847547 -0.0026413239 0.0020534318)
(0.086127084 -0.0025983458 0.002055493)
(0.083569092 -0.0025491245 0.0020112314)
(0.081143224 -0.0025425972 0.0019406603)
(0.078816624 -0.0026430356 0.0018841194)
(0.076518686 -0.0029616174 0.0019143353)
(0.074142593 -0.0036957055 0.002160057)
(0.071531013 -0.0051938942 0.0028424885)
(0.068333915 -0.0078456142 0.0042308582)
(0.064241376 -0.011463274 0.0069023113)
(0.059850857 -0.014301807 0.012954886)
(0.057281737 -0.013171292 0.025492713)
(0.0592803 -0.0062748542 0.044541305)
(0.065220151 0.0040923075 0.064858323)
(0.071875969 0.015056399 0.082004206)
(0.077965926 0.024554866 0.094626031)
(0.084473939 0.031715126 0.10295642)
(0.092207446 0.035293528 0.10679457)
(0.099653948 0.035932999 0.10799726)
(0.10614067 0.03414204 0.10750486)
(0.11126684 0.03080323 0.10579822)
(0.11478848 0.026541106 0.10297246)
(0.11756724 0.021112354 0.098100145)
(0.12008449 0.015404783 0.091872092)
(0.12478484 0.010071256 0.086489147)
(0.14937748 0.006562706 0.082457849)
(0.10506179 -0.00230374 0.00036032285)
(0.11818616 -0.0024356614 0.00059052407)
(0.13007972 -0.0023336907 0.00068332696)
(0.13980031 -0.0019766346 0.00068311102)
(0.14831784 -0.0014387212 0.0006173126)
(0.15608542 -0.00089573854 0.00049158937)
(0.16311387 -0.00045454293 0.00028362362)
(0.16939179 -0.00013988236 -2.9427531e-05)
(0.17493679 2.2684654e-05 -0.00046121397)
(0.17972144 5.5654993e-07 -0.0010320739)
(0.18367502 -0.00025404017 -0.0017725142)
(0.18665469 -0.00081306957 -0.0027057456)
(0.1880087 -0.0017855323 -0.0038235423)
(0.18718449 -0.003931214 -0.0051289663)
(0.1853515 -0.0071061136 -0.006473558)
(0.18389149 -0.011167917 -0.0076084366)
(0.18321483 -0.015461285 -0.0086189624)
(0.18268332 -0.019547324 -0.010054542)
(0.18165985 -0.023273953 -0.012294071)
(0.18012782 -0.026601687 -0.015236551)
(0.17844053 -0.029597268 -0.018482475)
(0.17705928 -0.032319544 -0.021620733)
(0.17637925 -0.034699646 -0.024322862)
(0.17656044 -0.036597046 -0.026341612)
(0.17752453 -0.037910041 -0.027507453)
(0.17917667 -0.038686195 -0.027699956)
(0.18165576 -0.039055701 -0.026845906)
(0.18563691 -0.038542937 -0.025416692)
(0.19244325 -0.033713144 -0.025849707)
(0.19929316 -0.014075536 -0.029547928)
(0.099875449 -0.0036589781 0.00036463613)
(0.10033592 -0.004508553 0.00062337877)
(0.10189681 -0.0046948883 0.00074668376)
(0.10414559 -0.0044639223 0.00077280994)
(0.10684728 -0.0040082379 0.0007181331)
(0.10989347 -0.0035663507 0.00057001873)
(0.11316797 -0.0032759398 0.0002996003)
(0.11657466 -0.0031809489 -0.00013264015)
(0.12005122 -0.0033419373 -0.00077479167)
(0.12355575 -0.0038496678 -0.0017099619)
(0.12706105 -0.0048248526 -0.0030393924)
(0.13056567 -0.0064741418 -0.004879414)
(0.13414413 -0.0091348901 -0.0073192121)
(0.13775038 -0.013863056 -0.010314965)
(0.14142201 -0.020587003 -0.01358001)
(0.14515076 -0.028020395 -0.016838021)
(0.1482881 -0.0336965 -0.020381576)
(0.14980007 -0.037194783 -0.024649706)
(0.14957219 -0.039031887 -0.0294939)
(0.14803568 -0.039804407 -0.034597047)
(0.14574157 -0.040221296 -0.039514016)
(0.14321528 -0.040821641 -0.043823713)
(0.14087313 -0.041686951 -0.04710058)
(0.13886259 -0.042625022 -0.048929293)
(0.13714662 -0.043485384 -0.048938502)
(0.13580706 -0.044611018 -0.046851916)
(0.13546426 -0.046794439 -0.042605499)
(0.1396798 -0.049748932 -0.037176307)
(0.15630541 -0.048345743 -0.037495429)
(0.21119933 -0.032160677 -0.051733496)
(0.10003117 -0.0028348222 0.00037045292)
(0.099995567 -0.0041204853 0.0006367514)
(0.099773875 -0.0045415037 0.00077638916)
(0.099491855 -0.0046690055 0.00082492792)
(0.099291142 -0.0046904614 0.00079699635)
(0.099242852 -0.0046805129 0.00068033308)
(0.099339035 -0.0046998507 0.00044880315)
(0.099539396 -0.0048075961 6.2791993e-05)
(0.099806173 -0.0050838674 -0.00053261816)
(0.10013264 -0.0056508472 -0.0014219529)
(0.10047869 -0.0067010141 -0.002708108)
(0.10076269 -0.0085733652 -0.0045726032)
(0.10093687 -0.011861424 -0.0072392896)
(0.10102048 -0.017586815 -0.010866694)
(0.10102673 -0.026248121 -0.015186182)
(0.10065187 -0.035140346 -0.01960427)
(0.099482292 -0.039480275 -0.023363975)
(0.097204706 -0.040052 -0.025454085)
(0.09462892 -0.038732301 -0.026312094)
(0.091324086 -0.037021021 -0.028801922)
(0.087219791 -0.036305404 -0.032675451)
(0.082649135 -0.036998679 -0.036221707)
(0.078317357 -0.038763826 -0.038024368)
(0.074907453 -0.040999921 -0.037211511)
(0.072885444 -0.043448502 -0.032945352)
(0.073024572 -0.046387449 -0.024693636)
(0.074619031 -0.051343569 -0.014108195)
(0.081194457 -0.058801682 -0.0034753196)
(0.096056201 -0.065144462 -0.00665705)
(0.14133182 -0.061925536 -0.038157061)
(0.098009841 -0.0015494877 0.0003614242)
(0.096532428 -0.0022980496 0.00061659503)
(0.094155571 -0.0025432204 0.00074672191)
(0.091310747 -0.0026094917 0.0007871156)
(0.088496332 -0.0025973011 0.00075294288)
(0.085858118 -0.0025344481 0.00063308745)
(0.083375693 -0.0024541681 0.00040265157)
(0.081004803 -0.0023953985 2.4954744e-05)
(0.07870178 -0.0024040019 -0.00055022648)
(0.076426221 -0.0025489107 -0.0013955135)
(0.074073133 -0.0029654588 -0.0026083237)
(0.071411144 -0.003903347 -0.0043823987)
(0.06805172 -0.0058950319 -0.0071122979)
(0.063343144 -0.010123389 -0.01156945)
(0.056262344 -0.017906937 -0.018615817)
(0.046071379 -0.025205105 -0.026885405)
(0.035486309 -0.023775149 -0.027185265)
(0.034436261 -0.018219801 -0.006382993)
(0.0410465 -0.0090552009 0.028838212)
(0.044345961 0.0019831811 0.056315087)
(0.048668031 0.010916903 0.073052237)
(0.054615513 0.016160217 0.081664884)
(0.060769547 0.017977905 0.085170464)
(0.065937349 0.016895693 0.085426871)
(0.06903076 0.013250721 0.083093036)
(0.068898074 0.0071810107 0.07802334)
(0.066131714 -0.0018377356 0.069532063)
(0.066474313 -0.013369547 0.058565297)
(0.065175495 -0.023572786 0.029418078)
(0.090075562 -0.016811395 -0.039727203)
(0.10503107 -0.0023038988 0.00019016765)
(0.11807439 -0.0024310298 0.00033717073)
(0.12988081 -0.0023155368 0.00041879123)
(0.13953571 -0.0019305879 0.00043880107)
(0.1480157 -0.001341407 0.00040547561)
(0.15578319 -0.00071167786 0.00032188903)
(0.16288483 -0.00013366528 0.00018906602)
(0.16931983 0.00037402174 1.9117622e-05)
(0.17514258 0.00082384451 -0.00019510495)
(0.18042256 0.0012277833 -0.00044932272)
(0.18522524 0.0015908289 -0.00071701646)
(0.18961929 0.0018993189 -0.00092304571)
(0.19318741 0.0020843252 -0.00088908942)
(0.19567924 0.0013887807 -0.00036510382)
(0.1985723 0.00046933332 0.0012248285)
(0.20299039 0.00027305855 0.0044028289)
(0.20795488 0.00098621927 0.0086517894)
(0.21189303 0.0016632011 0.013089413)
(0.2143731 0.0016122615 0.017251706)
(0.21582422 0.00077597225 0.020975444)
(0.21679433 -0.0007269865 0.024251569)
(0.21762117 -0.0027605229 0.02717199)
(0.21839045 -0.0051366381 0.029898463)
(0.21897377 -0.007642329 0.032591412)
(0.21915353 -0.010133337 0.035248353)
(0.21892544 -0.012307344 0.03756791)
(0.21844217 -0.012813724 0.038815869)
(0.21707467 -0.0089066783 0.037754291)
(0.21007541 0.0027902873 0.032020582)
(0.14784637 0.032874567 0.012590683)
(0.099846692 -0.003658864 0.00019995409)
(0.1002115 -0.0045018795 0.00036952496)
(0.10164846 -0.0046680536 0.00047198769)
(0.10378076 -0.0043953665 0.00050380875)
(0.10637343 -0.0038642096 0.00046882773)
(0.10930658 -0.0032958492 0.0003630454)
(0.11245717 -0.0028055218 0.00017426344)
(0.11572491 -0.0024210587 -0.00011463039)
(0.11905817 -0.0021458436 -0.00053439094)
(0.12244132 -0.0020106147 -0.001120382)
(0.12590726 -0.0021025494 -0.0019030503)
(0.12959469 -0.002622634 -0.002870985)
(0.13383893 -0.0040045338 -0.0038883537)
(0.13901356 -0.0074918462 -0.0045452692)
(0.14537038 -0.011899062 -0.004097675)
(0.15245537 -0.013681711 -0.0026501566)
(0.15844669 -0.012058434 -0.0017477762)
(0.16155787 -0.01031839 -0.0025824936)
(0.16210557 -0.010214057 -0.0053325947)
(0.16120279 -0.011734362 -0.0095563164)
(0.15954594 -0.014210675 -0.014575892)
(0.15747714 -0.017156791 -0.019472074)
(0.15502733 -0.020202189 -0.023239439)
(0.15203611 -0.023031265 -0.025107426)
(0.14818114 -0.02577327 -0.024738919)
(0.14392698 -0.028606291 -0.022315712)
(0.14128093 -0.029713218 -0.020703964)
(0.14519129 -0.022561511 -0.026426064)
(0.16247105 0.00096688922 -0.039501042)
(0.17582676 0.044584532 -0.054708719)
(0.10000362 -0.0028316115 0.00020195689)
(0.099875908 -0.004113878 0.00037316579)
(0.099529843 -0.0045257108 0.00048080336)
(0.099123203 -0.0046349301 0.00051894523)
(0.098797267 -0.0046249885 0.00048792714)
(0.098609171 -0.0045626791 0.00037974435)
(0.098536666 -0.0044965368 0.00017673113)
(0.098528915 -0.0044671823 -0.00014565833)
(0.098540452 -0.0045264391 -0.00062759928)
(0.098522403 -0.0047700154 -0.001327696)
(0.098427745 -0.0053945814 -0.0023378698)
(0.098253978 -0.0068187058 -0.0037343895)
(0.098198877 -0.0099158218 -0.0055018579)
(0.098819617 -0.01622954 -0.007255703)
(0.099881229 -0.024678883 -0.0078157612)
(0.10042519 -0.027841145 -0.0065736318)
(0.099664806 -0.023702559 -0.0053576487)
(0.093578086 -0.019119617 -0.0068950746)
(0.084182854 -0.016909404 -0.011646558)
(0.075501224 -0.017938185 -0.017284781)
(0.068216016 -0.021180333 -0.022610119)
(0.061351686 -0.025358271 -0.026305216)
(0.053903235 -0.029843639 -0.026815813)
(0.046356607 -0.03395324 -0.023624876)
(0.038855518 -0.038292745 -0.016530638)
(0.032077622 -0.044179982 -0.0047334656)
(0.028243875 -0.050313698 -0.0028035752)
(0.036631105 -0.044606082 -0.027182985)
(0.063794012 -0.020856726 -0.056808032)
(0.098053041 0.019268413 -0.085574406)
(0.097982767 -0.0015509791 0.00019689361)
(0.096415672 -0.0023015017 0.00036114255)
(0.093917317 -0.002546303 0.00046167361)
(0.090949277 -0.0026086082 0.00049247249)
(0.088009376 -0.0025874887 0.00045333498)
(0.085226727 -0.0025080103 0.00033556436)
(0.082561239 -0.0023998762 0.00011972819)
(0.079948435 -0.0022964682 -0.000224596)
(0.077317299 -0.0022386089 -0.00074893256)
(0.074548321 -0.0022916464 -0.0015396093)
(0.071423402 -0.0025952467 -0.0027569297)
(0.067540047 -0.0034887858 -0.0046731741)
(0.062105088 -0.0058803865 -0.0078276541)
(0.053813731 -0.012121681 -0.013431107)
(0.03905116 -0.021642347 -0.022551635)
(0.015330788 -0.020134525 -0.030376174)
(-0.011819314 -0.00437256 -0.031058918)
(-0.024572054 4.9503114e-05 -0.024288702)
(-0.023500423 -0.0024121866 -0.0078503176)
(-0.0098622784 -0.0030029221 0.019197361)
(-0.0028412829 -0.00038560902 0.036247216)
(0.0069291158 0.0012903108 0.044379711)
(0.013180245 0.00046629058 0.046964618)
(0.016379961 -0.002213044 0.047031676)
(0.015000983 -0.0072754504 0.045493514)
(0.0081987792 -0.015825337 0.041999296)
(-0.010159669 -0.029456007 0.016625483)
(-0.03024845 -0.02253901 -0.037388474)
(-0.035478805 0.0069185468 -0.085239741)
(0.013976548 0.039800363 -0.12491832)
(0.1050114 -0.0023065637 4.2315589e-05)
(0.11800736 -0.0024367385 6.5992897e-05)
(0.12975921 -0.002323321 6.4114435e-05)
(0.13936526 -0.00193881 3.784205e-05)
(0.14780399 -0.0013475992 -1.0144091e-05)
(0.15553359 -0.0007135476 -7.9243952e-05)
(0.16259884 -0.00012997179 -0.00017183775)
(0.16899626 0.00038300881 -0.00029207352)
(0.17477015 0.00083224567 -0.0004466055)
(0.17999022 0.0012219649 -0.00064699232)
(0.18474011 0.001540793 -0.00089589518)
(0.18912995 0.0017443903 -0.0011636042)
(0.19274289 0.001720626 -0.0013412674)
(0.19551757 0.00062953723 -0.0011877405)
(0.19954299 5.5869752e-05 -0.00018497238)
(0.20531068 0.00085050352 0.0014548147)
(0.21112542 0.0021490348 0.0030632896)
(0.21594207 0.0033961605 0.0045344576)
(0.21970102 0.0045917519 0.0061764602)
(0.2231814 0.0057372422 0.0083435001)
(0.22714789 0.0066488674 0.011318865)
(0.23212672 0.0073295541 0.015337817)
(0.23815698 0.0080693493 0.020519231)
(0.24462231 0.0092804849 0.026689292)
(0.25026601 0.011238617 0.033270792)
(0.25328887 0.013874354 0.039250096)
(0.2511444 0.017988166 0.043048742)
(0.24012323 0.025146216 0.042501143)
(0.21604117 0.038315367 0.035018922)
(0.12091594 0.06813101 0.018658507)
(0.099829251 -0.0036614416 5.2347432e-05)
(0.10014258 -0.0045073087 9.1732109e-05)
(0.10151041 -0.0046741646 0.00010583064)
(0.10357346 -0.0043987904 9.2038036e-05)
(0.10609839 -0.0038605427 5.0806635e-05)
(0.10895783 -0.0032807733 -2.0006112e-05)
(0.11202503 -0.0027757118 -0.00012655188)
(0.11519093 -0.0023736377 -0.00027698709)
(0.11839029 -0.0020872525 -0.0004840844)
(0.12161207 -0.0019654019 -0.00076397021)
(0.12492446 -0.0021411691 -0.0011199621)
(0.1285712 -0.0029164494 -0.0015032363)
(0.13313429 -0.0048926352 -0.001718327)
(0.13925796 -0.00925345 -0.0012153013)
(0.14705787 -0.011433713 0.00065547359)
(0.1553389 -0.0084965745 0.0025610254)
(0.16146877 -0.0045808206 0.0031515458)
(0.1657224 -0.0018380096 0.0027114573)
(0.16912296 -0.00063486228 0.001935493)
(0.17189061 -0.00070609932 0.00097505974)
(0.17389015 -0.0015180916 -0.00020961287)
(0.17550916 -0.0025095371 -0.0014112327)
(0.17750728 -0.0029007692 -0.001981945)
(0.18091374 -0.0016582366 -0.0012399259)
(0.1872078 0.0025821525 0.0009444295)
(0.19787037 0.011760662 0.0039839388)
(0.2065347 0.025618862 0.006005448)
(0.20738321 0.043957886 0.0040880717)
(0.19883183 0.06947249 -0.0048142502)
(0.14582401 0.10910178 -0.021651807)
(0.09998616 -0.0028315649 5.2704633e-05)
(0.099807441 -0.0041147638 9.2242793e-05)
(0.09939041 -0.0045261594 0.000107417)
(0.098907698 -0.0046326134 9.4610876e-05)
(0.098500926 -0.0046174065 5.228388e-05)
(0.098217953 -0.0045468619 -2.4613398e-05)
(0.098031011 -0.0044684968 -0.00014652575)
(0.09787127 -0.0044255657 -0.00032803333)
(0.097660271 -0.004477215 -0.00059396053)
(0.097324376 -0.0047433905 -0.0009872762)
(0.096799433 -0.0054937437 -0.001561996)
(0.096122052 -0.0073435073 -0.0023584587)
(0.095796163 -0.011638242 -0.003283273)
(0.096610099 -0.020484049 -0.0036021215)
(0.097274827 -0.025828602 -0.0015241156)
(0.10119327 -0.020294572 0.0019564727)
(0.099321041 -0.014039739 0.0019148987)
(0.09455193 -0.0087760794 -0.00073397918)
(0.087299872 -0.0052265983 -0.0048754344)
(0.078130385 -0.0052562759 -0.010131427)
(0.067246116 -0.0089623814 -0.01564789)
(0.054943096 -0.014505702 -0.019394115)
(0.042425516 -0.01964311 -0.019416188)
(0.032768665 -0.023058941 -0.015519914)
(0.030474557 -0.024109981 -0.010351657)
(0.035148612 -0.020288267 -0.0098665682)
(0.068087496 -0.002431767 -0.014030188)
(0.096091782 0.023432037 -0.021699405)
(0.11142325 0.058612552 -0.03580813)
(0.097499497 0.10332507 -0.053524943)
(0.097965359 -0.0015507944 5.1262684e-05)
(0.096347575 -0.0023012637 8.8707506e-05)
(0.09377808 -0.0025453724 0.00010142535)
(0.090731783 -0.0026061711 8.5439996e-05)
(0.08770626 -0.0025828767 3.8284493e-05)
(0.084820415 -0.0025003389 -4.6741159e-05)
(0.082021683 -0.0023873781 -0.00018308238)
(0.079216503 -0.0022808854 -0.00039302031)
(0.076279594 -0.0022257373 -0.00071902217)
(0.073012538 -0.0023045973 -0.0012448391)
(0.069041511 -0.0027152457 -0.0021282818)
(0.063604978 -0.0039914753 -0.0036793598)
(0.05501643 -0.0077330461 -0.0065459977)
(0.041112254 -0.017969043 -0.012120952)
(0.010332665 -0.022001542 -0.020581104)
(-0.031839253 0.00078982571 -0.018059406)
(-0.051216943 0.0052120147 -0.015324075)
(-0.066965173 0.0056589434 -0.01411413)
(-0.073600962 0.0030850517 -0.010431056)
(-0.070010188 -0.0015595093 -0.0030952789)
(-0.059918817 -0.0057497221 0.0062088895)
(-0.050280243 -0.0089429147 0.012248687)
(-0.043164706 -0.012218512 0.014863161)
(-0.038604459 -0.016294839 0.014535675)
(-0.036425956 -0.021014038 0.010708598)
(-0.037569333 -0.022761298 0.0013508538)
(-0.042821712 -0.010397094 -0.018149085)
(-0.031629813 0.01870766 -0.039114984)
(-0.01613148 0.053786714 -0.06146197)
(0.021528869 0.092624239 -0.082089835)
(0.10500713 -0.0023062212 -6.9466065e-05)
(0.11799432 -0.0024377515 -0.00013355321)
(0.1297371 -0.0023261893 -0.00018410371)
(0.13933332 -0.0019441688 -0.00022085623)
(0.14775971 -0.0013561847 -0.0002467753)
(0.15547227 -0.0007262387 -0.00026409371)
(0.1625105 -0.00014847356 -0.00027323662)
(0.1688663 0.00035498419 -0.00027418071)
(0.17457836 0.00078922392 -0.0002608465)
(0.17971081 0.0011529339 -0.000228862)
(0.18435945 0.0014195881 -0.00017714463)
(0.18868042 0.0015089598 -0.00010415021)
(0.19243766 0.001279197 -2.6138653e-06)
(0.19599117 0.00011974746 0.00020242574)
(0.20131151 0.00026879342 0.00045948145)
(0.20782002 0.0014003743 0.00057650759)
(0.21397211 0.0026855502 0.00055093942)
(0.21908731 0.0041545513 0.0004384912)
(0.22376798 0.0060867204 0.00018877667)
(0.22866261 0.0084069361 -0.00024617338)
(0.23430424 0.010993349 -0.00095623601)
(0.24086554 0.013814453 -0.0020939658)
(0.24784933 0.017017799 -0.0038582399)
(0.25409408 0.020689563 -0.0064602166)
(0.25816062 0.024683818 -0.0099602642)
(0.25846034 0.02905868 -0.013971727)
(0.25273359 0.034409392 -0.017474803)
(0.2373369 0.041863916 -0.018912291)
(0.20822025 0.053465305 -0.015561753)
(0.10422478 0.078919448 -0.0053814217)
(0.099829278 -0.0036610449 -5.7130927e-05)
(0.10014192 -0.0045085978 -0.000107574)
(0.10150732 -0.0046779254 -0.00014024471)
(0.10356564 -0.0044059321 -0.00015423118)
(0.10608249 -0.0038722891 -0.000151673)
(0.10892824 -0.0032990757 -0.00013254067)
(0.11197067 -0.0028047059 -9.3641538e-05)
(0.11509925 -0.0024229769 -3.0372229e-05)
(0.11824702 -0.0021722141 6.5041423e-05)
(0.12140053 -0.0021233346 0.0002075386)
(0.12465358 -0.0024618266 0.00041642092)
(0.1283503 -0.0036034397 0.00071360542)
(0.1333755 -0.006252012 0.0011160679)
(0.14040447 -0.010631973 0.001613662)
(0.1497543 -0.0088998858 0.0019982939)
(0.15805679 -0.0046903803 0.0022263731)
(0.16445868 -0.0012154784 0.0026224564)
(0.17031345 0.0011450833 0.0032347726)
(0.17635916 0.0027514928 0.0040456399)
(0.18254645 0.0040353789 0.0050784463)
(0.18964789 0.0057182207 0.0063375981)
(0.19829732 0.008929697 0.0075965304)
(0.20842272 0.014775803 0.0083671093)
(0.21891395 0.023337592 0.0080327381)
(0.22833389 0.033899013 0.0062698966)
(0.23507398 0.046005001 0.0036759812)
(0.23613882 0.060233307 0.0013345569)
(0.22651826 0.077473622 0.00068160006)
(0.20406287 0.098842795 0.0036783515)
(0.11979127 0.1306006 0.013371253)
(0.099986193 -0.0028316126 -5.642166e-05)
(0.099807187 -0.0041154186 -0.00010565579)
(0.099388642 -0.0045278832 -0.00013711558)
(0.098901955 -0.004635918 -0.00014887921)
(0.098486686 -0.0046232575 -0.00014186908)
(0.098186675 -0.0045574443 -0.00011472658)
(0.097964632 -0.0044889341 -6.26839e-05)
(0.097747779 -0.0044654368 2.0145707e-05)
(0.097442465 -0.0045584435 0.00014396182)
(0.096939824 -0.0049228091 0.00033210248)
(0.096152394 -0.0059185012 0.00061794931)
(0.095205503 -0.0083876053 0.0010496946)
(0.095292376 -0.014156706 0.0017104626)
(0.095894658 -0.025253659 0.0028444507)
(0.10175449 -0.021021393 0.0038916167)
(0.10456625 -0.014449678 0.0036089964)
(0.1033032 -0.0087465311 0.0036062119)
(0.098435628 -0.0036735 0.0039647821)
(0.092089251 -0.0003464096 0.0050912044)
(0.085725517 0.00014410738 0.0075644239)
(0.077069127 -0.0022458199 0.010752873)
(0.06706208 -0.0054028615 0.013479584)
(0.06206049 -0.005985815 0.014649189)
(0.069453279 -0.0018304152 0.013704233)
(0.088442976 0.0072529422 0.010863827)
(0.11608647 0.022631828 0.0069081431)
(0.13625395 0.041752579 0.0028110833)
(0.14348127 0.064593934 0.0030523226)
(0.13768087 0.093235199 0.0086904753)
(0.080511873 0.13229022 0.019842898)
(0.097965283 -0.0015508622 -5.482544e-05)
(0.096346921 -0.0023015317 -0.00010181078)
(0.093775484 -0.0025460524 -0.00013088849)
(0.090724386 -0.0026075314 -0.0001399721)
(0.087688261 -0.0025853875 -0.00012966431)
(0.08477981 -0.0025050615 -9.8304033e-05)
(0.081935233 -0.0023971265 -4.0945267e-05)
(0.079047526 -0.0022996675 4.9418422e-05)
(0.075953117 -0.002267237 0.00018530552)
(0.072357526 -0.0024051718 0.0003950337)
(0.067693373 -0.002985453 0.00072538093)
(0.06077633 -0.0047946107 0.0012629985)
(0.048961038 -0.010369417 0.002236866)
(0.02912803 -0.0254216 0.0046315673)
(-0.02467883 -0.0019057491 0.013046228)
(-0.04287979 0.0067128069 0.011025243)
(-0.062134925 0.0080734024 0.0062112609)
(-0.072664154 0.0064705902 0.0012063903)
(-0.077618011 0.0024783489 -0.004403036)
(-0.075559819 -0.0026235932 -0.010056707)
(-0.067724263 -0.0075862627 -0.013744065)
(-0.059258101 -0.012142891 -0.015849195)
(-0.051602788 -0.016371229 -0.017618398)
(-0.044640062 -0.019509877 -0.019601052)
(-0.036940394 -0.019327728 -0.021565537)
(-0.02862795 -0.011898208 -0.02030886)
(-0.0095886177 0.016013586 -0.013109624)
(-0.0014945568 0.049187949 -0.0073999738)
(0.00042579753 0.08088856 0.0063951259)
(-0.00090704541 0.11963949 0.026165516)
(0.10501898 -0.002302617 -0.00021290254)
(0.1180379 -0.0024331156 -0.00039355149)
(0.12982013 -0.0023220527 -0.00051829418)
(0.13945072 -0.0019426886 -0.0005892511)
(0.14790318 -0.0013601777 -0.00061420747)
(0.15563745 -0.00073796929 -0.00059597239)
(0.16269997 -0.00016828574 -0.00053349416)
(0.16909526 0.00032987328 -0.00043873969)
(0.17486905 0.00075698323 -0.00030880747)
(0.18007909 0.0011183232 -0.00013996915)
(0.18479908 0.0014100385 5.1961167e-05)