/*--------------------------------*- C++ -*----------------------------------*\
| =========                 |                                                 |
| \\      /  F ield         | OpenFOAM: The Open Source CFD Toolbox           |
|  \\    /   O peration     | Version:  v2012                                 |
|   \\  /    A nd           | Website:  www.openfoam.com                      |
|    \\/     M anipulation  |                                                 |
\*---------------------------------------------------------------------------*/
FoamFile
{
    version     2.0;
    format      ascii;
    class       volScalarField;
    location    "520/bottomWater";
    object      p;
}
// * * * * * * * * * * * * * * * * * * * * * * * * * * * * * * * * * * * * * //

dimensions      [1 -1 -2 0 0 0 0];


internalField   nonuniform List<scalar> 
1460
(
353.47529
353.4695
353.48504
353.44828
353.45967
353.46301
353.4567
353.46392
353.46342
353.46498
353.45668
353.4582
353.45838
353.45867
353.44312
353.47485
353.45418
353.45141
353.45913
353.46089
353.4616
353.46334
353.4644
353.47052
353.46293
353.45425
353.44809
353.44873
353.4561
353.4548
274.39943
274.40638
274.44852
274.42397
274.41607
274.40961
274.42636
274.45368
274.48318
274.4707
274.41445
274.40873
274.40732
274.41032
274.42265
274.47403
274.42271
274.44545
274.46135
274.47085
274.47372
274.48359
274.48163
274.46567
274.43423
274.40765
274.44893
274.42025
274.41352
274.42613
196.29451
196.25999
196.225
196.25872
196.28322
196.29893
196.29329
196.26008
196.26265
196.24926
196.28578
196.30306
196.30721
196.28747
196.28296
196.23576
196.29114
196.26117
196.26091
196.27205
196.28168
196.27986
196.28179
196.26617
196.28966
196.27656
196.2963
196.29042
196.32384
196.3244
117.69748
117.63558
117.66331
117.65034
117.70393
117.71774
117.68168
117.68265
117.66427
117.63946
117.65308
117.67067
117.67738
117.67082
117.65151
117.64658
117.67834
117.62762
117.66161
117.67326
117.67052
117.66101
117.6651
117.68803
117.64939
117.66114
117.63027
117.65059
117.65537
117.62964
39.269197
39.261855
39.245867
39.224149
39.230995
39.245318
39.239634
39.234067
39.233748
39.260175
39.255454
39.264133
39.262507
39.248806
39.261921
39.263191
39.247128
39.251412
39.222384
39.223374
39.222932
39.230481
39.226151
39.231254
39.221204
39.226538
39.267391
39.259498
39.253841
39.29114
353.47816
353.47276
353.48938
353.45932
353.44965
353.45262
353.45394
353.45463
353.45619
353.45693
353.46293
353.4541
353.46162
353.45362
353.45801
353.45577
353.45529
353.45686
353.45879
353.46064
353.46719
353.47686
353.46729
353.467
353.47325
353.46794
353.47933
353.45478
353.4565
353.45836
274.39809
274.40295
274.47612
274.4516
274.41654
274.41282
274.40893
274.41965
274.4217
274.42764
274.39979
274.41381
274.4311
274.41666
274.40554
274.41425
274.40419
274.40253
274.40461
274.41712
274.44183
274.47621
274.43549
274.41034
274.39782
274.41551
274.46664
274.43549
274.40616
274.41267
196.28581
196.24695
196.23292
196.24209
196.26853
196.27363
196.29762
196.30685
196.29735
196.30053
196.30266
196.29215
196.26076
196.29293
196.30262
196.29908
196.30655
196.28263
196.27605
196.25591
196.23836
196.24159
196.25009
196.27695
196.28629
196.28941
196.23651
196.25506
196.27695
196.31543
117.68996
117.62001
117.6562
117.6295
117.658
117.66969
117.6688
117.67047
117.65764
117.6265
117.67743
117.64971
117.6537
117.64378
117.68575
117.66716
117.68301
117.67655
117.66782
117.64101
117.62385
117.64385
117.63539
117.64544
117.68832
117.64831
117.64811
117.64853
117.65724
117.65559
39.269692
39.265399
39.256883
39.228542
39.224022
39.239577
39.246606
39.255515
39.244557
39.278663
39.258318
39.263912
39.276154
39.246655
39.242399
39.242912
39.257236
39.250969
39.238623
39.233942
39.234584
39.252357
39.238435
39.232542
39.231021
39.234867
39.255862
39.246922
39.242691
39.250093
353.4739
353.47389
353.47691
353.46491
353.46084
353.4459
353.44343
353.45306
353.45517
353.4557
353.45337
353.45466
353.46222
353.44589
353.44767
353.45315
353.44335
353.4466
353.44575
353.45675
353.46255
353.46247
353.46541
353.46913
353.46542
353.46972
353.47065
353.46709
353.46189
353.45846
274.4045
274.43013
274.47197
274.4813
274.4627
274.42749
274.41487
274.41159
274.43097
274.44246
274.42114
274.45234
274.48109
274.41806
274.41747
274.41926
274.42124
274.42715
274.40966
274.4046
274.40309
274.41151
274.41497
274.40052
274.40287
274.45023
274.47934
274.46388
274.4432
274.42901
196.28172
196.23809
196.25458
196.25736
196.25666
196.23739
196.27166
196.28729
196.27787
196.29196
196.2674
196.2484
196.24797
196.26435
196.28899
196.29333
196.29062
196.28919
196.2889
196.30043
196.30181
196.28946
196.30062
196.29632
196.2765
196.23528
196.26404
196.26646
196.28866
196.29998
117.6767
117.62699
117.67054
117.6765
117.67992
117.64809
117.65907
117.66448
117.62332
117.64814
117.64564
117.64006
117.64004
117.64681
117.65114
117.65315
117.61838
117.6404
117.65468
117.67109
117.67132
117.62843
117.62098
117.66895
117.64625
117.63982
117.65958
117.67147
117.65185
117.6412
39.248576
39.245324
39.227279
39.226371
39.230257
39.240336
39.247381
39.256463
39.268024
39.259055
39.229793
39.246782
39.239536
39.222525
39.228778
39.250138
39.277399
39.248324
39.252276
39.256894
39.260283
39.275541
39.288522
39.24917
39.229799
39.229992
39.217458
39.209664
39.21891
39.237004
353.47312
353.46944
353.48111
353.46548
353.46716
353.46651
353.44893
353.44955
353.46673
353.44415
353.45306
353.46027
353.46233
353.46454
353.45334
353.45231
353.46432
353.474
353.48391
353.47239
353.46897
353.46895
353.46743
353.46512
353.46305
353.46046
353.45694
353.45037
353.46377
353.45762
274.40704
274.42998
274.47831
274.48864
274.49969
274.47693
274.43071
274.41708
274.46618
274.42081
274.43551
274.47442
274.49909
274.47271
274.43958
274.43163
274.46228
274.47213
274.45879
274.42136
274.39884
274.39401
274.3926
274.39247
274.39991
274.42302
274.43154
274.42482
274.44367
274.42971
196.28467
196.24347
196.2629
196.25531
196.26091
196.22995
196.24724
196.2751
196.24977
196.28659
196.2831
196.26023
196.27721
196.25803
196.29839
196.2811
196.25202
196.2556
196.22931
196.25002
196.26147
196.29779
196.31096
196.32604
196.2915
196.31101
196.29326
196.33456
196.29642
196.31468
117.68274
117.63625
117.69184
117.68804
117.66323
117.66315
117.65368
117.67077
117.63471
117.67228
117.66853
117.67781
117.67675
117.69454
117.68639
117.67055
117.66189
117.65836
117.64877
117.62689
117.66652
117.67368
117.68456
117.65891
117.62954
117.61744
117.60952
117.653
117.63841
117.62233
39.24433
39.235452
39.230904
39.224786
39.222861
39.245898
39.242425
39.24772
39.253017
39.232504
39.222809
39.226548
39.22366
39.224674
39.228991
39.231756
39.246174
39.216306
39.244239
39.251757
39.255258
39.266671
39.274252
39.265574
39.245358
39.274186
39.253639
39.234188
39.235768
39.269199
353.46069
353.45835
353.46494
353.45306
353.4622
353.44664
353.45355
353.45012
353.4601
353.45719
353.46139
353.46194
353.44796
353.45668
353.45033
353.4692
353.4706
353.46202
353.46649
353.46374
353.46064
353.45658
353.44929
353.44765
353.45123
353.45585
274.40714
274.42806
274.47353
274.46305
274.46347
274.42581
274.41788
274.42069
274.46493
274.457
274.46775
274.48756
274.46805
274.41573
274.41446
274.45641
274.45209
274.3994
274.39872
274.40317
274.4461
274.44934
274.42121
274.42524
274.40646
274.4096
196.27675
196.23947
196.25116
196.25681
196.23056
196.25045
196.26889
196.28979
196.23206
196.26399
196.26734
196.28655
196.30883
196.30697
196.26653
196.23591
196.23403
196.28145
196.29764
196.28113
196.24774
196.2559
196.29667
196.30901
196.30243
196.32547
117.67585
117.62901
117.67374
117.66078
117.64715
117.63528
117.66113
117.66283
117.63209
117.66945
117.67876
117.68527
117.68027
117.69489
117.65007
117.65507
117.64845
117.64882
117.67689
117.63346
117.63372
117.63816
117.66361
117.6651
117.64654
117.66261
39.24566
39.247854
39.236346
39.222355
39.248091
39.256739
39.247192
39.241037
39.237914
39.213846
39.211351
39.220436
39.22426
39.234198
39.230788
39.25553
39.256754
39.253605
39.274142
39.258636
39.256453
39.250687
39.227372
39.235945
39.245471
39.256611
353.45913
353.45121
353.4692
353.4446
353.4574
353.45323
353.46227
353.455
353.45453
353.4495
353.4537
353.46465
353.4639
353.46161
353.46215
353.46708
353.47642
353.46093
353.46854
353.45908
353.47618
353.44155
353.47738
353.46764
353.46619
353.46918
274.40737
274.41654
274.44514
274.41645
274.42314
274.40611
274.40593
274.40898
274.41015
274.42486
274.43427
274.47368
274.51072
274.43544
274.44297
274.48158
274.47895
274.4198
274.39797
274.41641
274.46286
274.43849
274.46981
274.46148
274.4239
274.40959
196.29311
196.27031
196.24357
196.28692
196.26562
196.28151
196.30078
196.29839
196.26604
196.25015
196.22408
196.21447
196.21782
196.3076
196.27461
196.23831
196.23414
196.27087
196.25979
196.28403
196.22903
196.30809
196.24573
196.27622
196.24887
196.30163
117.68464
117.63844
117.6607
117.65801
117.6497
117.68257
117.68844
117.67915
117.66886
117.64151
117.63751
117.64942
117.64802
117.7009
117.66462
117.63328
117.65873
117.61526
117.67907
117.61488
117.63501
117.64018
117.67713
117.67072
117.63083
117.66589
39.264086
39.270398
39.264876
39.245498
39.267641
39.263073
39.26882
39.259537
39.249556
39.246711
39.242175
39.242698
39.243566
39.236669
39.200989
39.230024
39.248436
39.256829
39.270759
39.265416
39.256044
39.227038
39.223617
39.231648
39.244351
39.247396
353.4522
353.45047
353.44827
353.44837
353.45209
353.44456
353.44395
353.44106
353.44853
353.45038
353.45111
353.45344
353.46166
353.44907
353.45215
353.44957
353.47102
353.47426
353.47114
353.4659
353.47838
353.46519
353.46873
353.47137
353.48121
353.47662
353.46773
353.47438
353.46532
353.46941
274.40763
274.40772
274.41953
274.40691
274.41002
274.42939
274.43174
274.42531
274.43841
274.40881
274.40452
274.41948
274.44528
274.44154
274.42308
274.42334
274.47108
274.48133
274.4797
274.45659
274.46562
274.41199
274.39005
274.39719
274.42262
274.47498
274.46962
274.45715
274.42239
274.40503
196.31656
196.29802
196.27929
196.30162
196.30212
196.31173
196.30143
196.30596
196.29544
196.31105
196.29522
196.29365
196.26456
196.29782
196.28746
196.27706
196.25603
196.25952
196.25346
196.26858
196.23176
196.25802
196.27294
196.28021
196.23405
196.23019
196.26767
196.2613
196.26291
196.29824
117.67672
117.66703
117.64376
117.68344
117.66952
117.61196
117.63717
117.65184
117.62756
117.6809
117.66584
117.64524
117.64832
117.63933
117.67732
117.64286
117.68194
117.70313
117.68464
117.64227
117.64885
117.61623
117.67997
117.65743
117.63353
117.65411
117.66157
117.65625
117.60414
117.67418
39.259016
39.263468
39.272079
39.243668
39.251898
39.277763
39.270765
39.259872
39.276415
39.270293
39.261555
39.265744
39.272771
39.267458
39.239626
39.234145
39.222858
39.23796
39.21509
39.220573
39.254807
39.266969
39.272189
39.253642
39.244959
39.236766
39.221187
39.235468
39.259495
39.260288
353.46021
353.45115
353.47402
353.45494
353.46696
353.47354
353.47863
353.46723
353.47276
353.44659
353.45995
353.46068
353.45421
353.45506
353.45627
353.45534
353.4667
353.4684
353.46175
353.45733
353.45072
353.46464
353.46246
353.46453
353.4744
353.4768
353.47103
353.47059
353.4699
353.47209
274.41418
274.42637
274.45423
274.41798
274.41037
274.43598
274.4531
274.45889
274.45397
274.41962
274.41048
274.40279
274.40756
274.4059
274.4137
274.43362
274.46508
274.48665
274.44573
274.42038
274.42602
274.41512
274.39245
274.38674
274.41842
274.47143
274.44714
274.42342
274.39979
274.39859
196.28231
196.26201
196.23219
196.28217
196.2723
196.2795
196.25668
196.25479
196.22466
196.26889
196.28368
196.29536
196.27716
196.29076
196.2711
196.25661
196.2404
196.26969
196.25904
196.27753
196.28221
196.29399
196.30273
196.2811
196.23904
196.24037
196.26178
196.26645
196.2742
196.32204
117.68935
117.63835
117.65987
117.65475
117.68644
117.64166
117.68045
117.67087
117.66154
117.66003
117.6879
117.68353
117.672
117.67474
117.68226
117.64623
117.66626
117.67739
117.66201
117.6182
117.62724
117.62588
117.67018
117.66463
117.62845
117.65088
117.65031
117.6416
117.64168
117.67831
39.246502
39.253457
39.265439
39.248127
39.238491
39.235686
39.228687
39.224177
39.24462
39.263979
39.257859
39.266749
39.249258
39.246593
39.238686
39.246582
39.228638
39.228309
39.219826
39.231051
39.267267
39.282992
39.273585
39.258648
39.248745
39.242377
39.217034
39.252645
39.255056
39.267388
353.45829
353.44602
353.47369
353.46703
353.46161
353.45824
353.47544
353.4554
353.47741
353.45832
353.46003
353.46393
353.45264
353.46276
353.45811
353.46573
353.45921
353.47199
353.45449
353.46542
353.46305
353.46443
353.46473
353.46929
353.47262
353.48134
353.47507
353.4694
353.46549
353.47037
274.42356
274.4159
274.48943
274.47209
274.41096
274.4149
274.4086
274.419
274.45573
274.45545
274.39769
274.41673
274.43169
274.4394
274.43646
274.40356
274.43205
274.43735
274.40705
274.39777
274.40754
274.42282
274.40301
274.39136
274.38915
274.43802
274.46139
274.44758
274.42047
274.40587
196.28909
196.26508
196.24991
196.24751
196.2766
196.2994
196.31251
196.27431
196.2463
196.26954
196.27554
196.28977
196.26707
196.27543
196.27907
196.2722
196.27814
196.23652
196.26931
196.29365
196.30766
196.30003
196.31019
196.30872
196.26182
196.24706
196.26686
196.2508
196.25908
196.29439
117.69018
117.65098
117.65558
117.65605
117.66271
117.67749
117.68789
117.63867
117.65612
117.63993
117.69382
117.66051
117.65737
117.67602
117.63218
117.68189
117.6395
117.65812
117.64858
117.67766
117.6569
117.62336
117.65802
117.66659
117.63822
117.64701
117.65976
117.64715
117.61281
117.67247
39.233555
39.223127
39.241569
39.241815
39.226207
39.227291
39.230324
39.239878
39.268178
39.278857
39.259469
39.25342
39.242447
39.236037
39.261532
39.254496
39.26768
39.2549
39.245329
39.242853
39.240734
39.26385
39.26263
39.258473
39.242829
39.235295
39.220235
39.239888
39.258228
39.259106
353.45804
353.45715
353.46544
353.46066
353.46616
353.46738
353.46519
353.45855
353.46549
353.45834
353.45375
353.4657
353.45914
353.46632
353.46808
353.46301
353.4596
353.45924
353.45984
353.46525
353.45183
353.47348
353.47526
353.47554
353.47666
353.47848
353.48297
353.47109
353.46616
353.46806
274.43084
274.44687
274.48131
274.48104
274.47304
274.46218
274.42785
274.40541
274.40475
274.40338
274.40976
274.45666
274.48306
274.48584
274.47301
274.44319
274.41494
274.40336
274.40699
274.40558
274.41518
274.44933
274.45457
274.4107
274.39866
274.41651
274.45843
274.4629
274.42805
274.40813
196.28456
196.26653
196.27082
196.27006
196.27906
196.24704
196.29455
196.28098
196.3183
196.28026
196.2599
196.23746
196.24823
196.25752
196.26132
196.24495
196.27601
196.285
196.3147
196.31077
196.31383
196.26858
196.23863
196.30873
196.27452
196.27094
196.26156
196.25833
196.25332
196.28464
117.6842
117.67443
117.6806
117.67992
117.6684
117.65586
117.64147
117.68109
117.68467
117.68503
117.65774
117.66208
117.66287
117.68794
117.68244
117.64669
117.66717
117.66085
117.67635
117.69111
117.66706
117.66563
117.64838
117.66164
117.67165
117.63506
117.68127
117.66623
117.62472
117.6689
39.240177
39.228956
39.22938
39.227367
39.224249
39.239965
39.259965
39.24363
39.262392
39.26398
39.269957
39.262623
39.238573
39.235412
39.234109
39.251211
39.249524
39.254488
39.256396
39.268285
39.238618
39.239396
39.256168
39.253507
39.246245
39.230977
39.223019
39.225235
39.246865
39.245694
)
;

boundaryField
{
    minX
    {
        type            calculated;
        value           nonuniform List<scalar> 
50
(
353.47529
274.39943
196.29451
117.69748
39.269197
353.47816
274.39809
196.28581
117.68996
39.269692
353.4739
274.4045
196.28172
117.6767
39.248576
353.47312
274.40704
196.28467
117.68274
39.24433
353.46069
274.40714
196.27675
117.67585
39.24566
353.45913
274.40737
196.29311
117.68464
39.264086
353.4522
274.40763
196.31656
117.67672
39.259016
353.46021
274.41418
196.28231
117.68935
39.246502
353.45829
274.42356
196.28909
117.69018
39.233555
353.45804
274.43084
196.28456
117.6842
39.240177
)
;
    }
    maxX
    {
        type            calculated;
        value           nonuniform List<scalar> 
50
(
353.4548
274.42613
196.3244
117.62964
39.29114
353.45836
274.41267
196.31543
117.65559
39.250093
353.45846
274.42901
196.29998
117.6412
39.237004
353.45762
274.42971
196.31468
117.62233
39.269199
353.45585
274.4096
196.32547
117.66261
39.256611
353.46918
274.40959
196.30163
117.66589
39.247396
353.46941
274.40503
196.29824
117.67418
39.260288
353.47209
274.39859
196.32204
117.67831
39.267388
353.47037
274.40587
196.29439
117.67247
39.259106
353.46806
274.40813
196.28464
117.6689
39.245694
)
;
    }
    minY
    {
        type            calculated;
        value           nonuniform List<scalar> 
292
(
392.4
392.4
392.4
392.4
392.4
392.4
392.4
392.4
392.4
392.4
392.4
392.4
392.4
392.4
392.4
392.4
392.4
392.4
392.4
392.4
392.4
392.4
392.4
392.4
392.4
392.4
392.4
392.4
392.4
392.4
392.4
392.4
392.4
392.4
392.4
392.4
392.4
392.4
392.4
392.4
392.4
392.4
392.4
392.4
392.4
392.4
392.4
392.4
392.4
392.4
392.4
392.4
392.4
392.4
392.4
392.4
392.4
392.4
392.4
392.4
392.4
392.4
392.4
392.4
392.4
392.4
392.4
392.4
392.4
392.4
392.4
392.4
392.4
392.4
392.4
392.4
392.4
392.4
392.4
392.4
392.4
392.4
392.4
392.4
392.4
392.4
392.4
392.4
392.4
392.4
392.4
392.4
392.4
392.4
392.4
392.4
392.4
392.4
392.4
392.4
392.4
392.4
392.4
392.4
392.4
392.4
392.4
392.4
392.4
392.4
392.4
392.4
392.4
392.4
392.4
392.4
392.4
392.4
392.4
392.4
392.4
392.4
392.4
392.4
392.4
392.4
392.4
392.4
392.4
392.4
392.4
392.4
392.4
392.4
392.4
392.4
392.4
392.4
392.4
392.4
392.4
392.4
392.4
392.4
392.4
392.4
392.4
392.4
392.4
392.4
392.4
392.4
392.4
392.4
392.4
392.4
392.4
392.4
392.4
392.4
392.4
392.4
392.4
392.4
392.4
392.4
392.4
392.4
392.4
392.4
392.4
392.4
392.4
392.4
392.4
392.4
392.4
392.4
392.4
392.4
392.4
392.4
392.4
392.4
392.4
392.4
392.4
392.4
392.4
392.4
392.4
392.4
392.4
392.4
392.4
392.4
392.4
392.4
392.4
392.4
392.4
392.4
392.4
392.4
392.4
392.4
392.4
392.4
392.4
392.4
392.4
392.4
392.4
392.4
392.4
392.4
392.4
392.4
392.4
392.4
392.4
392.4
392.4
392.4
392.4
392.4
392.4
392.4
392.4
392.4
392.4
392.4
392.4
392.4
392.4
392.4
392.4
392.4
392.4
392.4
392.4
392.4
392.4
392.4
392.4
392.4
392.4
392.4
392.4
392.4
392.4
392.4
392.4
392.4
392.4
392.4
392.4
392.4
392.4
392.4
392.4
392.4
392.4
392.4
392.4
392.4
392.4
392.4
392.4
392.4
392.4
392.4
392.4
392.4
392.4
392.4
392.4
392.4
392.4
392.4
392.4
392.4
392.4
392.4
392.4
392.4
392.4
392.4
392.4
392.4
392.4
392.4
)
;
    }
    minZ
    {
        type            calculated;
        value           nonuniform List<scalar> 
150
(
353.47529
274.39943
196.29451
117.69748
39.269197
353.4695
274.40638
196.25999
117.63558
39.261855
353.48504
274.44852
196.225
117.66331
39.245867
353.44828
274.42397
196.25872
117.65034
39.224149
353.45967
274.41607
196.28322
117.70393
39.230995
353.46301
274.40961
196.29893
117.71774
39.245318
353.4567
274.42636
196.29329
117.68168
39.239634
353.46392
274.45368
196.26008
117.68265
39.234067
353.46342
274.48318
196.26265
117.66427
39.233748
353.46498
274.4707
196.24926
117.63946
39.260175
353.45668
274.41445
196.28578
117.65308
39.255454
353.4582
274.40873
196.30306
117.67067
39.264133
353.45838
274.40732
196.30721
117.67738
39.262507
353.45867
274.41032
196.28747
117.67082
39.248806
353.44312
274.42265
196.28296
117.65151
39.261921
353.47485
274.47403
196.23576
117.64658
39.263191
353.45418
274.42271
196.29114
117.67834
39.247128
353.45141
274.44545
196.26117
117.62762
39.251412
353.45913
274.46135
196.26091
117.66161
39.222384
353.46089
274.47085
196.27205
117.67326
39.223374
353.4616
274.47372
196.28168
117.67052
39.222932
353.46334
274.48359
196.27986
117.66101
39.230481
353.4644
274.48163
196.28179
117.6651
39.226151
353.47052
274.46567
196.26617
117.68803
39.231254
353.46293
274.43423
196.28966
117.64939
39.221204
353.45425
274.40765
196.27656
117.66114
39.226538
353.44809
274.44893
196.2963
117.63027
39.267391
353.44873
274.42025
196.29042
117.65059
39.259498
353.4561
274.41352
196.32384
117.65537
39.253841
353.4548
274.42613
196.3244
117.62964
39.29114
)
;
    }
    maxZ
    {
        type            calculated;
        value           nonuniform List<scalar> 
150
(
353.45804
274.43084
196.28456
117.6842
39.240177
353.45715
274.44687
196.26653
117.67443
39.228956
353.46544
274.48131
196.27082
117.6806
39.22938
353.46066
274.48104
196.27006
117.67992
39.227367
353.46616
274.47304
196.27906
117.6684
39.224249
353.46738
274.46218
196.24704
117.65586
39.239965
353.46519
274.42785
196.29455
117.64147
39.259965
353.45855
274.40541
196.28098
117.68109
39.24363
353.46549
274.40475
196.3183
117.68467
39.262392
353.45834
274.40338
196.28026
117.68503
39.26398
353.45375
274.40976
196.2599
117.65774
39.269957
353.4657
274.45666
196.23746
117.66208
39.262623
353.45914
274.48306
196.24823
117.66287
39.238573
353.46632
274.48584
196.25752
117.68794
39.235412
353.46808
274.47301
196.26132
117.68244
39.234109
353.46301
274.44319
196.24495
117.64669
39.251211
353.4596
274.41494
196.27601
117.66717
39.249524
353.45924
274.40336
196.285
117.66085
39.254488
353.45984
274.40699
196.3147
117.67635
39.256396
353.46525
274.40558
196.31077
117.69111
39.268285
353.45183
274.41518
196.31383
117.66706
39.238618
353.47348
274.44933
196.26858
117.66563
39.239396
353.47526
274.45457
196.23863
117.64838
39.256168
353.47554
274.4107
196.30873
117.66164
39.253507
353.47666
274.39866
196.27452
117.67165
39.246245
353.47848
274.41651
196.27094
117.63506
39.230977
353.48297
274.45843
196.26156
117.68127
39.223019
353.47109
274.4629
196.25833
117.66623
39.225235
353.46616
274.42805
196.25332
117.62472
39.246865
353.46806
274.40813
196.28464
117.6689
39.245694
)
;
    }
    bottomWater_to_rightSolid
    {
        type            calculated;
        value           nonuniform List<scalar> 
130
(
0.011411853
-0.017616427
-0.01662648
-0.017067516
-0.0095190489
-0.013848784
-0.0087463945
-0.01879602
-0.013461997
0.027391051
0.019497846
0.013841343
0.051140244
0.010969141
-0.0013773422
-0.006058307
-0.0054160486
0.012357348
-0.0015645462
-0.0074584529
-0.0089793185
-0.005132649
0.015861915
0.0069224963
0.0026913463
0.010093127
0.0083244364
0.012276062
0.016894247
0.020282775
0.035541038
0.048521683
0.0091696142
-0.010201137
-0.010008219
-0.022542339
-0.03033616
-0.021090238
-0.0029963698
-0.023694205
0.0042393459
0.01175676
0.015257694
0.026670679
0.034252104
0.025573641
0.0053582467
0.034185791
0.013638651
-0.0058122116
-0.0042323059
0.029198783
-0.0058015032
-0.0092117281
0.015530471
0.016753654
0.013604504
0.034142318
0.018635921
0.016452924
0.010686694
-0.012627586
-0.0040548273
0.0054713866
0.016611433
-0.003330744
-0.039010762
-0.009975849
0.0084360638
0.016829139
0.030759405
0.025415841
0.016044047
-0.01296157
-0.016383117
-0.008351655
0.0043509507
0.0073963176
-0.0020401322
-0.02490992
-0.019426687
0.014806572
0.026968882
0.032189304
0.01364203
0.0049590026
-0.0032343331
-0.018812723
-0.0045316607
0.019495252
0.020287506
-0.011691348
-0.020173839
-0.0089486046
0.027267054
0.042992248
0.033585328
0.018648383
0.0087454942
0.0023773152
-0.022965542
0.012645373
0.015056402
0.027387815
0.014900354
0.0053286576
0.0028528507
0.00073361521
0.023849681
0.022629885
0.018472569
0.0028293218
-0.0047049028
-0.019764636
-0.00011169224
0.01822776
0.019105712
0.014487932
0.016396072
0.028284541
-0.0013819032
-0.00060369829
0.016168292
0.013507475
0.0062449822
-0.009022793
-0.01698115
-0.014765393
0.0068651407
0.0056941078
)
;
    }
    bottomWater_to_leftSolid
    {
        type            calculated;
        value           nonuniform List<scalar> 
130
(
0.029196971
0.021855002
0.0058667249
-0.01585114
-0.0090054255
0.0053181213
-0.00036593917
-0.0059327526
-0.0062524905
0.020174697
0.015453531
0.024133341
0.022507183
0.029691507
0.025398712
0.016883406
-0.011457797
-0.015977957
-0.00042260801
0.0066058432
0.015514563
0.0045569052
0.038663142
0.018317634
0.023911509
0.03615438
0.0085758153
0.0053236057
-0.012720583
-0.013628636
-0.0097434675
0.0003361183
0.0073809592
0.016463431
0.028024041
0.019055167
-0.010206713
0.0067820053
-0.00046404331
0.0043297302
-0.0045479365
-0.0090956134
-0.015213509
-0.01713897
0.0058975003
0.00242538
0.0077201366
0.013016884
-0.0074956581
-0.017190526
-0.013452218
-0.0163397
0.0056604319
0.0078540018
-0.0036535128
-0.017645251
0.0080907126
0.016739198
0.007192446
0.0010366682
-0.0020856076
-0.026154132
-0.028648549
-0.019564353
-0.015740311
0.02408558
0.030397686
0.024876495
0.0054975257
0.027640728
0.023072737
0.028819654
0.019536864
0.0095561207
0.0067111577
0.0021754556
0.0026979728
0.0035658839
0.019015603
0.023467549
0.032078633
0.0036683392
0.011897797
0.037762788
0.03076526
0.019872062
0.03641533
0.030293189
0.021554763
0.025743787
0.032771473
0.006502333
0.013457329
0.025439364
0.0081271298
-0.0015093471
-0.0043135687
-0.011312787
-0.015823184
0.0046201115
0.023978599
0.017859499
0.026749453
0.0092578111
-0.0064451235
-0.016873246
0.001568701
0.0018154674
-0.013792613
-0.012709137
-0.0096761424
-0.00012228755
0.028177884
0.038857162
0.019469392
0.013419971
0.0024466091
0.00017724132
-0.011043757
-0.01062026
-0.012632601
-0.015751042
-3.4626784e-05
0.019964591
0.0036297815
0.022391802
0.023979867
0.029957074
0.022622656
-0.0014266506
)
;
    }
    bottomWater_to_heater
    {
        type            calculated;
        value           nonuniform List<scalar> 
92
(
0.0088058882
0.021921176
0.023191289
0.0071275505
0.0066551606
0.002399255
0.0029117857
0.017235606
-0.017475326
-0.011222465
0.010138243
0.037398582
353.46454
353.45334
353.45231
353.46432
274.47271
274.43958
274.43163
274.46228
196.25803
196.29839
196.2811
196.25202
117.69454
117.68639
117.67055
117.66189
-0.015326456
39.224674
-0.011008729
39.228991
-0.0082443978
39.231756
0.0061741843
39.246174
353.44796
353.45668
274.46805
274.41573
196.30883
196.30697
117.68027
117.69489
39.22426
39.234198
353.4639
353.44907
353.45215
353.44957
353.46161
353.47102
274.51072
274.44154
274.42308
274.42334
274.43544
274.47108
196.21782
196.29782
196.28746
196.27706
196.3076
196.25603
117.64802
117.63933
117.67732
117.64286
117.7009
117.68194
39.243566
39.267458
39.239626
39.234145
39.236669
39.222858
0.027458233
-0.00037362037
-0.0058546707
-0.017141578
0.00659282
-0.0013142963
0.0065823619
-0.011361534
-0.0039632305
0.02153166
0.014496316
0.027679861
-0.0045881963
-0.0058909943
0.011211199
0.0095241299
)
;
    }
}


// ************************************************************************* //
