/*--------------------------------*- C++ -*----------------------------------*\
| =========                 |                                                 |
| \\      /  F ield         | OpenFOAM: The Open Source CFD Toolbox           |
|  \\    /   O peration     | Version:  v2012                                 |
|   \\  /    A nd           | Website:  www.openfoam.com                      |
|    \\/     M anipulation  |                                                 |
\*---------------------------------------------------------------------------*/
FoamFile
{
    version     2.0;
    format      ascii;
    class       volScalarField;
    location    "520/bottomWater";
    object      T;
}
// * * * * * * * * * * * * * * * * * * * * * * * * * * * * * * * * * * * * * //

dimensions      [0 0 0 1 0 0 0];


internalField   nonuniform List<scalar> 
1460
(
969.25289
969.13897
968.05452
969.87244
970.82316
969.56285
964.68935
962.01556
957.83149
957.42453
958.9939
958.39671
949.23787
941.75023
938.13704
933.72225
934.21248
931.47919
929.02181
927.5674
927.12687
927.16341
927.53014
928.37228
930.03938
933.27572
934.59799
936.60938
938.36237
943.17554
969.33275
969.19628
969.0303
968.95652
969.25983
966.7038
963.01831
961.79495
957.15834
955.4846
955.37404
952.95736
941.82844
935.85458
934.30173
933.48114
930.78449
928.63824
927.7432
925.57744
925.11294
925.31863
926.36719
928.2486
928.80848
930.51597
932.05592
933.28034
934.27623
942.3519
969.42521
969.44027
968.9759
968.73171
969.00895
966.42685
964.70844
961.84247
957.48961
955.41927
954.52961
953.01954
942.01779
935.2467
933.60323
933.3401
930.53608
929.19663
928.21105
925.51274
924.87089
925.09487
926.27658
928.56632
930.5913
930.73073
932.46213
934.09237
935.35665
941.39009
969.48766
969.53084
968.48247
967.87739
967.77815
965.69801
963.29463
958.28643
954.01987
953.42158
953.41516
953.04443
941.69471
937.65282
935.91449
934.79659
930.83603
929.08979
927.69997
925.20617
924.40925
924.49847
925.2428
927.73553
930.67479
930.92128
932.10333
934.43218
935.2659
935.25791
968.8828
968.64286
968.2684
967.90244
967.44916
964.60102
959.71417
955.92689
952.25634
952.41866
952.41182
952.59385
942.30268
938.42974
934.99267
933.29631
931.0982
929.39869
927.28565
924.47224
923.74729
924.13377
924.86453
927.3049
930.79355
931.76838
932.31519
933.5001
934.0855
934.44546
969.07386
969.02649
968.48881
969.00218
970.00371
970.99246
971.98097
970.29651
966.21298
964.18812
955.84593
946.77904
938.49854
938.4475
938.41786
936.01441
932.3469
930.46811
929.99685
929.17689
928.05351
927.74194
928.71396
930.03609
932.43285
933.82151
931.56275
933.56415
934.87098
937.78041
969.7246
969.70226
969.49622
967.95925
968.24675
968.82848
969.64201
967.45008
961.01529
960.66024
950.8091
942.39977
938.3633
933.42143
931.68354
933.65806
928.98695
927.68346
927.53969
926.74703
926.64678
927.7821
928.183
928.65613
930.52411
931.66264
932.00821
931.6628
931.86821
933.82612
969.83762
970.12652
969.49834
968.35445
968.3121
968.11621
969.56042
966.86125
961.86504
958.64521
951.7263
946.97665
940.92016
932.3642
930.18784
931.71095
929.21391
927.72057
927.58536
926.12406
926.3635
927.99222
928.87992
929.12762
930.41537
931.25712
932.22995
932.89286
932.6288
933.92329
969.91793
969.99433
969.00907
968.09828
968.07358
966.4868
968.59523
967.12888
961.0994
957.75176
951.70503
948.56282
936.13793
932.00467
930.79585
931.68686
929.49443
927.79323
926.96349
926.26251
926.46109
926.71076
927.72413
928.16506
929.33477
930.62623
932.46585
933.46799
933.39793
934.2347
969.50022
969.44698
969.00138
968.64284
968.29881
967.37067
968.05612
965.81437
953.89604
954.19664
949.94432
948.73155
936.91199
934.43323
932.84808
928.8225
927.80767
926.43408
923.30501
922.05924
924.5892
925.29024
926.23868
926.56407
928.33794
930.09926
931.69234
932.49782
933.15394
933.7297
969.46623
969.37349
969.19062
967.84537
968.27657
969.5607
971.00038
968.98441
958.24631
953.46139
947.19133
942.4993
934.59774
932.27786
931.31674
931.15865
928.84068
926.45457
926.014
927.10795
929.37279
930.19889
930.68528
932.487
932.00769
930.51944
929.79603
930.42018
931.82214
935.19724
970.21752
970.28225
969.72073
966.97946
967.44378
967.64239
968.44796
963.60407
956.39629
953.50206
945.34341
943.0025
933.5643
927.90686
925.42987
924.50099
924.6008
923.52673
923.33296
923.51885
927.71281
928.5639
929.11483
930.50947
930.53702
930.04892
929.08652
929.62538
930.12133
931.82576
970.29378
971.11516
970.21058
967.1969
967.59341
968.02656
968.11228
962.64986
959.21951
955.50919
947.98465
947.59089
933.73606
928.41951
924.88248
925.02633
927.65795
926.40308
923.68503
923.42673
927.44596
927.00146
929.38314
930.58587
930.52434
930.6987
928.90397
929.6688
930.94682
931.24133
970.38426
970.83912
969.85653
967.55258
967.07181
967.27753
968.28062
962.30478
960.89851
956.6036
948.76481
947.74879
936.99747
932.81082
929.5941
929.45228
926.64815
924.24957
923.82252
923.35302
926.82971
926.46411
928.51739
930.64236
929.55805
930.13185
928.43246
929.83462
931.463
931.54341
969.73106
969.59716
969.21932
968.08007
966.376
966.49326
965.74806
960.92332
959.64123
956.42211
950.25649
947.54278
938.70882
934.73175
929.12042
927.24036
925.81594
922.27353
921.26848
922.6668
925.02528
925.13928
927.46781
928.38313
927.55713
927.14114
927.42917
929.86263
930.99098
930.68205
970.12417
969.78343
969.20072
967.59147
967.28572
967.12346
968.62037
967.75643
956.40775
953.03988
946.41436
943.16023
933.39016
922.91624
923.12156
919.72596
918.38453
919.61947
920.06141
920.95699
923.3013
926.42602
929.82217
933.25133
936.72147
936.09657
935.22349
935.26046
930.96521
937.54807
970.73798
970.86333
970.31484
966.42465
966.54597
966.03211
966.51096
962.76215
955.61801
949.87024
946.7273
945.54951
933.55363
922.88089
919.38764
917.00538
920.02467
920.579
920.85453
919.69049
920.9596
923.90551
928.0331
933.27638
933.28833
931.41388
931.57525
931.07105
928.38513
930.77777
970.72473
971.8862
971.39839
966.20109
966.34426
965.68501
963.23418
960.51128
956.46718
953.10901
950.83738
948.12163
933.95769
924.33591
922.08155
918.46265
921.12077
920.67993
920.99974
921.96017
922.18157
923.92925
928.44987
933.12251
931.94016
929.67524
928.47763
927.53249
928.01869
930.78413
970.85335
971.38904
971.31652
965.67442
965.27854
966.26876
965.39669
959.303
957.08688
955.68136
951.26628
946.84731
936.45497
926.84543
923.848
921.72628
920.86894
919.32672
921.73629
923.13075
923.05329
924.30673
928.65439
931.88393
930.97926
930.56841
927.8253
927.27469
927.84553
929.65503
970.74107
971.01268
971.20772
965.52053
963.4686
963.65096
962.25993
958.4359
957.44556
956.36931
952.06432
947.75926
939.4647
928.68081
923.41184
922.10999
921.11275
920.53541
921.37634
922.3106
922.97562
924.03951
928.06688
929.06004
928.06356
928.99191
927.84281
927.07647
927.46557
928.47538
972.42724
972.21306
971.66813
969.47225
968.35141
969.72012
966.72746
958.18034
954.31693
951.8211
948.46948
943.63153
918.75957
911.58715
926.20395
920.45245
923.70331
927.39079
930.83626
933.14795
931.75949
933.05146
933.28125
933.77318
935.29256
937.66043
972.05926
971.90389
971.27187
967.64591
966.57885
966.89598
965.85784
956.4824
954.677
953.07139
951.14705
947.14427
928.00898
913.0345
921.13469
915.99697
920.05216
922.77572
928.4505
930.75545
930.27639
928.96457
929.90299
930.13505
931.22637
933.81251
972.08041
973.06259
971.61074
967.60966
966.38132
965.89606
964.87814
956.65811
955.37053
954.1347
952.38531
948.36058
933.49203
908.90087
911.89388
914.40181
920.89599
923.89728
928.68548
931.49287
930.80324
928.54558
927.94561
928.03762
930.1459
933.51936
972.09533
972.62809
971.85156
966.90832
965.47037
964.28405
964.40534
956.81716
955.31884
955.17439
952.75684
949.08466
937.1115
914.31734
916.65403
920.21455
924.71527
925.17787
929.05203
930.66894
930.74725
930.06662
928.05635
927.40322
929.01868
931.51999
971.89549
972.44716
972.25268
966.39567
963.72282
963.32125
962.55401
958.03399
956.40859
955.39267
952.57123
947.47859
936.88478
918.1021
921.2341
922.09503
923.79192
925.12579
928.47625
928.77692
928.66615
928.29072
927.64042
927.15232
928.27029
929.54709
974.49491
974.04589
972.18293
974.57549
972.80751
970.15942
961.73981
955.89988
951.6504
946.32486
941.28661
937.76504
930.26887
919.93945
925.15246
923.87218
925.66358
928.38516
930.50172
932.16853
929.91899
932.73813
927.85815
928.66748
930.31742
932.55674
972.89408
972.17136
971.16828
971.70151
970.53766
968.70618
961.60397
953.9046
951.36511
948.80743
946.84265
945.33087
937.22468
918.06136
919.94102
920.87734
925.17909
926.22284
928.83758
930.3675
930.05559
928.52729
927.46568
927.83194
928.45677
929.61782
973.09928
973.89547
970.48196
968.94108
967.55603
968.15577
960.83833
954.03263
951.73931
950.85796
950.75401
948.45418
940.06742
912.55009
917.60195
920.72358
926.19589
927.55586
929.09531
930.61626
930.30444
928.24628
927.52643
927.91359
929.95795
930.35615
973.24396
973.88214
969.36134
968.15213
966.24407
966.4098
960.82383
954.3489
952.56389
952.80881
951.89102
948.76417
938.54091
914.69992
921.64919
924.64125
927.16483
927.82388
929.31821
929.8687
930.00184
928.39048
927.44524
927.91748
929.25606
930.48767
972.80356
973.36102
972.45506
968.29157
964.70561
964.02466
960.46956
955.4225
954.64363
953.86988
948.81613
944.28403
937.46531
917.73797
922.67113
923.92459
925.23089
926.55326
928.47207
928.47266
928.20089
927.74617
927.26139
928.07093
928.63117
929.36576
978.43885
977.60419
975.82754
974.2944
970.65975
967.06451
964.17619
962.61383
958.08905
946.1901
936.50791
933.13611
930.42154
925.91588
926.12028
926.03325
925.91214
926.87869
927.06663
928.28723
928.59768
929.96042
930.41482
930.53594
929.79288
929.34934
930.30254
930.68551
932.90178
935.9665
976.24122
975.30442
974.00119
971.18303
965.82091
962.23476
959.91912
957.47106
959.38971
949.31739
940.94702
938.90413
936.07441
927.69182
927.75214
926.87702
926.63708
925.70804
926.66299
927.49749
929.39949
929.65025
929.89099
930.02684
929.78398
929.37366
928.73683
929.68564
930.0985
931.5977
976.04525
975.41878
970.88895
969.52207
965.08067
962.75809
958.39964
954.82015
955.52265
950.7925
940.61207
939.49877
936.82444
928.78888
926.93975
926.8396
927.89784
925.13669
926.56906
928.25753
929.94887
930.24704
930.01179
930.14469
930.16498
929.38992
928.66773
930.14457
930.80768
931.67855
975.76707
975.54272
971.04472
969.43072
965.60218
963.12293
956.78859
954.58368
953.87325
951.68606
940.84956
941.77504
938.29203
930.57062
926.28167
926.73869
928.42071
926.48041
926.18108
927.20899
928.04635
929.24382
930.0297
930.06502
930.04813
929.58991
928.48022
930.16742
931.35463
931.86104
975.24423
974.94398
971.65374
969.19269
964.25069
963.26041
959.18542
954.14718
953.69018
952.65798
941.79157
942.04154
940.22306
930.40295
928.3087
929.01204
930.25121
926.88187
925.73947
926.33759
927.34295
928.15041
928.96076
928.40522
928.04324
927.63219
928.3445
930.4855
930.908
931.16553
977.08111
975.61145
972.89472
973.25151
969.17847
965.12756
960.08415
959.22112
959.69928
963.27935
964.62478
955.16923
947.80186
948.36295
946.87599
941.77316
940.25531
936.39792
934.5202
934.39114
932.55794
933.4689
932.78029
931.45773
930.22887
929.81955
931.51086
933.17416
935.34206
938.11812
974.61637
973.49149
972.12077
971.5618
966.6098
963.32772
959.69554
957.60823
957.82354
959.86322
956.785
951.72883
946.47608
947.0061
945.67949
941.88862
941.71757
935.4881
932.26745
931.07927
931.10742
931.33375
931.20683
930.26952
929.98289
929.89658
930.05882
930.98468
932.20651
934.0895
974.59383
974.70241
971.77942
968.93495
966.52613
965.08528
959.5331
957.17217
956.99464
956.24511
953.79131
951.77703
946.14138
946.23236
946.31968
943.66465
942.81022
935.55814
931.5437
930.83989
931.20378
931.00674
931.12077
930.30322
930.31902
929.87567
930.2976
931.9259
932.23997
934.16569
974.55521
974.57065
971.17837
967.67171
966.24467
963.01451
959.68726
957.99454
957.26835
953.68355
953.27391
952.21181
945.97875
945.50391
943.84881
940.84992
940.63657
935.78825
930.54082
930.16736
930.10284
930.749
931.09101
930.3593
930.3412
929.50953
929.74962
932.71321
933.46701
934.19145
974.39366
974.10782
971.65904
968.52505
965.81947
964.16013
960.1115
958.18752
957.48422
955.19395
952.05388
952.68841
949.4063
943.46358
942.106
940.75974
940.03286
935.22277
929.28046
928.17593
929.14196
929.72902
930.13883
929.38629
929.05463
928.46673
929.6397
931.88105
932.66015
933.31489
976.68823
975.88837
973.91785
972.06775
973.36379
974.52781
965.34729
964.40476
967.06585
969.1182
969.79666
964.45549
962.4833
958.30227
957.31298
949.54754
941.68077
939.05584
938.6655
937.45079
933.66461
931.93659
932.23234
931.72104
930.80335
929.96681
930.45987
932.64591
934.40135
936.09719
974.78271
974.26411
973.92236
970.69448
971.25579
972.03388
964.46442
960.59142
965.87088
967.16515
966.89358
961.69661
959.1275
952.80386
951.99247
946.2395
940.58851
939.91371
936.72858
934.71023
932.38263
930.04382
930.80065
930.56745
930.04807
929.77934
930.20379
932.28166
932.8921
933.84187
974.64529
974.28506
973.94224
970.07115
970.06945
971.83338
964.6424
963.37298
965.76274
967.81548
965.52988
961.79467
958.1213
950.52257
952.16528
946.6254
946.2814
940.50897
935.76408
934.39227
931.99701
930.54001
930.80305
930.64098
930.13595
929.20474
930.09812
932.50279
933.0032
933.93391
974.36183
973.97371
973.95639
968.89525
967.28753
966.84096
965.84808
965.56415
967.82741
967.34186
964.50326
961.56255
961.26818
951.54178
949.91038
946.07551
944.91652
937.04507
934.22401
931.48353
930.40583
930.06419
930.80889
930.71213
930.19175
928.95336
929.6375
932.60386
933.85782
933.99827
973.85897
973.23185
971.99054
968.98751
967.06365
966.5314
968.07958
969.23576
968.75281
967.96188
966.02898
964.12335
961.59792
949.37687
943.55411
943.11613
941.41538
937.18353
932.96386
927.99743
928.21164
929.12344
929.63452
929.66636
929.06067
928.3531
929.72371
931.98325
932.75604
933.02641
976.21607
975.20703
974.12317
973.3617
972.38331
972.30741
972.22328
972.7237
973.40861
970.125
967.50518
965.91817
964.86084
959.08682
952.43658
953.72305
953.18029
950.48233
947.36924
935.63961
932.71658
929.19034
929.45535
930.24737
930.35519
929.50629
928.84803
931.6139
933.04044
934.64739
974.47069
973.79895
973.22759
971.25703
970.56426
970.40871
970.40774
968.78591
970.01435
967.46312
966.1865
965.58719
964.02561
959.18674
947.8583
947.80509
947.94699
947.92056
944.4977
932.89464
930.88609
928.87706
929.86087
930.05382
929.69386
929.28517
929.19304
931.4862
931.9651
932.78918
974.48792
974.02148
973.20677
970.70372
969.9195
969.7967
968.05709
968.70311
970.13969
968.23527
967.54715
966.03723
963.92226
959.7544
944.57659
947.05315
948.46095
947.69529
942.76058
932.98731
929.29653
928.93518
929.99895
930.09719
929.72248
928.69509
928.94501
931.57018
932.80495
932.79288
974.52711
973.72169
972.653
970.08423
969.31198
969.3988
968.87974
969.62329
970.77616
969.24845
968.48599
967.05812
966.42851
962.42669
943.09859
945.89836
946.16288
944.28909
940.23707
932.90951
928.2623
928.47373
930.16438
930.12435
929.86931
928.04091
928.78985
931.09138
932.70164
932.79983
973.54156
973.13546
971.95518
969.3116
969.2025
969.86683
969.93401
971.12698
971.32115
969.4285
969.10443
968.4235
967.91444
963.47482
938.9867
939.35611
938.68134
938.75119
937.2848
930.97028
927.61414
927.87197
928.38899
928.71629
928.55284
927.67713
928.71929
930.8917
931.31738
931.52551
)
;

boundaryField
{
    minX
    {
        type            zeroGradient;
    }
    maxX
    {
        type            zeroGradient;
    }
    minY
    {
        type            fixedValue;
        value           uniform 1073;
    }
    minZ
    {
        type            zeroGradient;
    }
    maxZ
    {
        type            zeroGradient;
    }
    bottomWater_to_rightSolid
    {
        type            compressible::turbulentTemperatureCoupledBaffleMixed;
        refValue        nonuniform List<scalar> 
130
(
753.30859
761.24724
769.55245
777.81751
785.71787
793.02147
799.58113
805.29464
810.09061
813.94295
816.84156
818.77884
819.75025
747.43849
756.73112
766.23431
775.46601
784.08722
791.90391
798.80874
804.753
809.70634
813.66355
816.62772
818.60533
819.59655
735.67896
748.08999
760.14557
771.28859
781.27294
790.03312
797.56563
803.90975
809.12034
813.24174
816.31416
818.35459
819.3708
718.19217
736.44688
752.57871
766.41821
778.15918
788.05427
796.30868
803.10856
808.60705
812.89865
816.06592
818.16044
819.20558
697.61746
725.46364
746.41432
762.82815
776.01603
786.75789
795.52103
802.63371
808.32023
812.73116
815.97221
818.10993
819.17445
697.77276
725.61104
746.54726
762.94457
776.11651
786.84068
795.5926
802.69915
808.38315
812.79736
816.04718
818.18799
819.25352
718.69259
736.89157
752.96847
766.75852
778.45313
788.30218
796.52449
803.30545
808.78789
813.08231
816.26524
818.36818
819.41563
736.40642
748.74898
760.7277
771.80042
781.72495
790.42696
797.90876
804.21251
809.38858
813.49081
816.55712
818.59457
819.61299
748.22544
757.4864
766.92137
776.08018
784.63665
792.38896
799.22629
805.09678
809.98713
813.90628
816.85688
818.82557
819.81109
754.0837
762.0179
770.27504
778.47479
786.30888
793.54032
800.0136
805.6348
810.35764
814.16733
817.04605
818.96992
819.93384
)
;
        refGradient     uniform 0;
        valueFraction   uniform 0.99248593;
        value           nonuniform List<scalar> 
130
(
754.63175
762.49488
770.71654
778.91405
786.75795
794.01215
800.54087
806.23767
811.00492
814.83243
817.71814
819.64526
820.61208
748.78348
757.98279
767.40521
776.58655
785.14825
792.9133
799.76869
805.68166
810.61099
814.55043
817.49837
819.46606
820.45417
737.08099
749.3913
761.36678
772.44379
782.35399
791.06582
798.54859
804.83883
810.00715
814.09976
817.16736
819.20095
820.20719
719.71257
737.83647
753.8541
767.59462
779.25538
789.10636
797.30618
804.04746
809.51163
813.76234
816.90005
818.98174
820.02661
699.27424
726.93472
747.73446
764.03767
777.13646
787.8228
796.52234
803.58073
809.22168
813.59458
816.80762
818.93767
820.00375
699.4256
727.09178
747.8801
764.164
777.2469
787.90492
796.59108
803.64217
809.28004
813.65744
816.88896
819.01787
820.08091
720.25693
738.31056
754.27115
767.96513
779.57794
789.35908
797.51544
804.24274
809.6809
813.94839
817.12352
819.21383
820.25534
737.90036
750.10552
761.9859
772.98268
782.83705
791.47676
798.8967
805.15058
810.28335
814.36352
817.42366
819.45167
820.46736
749.64528
758.80498
768.1317
777.2233
785.72233
793.42024
800.20642
806.02826
810.87654
814.77649
817.72194
819.68164
820.66179
755.47127
763.33482
771.48251
779.59543
787.37259
794.55358
800.98069
806.55841
811.23919
815.02806
817.90148
819.8141
820.77234
)
;
        Tnbr            T;
        thicknessLayers List<scalar> 0();
        kappaLayers     List<scalar> 0();
        kappaMethod     fluidThermo;
        kappa           none;
        alphaAni        none;
        alpha           none;
        field           T;
    }
    bottomWater_to_leftSolid
    {
        type            compressible::turbulentTemperatureCoupledBaffleMixed;
        refValue        nonuniform List<scalar> 
130
(
910.57663
910.53644
910.44844
910.30735
910.10722
909.83878
909.50991
909.14755
908.7818
908.45892
908.18232
907.95901
907.78897
910.62099
910.57982
910.48886
910.34576
910.14982
909.89961
909.60038
909.24585
908.84916
908.50067
908.19
907.94454
907.76228
910.69725
910.65194
910.55233
910.39473
910.18947
909.94358
909.64692
909.29751
908.94037
908.58987
908.26292
908.00634
907.82893
910.81387
910.76468
910.65254
910.46386
910.24023
909.98752
909.69244
909.35884
909.02648
908.70186
908.3909
908.13149
907.95501
910.95991
910.90838
910.78805
910.58727
910.34909
910.08579
909.78914
909.46024
909.13965
908.83292
908.54016
908.28342
908.10225
911.12184
911.06842
910.94461
910.74686
910.50197
910.23075
909.92271
909.59447
909.28366
908.98517
908.69324
908.44857
908.28933
911.28784
911.23029
911.10175
910.91395
910.67418
910.40992
910.11083
909.79499
909.49731
909.20677
908.91445
908.70519
908.58466
911.40936
911.35681
911.24105
911.06946
910.85983
910.62415
910.36125
910.09111
909.82626
909.56622
909.32805
909.15413
909.04607
911.49538
911.44957
911.35214
911.20529
911.03038
910.84035
910.64137
910.43116
910.21016
909.98993
909.78773
909.62958
909.53431
911.54223
911.50225
911.41644
911.28802
911.14108
910.9804
910.80545
910.62138
910.42495
910.22422
910.04856
909.91356
909.83645
)
;
        refGradient     uniform 0;
        valueFraction   uniform 0.99248593;
        value           nonuniform List<scalar> 
130
(
911.01474
910.97305
910.88289
910.74012
910.53809
910.25029
909.88717
909.49904
909.10845
908.78922
908.51466
908.2944
908.04827
911.06341
911.02215
910.92853
910.78381
910.58676
910.33145
910.03962
909.67103
909.18765
908.84391
908.5037
908.25098
907.98126
911.14084
911.09487
910.99316
910.82816
910.61168
910.36855
910.06852
909.68536
909.32127
908.9492
908.57827
908.30338
908.06091
911.26418
911.21739
911.10756
910.87754
910.64019
910.39076
910.08746
909.72756
909.39027
909.05999
908.71894
908.42918
908.19171
911.41778
911.3708
911.24991
911.00661
910.75014
910.48579
910.18561
909.82518
909.4948
909.18275
908.87104
908.57799
908.31859
911.58532
911.53649
911.40681
911.17927
910.90926
910.63495
910.30252
909.93882
909.6245
909.32247
908.99481
908.71785
908.5086
911.76842
911.70904
911.55675
911.35191
911.0768
910.80707
910.47967
910.12827
909.82943
909.53335
909.16154
908.95559
908.82247
911.88264
911.82833
911.69508
911.50119
911.27285
911.02648
910.73519
910.45258
910.18443
909.90913
909.64908
909.4813
909.34937
911.96399
911.91382
911.8078
911.63951
911.45146
911.25886
911.07299
910.87306
910.6501
910.42558
910.21037
910.03908
909.92556
912.00811
911.96538
911.87136
911.72405
911.5774
911.42292
911.24979
911.07607
910.88258
910.66912
910.49234
910.35325
910.2729
)
;
        Tnbr            T;
        thicknessLayers List<scalar> 0();
        kappaLayers     List<scalar> 0();
        kappaMethod     fluidThermo;
        kappa           none;
        alphaAni        none;
        alpha           none;
        field           T;
    }
    bottomWater_to_heater
    {
        type            compressible::turbulentTemperatureCoupledBaffleMixed;
        refValue        nonuniform List<scalar> 
92
(
734.21898
736.32731
740.42454
746.22667
724.78106
727.2567
732.09668
739.00614
704.9801
708.16277
714.56354
723.98527
345.63506
342.95077
342.9743
345.65569
422.66363
419.32874
419.52194
423.04118
488.5759
485.74804
486.42149
490.11058
544.60959
542.86701
544.73749
549.19904
672.85842
590.89296
676.84881
591.07754
685.43901
595.67352
699.29849
603.23982
345.63506
345.65569
422.66363
423.04118
488.5759
490.11058
544.60959
549.19904
590.89296
603.23982
345.67077
345.67077
342.97382
343.01224
345.73084
345.73084
422.74049
422.74049
419.39284
419.5998
423.14974
423.14974
488.66998
488.66998
485.82808
486.51134
490.21722
490.21722
544.70073
544.70073
542.96184
544.84195
549.3111
549.3111
590.98418
590.98418
591.18256
595.78796
603.35674
603.35674
673.40706
677.3977
685.98555
699.83752
705.72984
708.91551
715.31444
724.7318
725.57503
728.02792
732.86432
739.77773
735.01938
737.06106
741.14714
746.95691
)
;
        refGradient     uniform 0;
        valueFraction   nonuniform List<scalar> 
92
(
0.99248593
0.99248593
0.99248593
0.99248593
0.99248593
0.99248593
0.99248593
0.99248593
0.99248593
0.99248593
0.99248593
0.99248593
0.99248593
0.99248593
0.99248593
0.99248593
0.99248593
0.99248593
0.99248593
0.99248593
0.99248593
0.99248593
0.99248593
0.99248593
0.99248593
0.99248593
0.99248593
0.99248593
0.99248593
0.99248593
0.99248593
0.99248593
0.99248593
0.99248593
0.99248593
0.99248593
0.99248593
0.99248593
0.99248593
0.99248593
0.99248593
0.99248593
0.99248593
0.99248593
0.99248593
0.99248593
0.99248593
0.99248593
0.99248593
0.99248593
0.99248593
0.99248593
0.99248593
0.99248593
0.99248593
0.99248593
0.99248593
0.99248593
0.99248593
0.99248593
0.99248593
0.99248593
0.99248593
0.99248593
0.99248593
0.99248593
0.99248593
0.99248593
0.99248593
0.99248593
0.99248593
0.99248593
0.99248593
0.99248593
0.99248593
0.99248593
0.99248593
0.99248593
0.99248593
0.99248593
0.99248593
0.99248593
0.99248593
0.99248593
0.99248593
0.99248593
0.99248593
0.99248593
0.99248593
0.99248593
0.99248593
0.99248593
)
;
        value           nonuniform List<scalar> 
92
(
735.7534
737.82008
741.87379
747.61581
726.35639
728.80151
733.57493
740.4248
706.70641
709.82306
716.16165
725.50183
349.97284
347.31027
347.30809
349.95925
426.42224
423.08617
423.26005
426.77558
491.85018
489.02667
489.66792
493.34923
547.48168
545.72972
547.57021
551.99179
674.78063
593.43106
678.7015
593.57473
687.21738
598.1264
700.96521
605.62832
349.94169
349.9082
426.46101
426.7229
491.9191
493.25727
547.55893
551.94264
593.49283
605.60575
350.06353
350.03071
347.35555
347.39312
350.04558
350.09044
426.60648
426.53491
423.21272
423.41164
426.86856
426.93303
492.06196
491.97724
489.14262
489.82012
493.39065
493.50598
547.66011
547.60019
545.84218
547.71162
552.05666
552.15973
593.5877
593.53476
593.71588
598.29188
605.71903
605.81302
675.3383
679.28319
687.81171
701.56883
707.51626
710.66777
717.00848
726.34959
727.25667
729.64739
734.44415
741.29284
736.73593
738.57833
742.63649
748.39751
)
;
        Tnbr            T;
        thicknessLayers List<scalar> 0();
        kappaLayers     List<scalar> 0();
        kappaMethod     fluidThermo;
        kappa           none;
        alphaAni        none;
        alpha           none;
        field           T;
    }
}


// ************************************************************************* //
