/*--------------------------------*- C++ -*----------------------------------*\
| =========                 |                                                 |
| \\      /  F ield         | OpenFOAM: The Open Source CFD Toolbox           |
|  \\    /   O peration     | Version:  v2012                                 |
|   \\  /    A nd           | Website:  www.openfoam.com                      |
|    \\/     M anipulation  |                                                 |
\*---------------------------------------------------------------------------*/
FoamFile
{
    version     2.0;
    format      ascii;
    class       volScalarField;
    location    "44";
    object      p;
}
// * * * * * * * * * * * * * * * * * * * * * * * * * * * * * * * * * * * * * //

dimensions      [0 2 -2 0 0 0 0];


internalField   nonuniform List<scalar> 
64000
(
-5.75043e-22
-4.65373e-21
-3.44152e-21
-5.24951e-21
-9.49061e-21
-3.65569e-21
-5.37134e-21
-5.12586e-21
-5.82693e-21
-6.34195e-21
-4.3876e-21
-7.53786e-21
-5.3587e-21
-7.64324e-21
-5.15281e-21
-6.35608e-21
-2.01742e-21
-1.65402e-21
-2.15093e-21
-2.78809e-21
-2.19244e-21
-3.11942e-21
-3.64931e-21
-3.99536e-21
-2.7982e-21
-1.48014e-21
9.63505e-22
-5.61152e-21
-2.9785e-21
-1.70741e-21
-1.45215e-21
-1.40587e-21
-2.19605e-21
-1.60801e-21
-1.7845e-21
-4.95068e-21
-2.00927e-22
-7.01409e-22
-1.2133e-21
-9.12377e-22
-7.02797e-21
-1.15218e-20
-1.17852e-20
-9.49863e-21
-1.18042e-20
-1.19443e-20
-9.11089e-21
-7.37541e-21
-4.96899e-21
-1.20308e-20
-1.22118e-20
-1.17922e-20
-6.71606e-21
-7.20686e-21
-8.49427e-21
-7.82924e-21
-5.23157e-21
2.56028e-22
-2.22229e-21
-5.97347e-21
-3.36588e-22
-3.73753e-21
-7.27988e-21
-1.06337e-20
-5.56887e-21
-3.2361e-21
-3.20179e-21
-6.14764e-21
-4.13987e-21
-1.50498e-21
4.18618e-22
-1.25585e-21
-5.80326e-21
-3.9404e-21
-1.16858e-21
-1.64282e-21
-3.98265e-22
-1.33323e-22
-2.22179e-21
-2.4199e-21
-6.77591e-21
-9.2654e-21
-1.37485e-20
-1.17453e-20
-1.03413e-20
-1.18308e-20
-1.17686e-20
-8.76878e-21
-8.65568e-21
-1.09862e-20
-9.6168e-21
-1.1549e-20
-9.35213e-21
-7.65687e-21
-6.30592e-21
-3.63502e-21
-1.07441e-20
-5.43336e-21
-2.07507e-21
-1.15013e-21
-3.91565e-21
-7.83261e-21
-7.91706e-21
-7.93289e-21
-4.44839e-21
-4.74144e-21
-4.10995e-21
-5.98301e-21
-4.33727e-21
-4.24346e-21
-2.01572e-21
-1.7317e-21
-3.93693e-21
-2.36048e-21
-2.13495e-21
-1.82662e-21
-3.53784e-22
1.09303e-21
-6.03806e-22
-1.19705e-22
-8.66042e-21
-9.88853e-21
-1.16151e-20
-1.50746e-20
-1.29278e-20
-1.63894e-20
-1.592e-20
-7.32736e-21
-9.29475e-21
-1.18046e-20
-1.04023e-20
-1.18281e-20
-1.05809e-20
-8.14953e-21
-7.92272e-21
-7.06209e-21
-6.70264e-21
-7.59399e-21
-1.50966e-21
-7.85295e-22
-5.11896e-21
-6.66304e-21
-1.11681e-20
-8.82946e-21
-9.06597e-21
-1.22864e-21
-4.58247e-21
-3.9884e-21
-4.92721e-21
-5.57667e-21
-1.8435e-21
-1.72566e-21
-2.93415e-21
-2.69492e-21
-2.75461e-21
-1.89266e-21
-2.02728e-21
6.86975e-22
-1.55232e-21
-1.89607e-22
-1.64286e-20
-1.10632e-20
-1.06899e-20
-1.40479e-20
-1.36146e-20
-1.7029e-20
-1.39979e-20
-9.36824e-21
-7.60703e-21
-1.3989e-20
-1.40625e-20
-8.17408e-21
-9.13328e-21
-7.61377e-21
-1.1675e-20
-1.40021e-20
-6.35871e-21
-3.22287e-21
-6.40349e-21
-1.54136e-21
-4.17571e-21
-6.64124e-21
-9.70853e-21
-1.03056e-20
-6.22505e-21
-2.66981e-21
-3.64538e-21
-4.95917e-21
-7.57589e-21
-2.70426e-21
-1.57437e-21
4.82839e-22
-1.06985e-21
-2.18065e-21
-4.98484e-21
-3.52802e-21
-1.12766e-21
-1.89695e-22
1.31834e-21
-1.45558e-21
-1.36756e-20
-1.07276e-20
-9.32499e-21
-1.4933e-20
-1.4319e-20
-1.43575e-20
-1.12043e-20
-1.42363e-20
-1.32301e-20
-1.31522e-20
-1.18742e-20
-9.29273e-21
-1.09213e-20
-7.88389e-21
-1.01774e-20
-1.2283e-20
-5.89656e-21
-4.18904e-21
-3.4225e-21
-4.6572e-21
-4.20382e-21
-6.00787e-21
-1.09304e-20
-1.04288e-20
-9.30957e-21
-1.01261e-21
-3.20414e-21
-2.79623e-21
-5.93924e-21
-3.68663e-21
-3.99999e-21
-3.0973e-21
-1.61256e-21
-1.46662e-21
-2.94956e-21
-8.35058e-22
-1.13351e-21
-7.75295e-22
1.47196e-22
4.99547e-22
-1.46949e-20
-1.47059e-20
-9.32374e-21
-1.30067e-20
-1.44194e-20
-1.49182e-20
-1.15561e-20
-1.32597e-20
-1.46122e-20
-1.25856e-20
-1.21729e-20
-1.19289e-20
-1.05536e-20
-8.99465e-21
-9.09576e-21
-1.06836e-20
-6.56951e-21
-1.66232e-21
-3.29175e-21
-5.21318e-21
-6.38979e-21
-1.08003e-20
-1.16298e-20
-1.16045e-20
-4.16511e-21
-4.40962e-21
-4.70259e-21
-1.04935e-21
-3.74971e-21
-2.46943e-21
-5.89645e-21
-5.63128e-21
1.6446e-21
-7.20384e-22
-2.62582e-21
-2.86612e-21
-1.38098e-21
-2.79442e-22
-1.80525e-21
-1.24183e-21
-1.4206e-20
-1.42511e-20
-1.15518e-20
-1.02635e-20
-1.43916e-20
-1.31194e-20
-1.2349e-20
-1.89193e-20
-1.63835e-20
-1.33432e-20
-1.07063e-20
-1.04317e-20
-1.03585e-20
-1.08201e-20
-8.40929e-21
-1.01425e-20
-6.31048e-21
-2.85227e-21
-5.24827e-21
-3.4353e-21
-5.77415e-21
-9.94281e-21
-1.02878e-20
-9.50236e-21
-5.138e-21
-6.15269e-21
-3.49869e-21
-2.97381e-21
-3.57576e-21
-3.48812e-21
-4.26866e-21
-4.32821e-21
-4.3894e-22
-2.45324e-21
-4.82254e-21
-3.87556e-21
-8.61037e-22
-1.24797e-21
-9.15934e-22
-1.77416e-21
-1.94989e-20
-1.64697e-20
-1.15779e-20
-1.24108e-20
-1.45852e-20
-1.61549e-20
-1.42287e-20
-1.37891e-20
-1.42629e-20
-1.69577e-20
-8.52443e-21
-9.3667e-21
-1.32524e-20
-9.95603e-21
-9.87925e-21
-9.89592e-21
-5.39689e-21
-3.2791e-22
-5.97643e-21
-8.57171e-21
-3.35086e-21
-8.34711e-21
-1.28279e-20
-7.86525e-21
-2.98543e-21
-4.9505e-21
-7.34728e-21
-6.00696e-21
-3.98586e-21
-4.28836e-21
-3.54322e-21
-2.41419e-21
-3.14367e-22
-2.64165e-21
-5.86817e-21
-2.32786e-21
-5.09578e-22
-1.07793e-21
-1.4555e-21
-2.52205e-21
-1.25863e-20
-1.32641e-20
-1.31329e-20
-1.22355e-20
-1.65468e-20
-1.75667e-20
-1.30002e-20
-1.33148e-20
-1.25455e-20
-1.56925e-20
-1.29282e-20
-9.02605e-21
-1.10924e-20
-9.28115e-21
-1.12077e-20
-8.94464e-21
-6.48334e-21
-3.87676e-21
-2.02791e-21
-5.40194e-21
-7.32165e-21
-8.5007e-21
-1.12739e-20
-9.5682e-21
-7.13431e-21
-5.17018e-21
-4.02279e-21
-4.05688e-21
-5.73268e-21
-4.82604e-21
-1.79859e-21
-1.86573e-21
-2.50071e-21
-2.50252e-21
-5.78172e-21
-4.56783e-21
-2.52466e-21
-1.97871e-22
-7.3402e-22
-1.56519e-22
-1.05686e-20
-1.42355e-20
-1.50754e-20
-1.70799e-20
-1.47215e-20
-1.58827e-20
-1.74533e-20
-1.1583e-20
-1.34291e-20
-1.60219e-20
-1.19165e-20
-9.34118e-21
-1.08792e-20
-1.01739e-20
-1.15379e-20
-1.1875e-20
-7.80214e-21
1.32941e-21
1.9833e-21
-5.28316e-21
-1.01747e-20
-1.33534e-20
-1.06311e-20
-1.03449e-20
-9.65409e-21
-4.45419e-21
-4.45707e-22
-2.64459e-21
-5.03951e-21
-8.37344e-21
-2.76732e-21
3.81457e-22
-5.10121e-21
-1.93876e-21
-1.46725e-21
-6.92717e-21
-2.51441e-21
-9.53049e-22
-9.80211e-22
-6.9083e-22
-1.07402e-20
-1.49164e-20
-1.52914e-20
-1.50663e-20
-1.57838e-20
-1.89638e-20
-1.3622e-20
-1.52908e-20
-9.93892e-21
-1.47622e-20
-1.77661e-20
-1.03953e-20
-8.41127e-21
-1.14131e-20
-1.0777e-20
-1.13459e-20
-7.35247e-21
-1.82752e-22
-1.60826e-21
-3.10936e-21
-7.93123e-21
-1.24141e-20
-1.17319e-20
-1.14072e-20
-1.09263e-20
-3.12053e-21
-2.99873e-21
-3.94313e-21
-5.4106e-21
-4.25877e-21
-1.81421e-21
-1.52238e-21
-3.77314e-21
-3.89252e-21
-3.38965e-21
-2.93854e-21
-4.93819e-22
-8.7924e-22
-1.38502e-21
-2.2848e-21
-1.46418e-20
-1.44473e-20
-1.49971e-20
-1.54396e-20
-1.79023e-20
-1.73738e-20
-1.74427e-20
-1.786e-20
-1.22488e-20
-1.35623e-20
-1.51931e-20
-1.01913e-20
-9.61336e-21
-1.19513e-20
-1.01909e-20
-1.10382e-20
-6.68595e-21
-1.81707e-21
-2.13602e-21
-6.81619e-21
-6.9436e-21
-1.17021e-20
-1.09573e-20
-1.20904e-20
-6.09489e-21
-3.06157e-21
-3.69557e-21
-5.69432e-21
-4.90212e-21
-2.52547e-21
-6.16664e-21
-3.67585e-21
-1.57516e-22
-5.73717e-21
-6.83466e-21
-1.89258e-21
1.66811e-22
-1.66798e-21
-9.10711e-22
-1.60529e-21
-1.80574e-20
-1.80593e-20
-1.52302e-20
-1.79265e-20
-1.48463e-20
-1.54309e-20
-1.67379e-20
-1.54825e-20
-1.25767e-20
-1.68651e-20
-1.33444e-20
-1.12394e-20
-1.25396e-20
-1.1844e-20
-1.10872e-20
-1.05094e-20
-7.33463e-21
-8.41458e-22
-2.67852e-21
-5.80912e-21
-8.5084e-21
-1.16059e-20
-1.22768e-20
-1.06143e-20
-6.11151e-21
-6.71709e-22
-8.29188e-22
-6.62333e-21
-6.83434e-21
1.70767e-22
-3.32182e-21
-7.65722e-21
-2.95069e-21
-3.67586e-21
-6.67227e-21
-4.34891e-21
-1.32127e-21
1.3544e-23
3.2532e-22
-1.90367e-21
-1.18737e-20
-1.93767e-20
-1.91053e-20
-1.66485e-20
-1.41831e-20
-1.62779e-20
-1.83684e-20
-1.9343e-20
-1.45711e-20
-1.30933e-20
-1.07957e-20
-1.46609e-20
-1.34775e-20
-1.02405e-20
-8.58604e-21
-9.82728e-21
-8.97513e-21
-5.59894e-21
-5.21808e-21
-6.29617e-21
-1.02597e-20
-8.05623e-21
-1.01392e-20
-1.12895e-20
-6.09741e-21
-2.71699e-21
-3.99784e-21
-6.20411e-21
-4.09582e-21
-1.98618e-21
-1.40369e-21
-4.00004e-21
-3.6284e-21
-2.80331e-21
-5.83131e-21
-2.80409e-21
-3.85504e-22
-2.16623e-21
-1.37053e-21
3.36752e-22
-1.28578e-20
-1.47249e-20
-1.99985e-20
-1.62957e-20
-1.63776e-20
-1.5966e-20
-1.62673e-20
-1.79821e-20
-1.45409e-20
-1.10326e-20
-1.44304e-20
-1.31638e-20
-1.34792e-20
-1.06135e-20
-1.18897e-20
-1.18851e-20
-7.99338e-21
-5.89172e-21
-3.81562e-21
-5.6506e-21
-1.03327e-20
-1.24157e-20
-1.16894e-20
-6.95537e-21
-3.95718e-21
-5.43366e-21
-6.04491e-21
-3.71901e-21
-3.18594e-21
-1.4501e-21
-2.30548e-21
-3.19888e-21
-4.41005e-21
-3.96662e-21
-6.96481e-21
-4.95474e-21
1.39831e-21
5.64081e-22
-1.46669e-21
6.90197e-23
-1.37268e-20
-1.37497e-20
-1.76291e-20
-1.36627e-20
-1.41536e-20
-1.62699e-20
-1.86307e-20
-1.91018e-20
-1.55386e-20
-1.38267e-20
-1.12397e-20
-1.56126e-20
-8.48007e-21
-1.11455e-20
-1.25933e-20
-9.60873e-21
-9.06358e-21
-7.35294e-21
-7.97277e-21
-5.70193e-21
-1.22407e-20
-1.08209e-20
-1.17744e-20
-5.46073e-21
-5.8822e-21
-5.92505e-22
-5.1863e-21
-8.273e-21
-7.79141e-22
-3.18136e-21
-2.29208e-21
-4.65348e-21
-5.23288e-21
-1.89283e-21
-2.0729e-21
-3.26411e-21
-1.58761e-21
-6.07472e-22
3.55029e-22
-1.41635e-21
-9.94645e-21
-1.50442e-20
-1.96665e-20
-1.38941e-20
-1.26227e-20
-1.87677e-20
-1.56552e-20
-1.58151e-20
-1.67707e-20
-1.58455e-20
-1.34426e-20
-1.26917e-20
-9.80697e-21
-9.84599e-21
-1.62293e-20
-1.21983e-20
-8.86993e-21
-2.34424e-21
-6.9524e-21
-9.45092e-21
-1.54849e-20
-9.42683e-21
-6.85252e-21
-5.4954e-21
-5.57754e-21
-5.43813e-21
-6.40934e-21
-5.39477e-21
-3.65996e-21
-4.56526e-21
-2.9599e-21
-1.36094e-21
-2.51573e-21
-1.84754e-21
-6.05538e-22
-2.74222e-21
-2.04332e-21
-2.81892e-21
1.59492e-21
-1.40255e-23
-7.83325e-21
-1.18452e-20
-1.67283e-20
-1.55104e-20
-1.61492e-20
-1.61338e-20
-1.49722e-20
-1.45749e-20
-1.63085e-20
-1.61643e-20
-1.26348e-20
-1.29213e-20
-1.07955e-20
-8.0289e-21
-1.41956e-20
-1.46639e-20
-9.53453e-21
-7.51064e-21
-1.08501e-20
-1.10346e-20
-1.19642e-20
-3.26249e-21
-5.91328e-21
-6.26382e-21
-4.28477e-21
-5.45048e-21
-7.75034e-21
-4.62921e-21
-3.36277e-21
-4.99378e-21
-5.82328e-21
-1.30217e-21
-1.65278e-21
-2.31324e-21
-2.08374e-22
-2.38208e-21
-4.766e-22
-1.41855e-21
-2.41682e-21
-2.88755e-21
-4.9096e-21
-1.30766e-20
-1.85296e-20
-1.69365e-20
-1.47571e-20
-1.28091e-20
-1.21843e-20
-1.56712e-20
-1.97722e-20
-1.64599e-20
-1.1847e-20
-1.16197e-20
-1.24262e-20
-1.14858e-20
-1.32819e-20
-1.22316e-20
-7.99869e-21
-6.98545e-21
-1.41167e-20
-9.59908e-21
-1.01557e-20
-7.97817e-21
-5.63866e-21
-6.45398e-21
-2.9193e-21
-2.70105e-21
-1.10005e-20
-8.90872e-21
-7.21431e-21
-1.31409e-21
-1.96368e-21
-1.44919e-21
-2.36104e-21
-1.94338e-21
-2.049e-21
-2.71273e-21
-2.20227e-21
-1.10192e-21
-2.39097e-21
-2.48028e-21
-9.5956e-21
-1.24646e-20
-1.62661e-20
-1.54999e-20
-1.06351e-20
-1.29987e-20
-1.54149e-20
-1.52828e-20
-1.68662e-20
-1.65399e-20
-1.65896e-20
-1.44696e-20
-1.03891e-20
-1.38599e-20
-1.36594e-20
-6.69495e-21
-7.02167e-21
-5.48479e-21
-1.36373e-20
-1.047e-20
-9.64716e-21
-5.60717e-21
-6.03675e-21
-8.79091e-21
-7.79819e-21
-3.55888e-21
-7.26217e-21
-6.33181e-21
-5.60608e-21
-2.91683e-21
-3.91786e-21
-1.18087e-21
-3.84159e-21
-1.55758e-21
-2.29016e-21
-4.38543e-21
-5.36173e-22
-1.91355e-21
-1.91502e-21
-2.26669e-21
-1.74173e-20
-1.52291e-20
-1.40558e-20
-1.44851e-20
-1.38018e-20
-1.19537e-20
-1.50818e-20
-1.40765e-20
-1.57804e-20
-1.58824e-20
-1.56503e-20
-1.61023e-20
-1.38966e-20
-1.6301e-20
-1.13912e-20
-8.39624e-21
-7.18917e-21
-6.29e-21
-9.90573e-21
-1.03714e-20
-1.05066e-20
-3.21429e-21
-7.29961e-21
-8.06564e-21
-7.81005e-21
-5.506e-21
-6.52867e-21
-8.99323e-21
-4.67764e-21
-1.30813e-21
-3.70809e-21
-1.29019e-21
-1.2088e-21
-2.79178e-21
-5.12787e-21
-5.45118e-21
-8.17729e-22
-1.80088e-21
-4.97849e-22
1.95257e-22
-1.81642e-20
-1.7658e-20
-1.3419e-20
-1.39135e-20
-1.44681e-20
-1.65463e-20
-1.43976e-20
-1.24456e-20
-1.75661e-20
-1.25129e-20
-1.52625e-20
-1.72174e-20
-1.39839e-20
-1.13691e-20
-1.05691e-20
-8.36681e-21
-5.29792e-21
-3.97702e-21
-6.84325e-21
-1.13133e-20
-1.14278e-20
-5.67767e-21
-8.22107e-21
-8.79651e-21
-9.36519e-21
-9.18686e-21
-6.77985e-21
-6.70301e-21
-3.55683e-21
-1.54e-21
-3.08299e-21
-4.20107e-21
-7.94414e-22
-6.08819e-22
-8.33141e-21
-4.11692e-21
-1.6577e-21
-1.81044e-22
-1.34131e-21
-9.89962e-22
-1.40313e-20
-1.50625e-20
-1.71058e-20
-1.34406e-20
-1.41471e-20
-1.57074e-20
-1.5945e-20
-1.66493e-20
-1.32048e-20
-1.46525e-20
-1.65239e-20
-1.66273e-20
-9.04717e-21
-1.4027e-20
-1.47006e-20
-8.30723e-21
-3.98358e-21
-4.03008e-21
-8.48017e-21
-6.69167e-21
-7.701e-21
-9.57343e-21
-1.10087e-20
-8.89468e-21
-1.08376e-20
-4.88837e-21
-6.68035e-21
-8.25425e-21
-1.63156e-21
-2.86465e-21
-6.54394e-21
-5.79187e-21
1.37116e-22
-5.18493e-21
-7.61954e-21
-4.69522e-21
-3.07929e-21
9.85198e-22
-2.1455e-21
-3.34883e-21
-9.55696e-21
-1.39907e-20
-1.63243e-20
-1.54164e-20
-1.30655e-20
-1.63725e-20
-1.55406e-20
-1.51135e-20
-1.1542e-20
-1.53904e-20
-1.87792e-20
-1.50137e-20
-7.69892e-21
-1.07148e-20
-1.1637e-20
-7.11555e-21
-6.75627e-21
-9.77055e-21
-7.43826e-21
-7.29822e-21
-8.02927e-21
-1.0148e-20
-7.98889e-21
-8.16846e-21
-1.08878e-20
-7.44149e-21
-4.94815e-21
-5.07903e-21
-4.90138e-21
-4.24795e-21
-3.67812e-21
-4.91006e-21
-2.77764e-21
-3.97047e-21
-8.62292e-21
-5.03251e-21
-2.04341e-21
-7.04356e-22
-1.25321e-21
-1.90543e-21
-1.26663e-20
-1.56807e-20
-1.77007e-20
-1.25007e-20
-1.26635e-20
-1.50411e-20
-1.53105e-20
-1.78701e-20
-9.98366e-21
-1.22555e-20
-1.98543e-20
-1.66688e-20
-1.07624e-20
-1.13453e-20
-7.18969e-21
-8.00616e-21
-8.58837e-21
-6.01619e-21
-4.58585e-21
-8.13643e-21
-8.64027e-21
-1.24056e-20
-1.05086e-20
-1.07018e-20
-8.84825e-21
-7.48126e-21
-5.34506e-21
-7.85956e-21
-5.51143e-21
-2.23632e-21
-3.16412e-21
-4.17636e-21
-1.2006e-21
-1.97974e-21
-5.4224e-21
-7.41173e-21
-3.36851e-21
-2.1575e-21
-9.07763e-22
-9.14753e-22
-1.09527e-20
-1.36692e-20
-1.52699e-20
-1.68391e-20
-1.60574e-20
-1.6749e-20
-1.4029e-20
-1.1914e-20
-1.12445e-20
-1.21022e-20
-1.76021e-20
-1.58441e-20
-9.51113e-21
-1.12113e-20
-1.02607e-20
-1.19998e-20
-8.1881e-21
-6.32175e-21
-1.70642e-21
-4.06178e-21
-7.74429e-21
-1.34751e-20
-1.02968e-20
-8.28488e-21
-8.89444e-21
-8.51449e-21
-3.4922e-21
-3.21565e-21
-7.66847e-21
-3.80204e-21
-1.87479e-21
-6.58283e-21
-4.9586e-21
-2.34717e-21
-5.68966e-21
-3.85289e-21
-3.97836e-21
-2.97486e-21
-1.34083e-21
-2.10696e-21
-9.1505e-21
-1.34633e-20
-1.47538e-20
-1.59587e-20
-1.40387e-20
-1.54781e-20
-1.42358e-20
-1.2745e-20
-1.25143e-20
-1.32846e-20
-1.68169e-20
-1.04417e-20
-1.06297e-20
-1.10681e-20
-9.46989e-21
-7.56324e-21
-9.85065e-21
-7.33745e-21
-6.53975e-21
-6.81332e-21
-8.56876e-21
-7.25673e-21
-9.7664e-21
-9.62249e-21
-6.8478e-21
-6.04964e-21
-5.9265e-21
-4.30488e-21
-5.41112e-21
-3.23591e-21
-4.10746e-21
-5.13909e-21
-6.90658e-21
-7.12615e-21
-4.57318e-21
-3.90419e-21
-2.784e-21
-3.63256e-21
-1.65915e-21
-1.67833e-21
-1.22555e-20
-1.81485e-20
-1.49212e-20
-1.15058e-20
-1.58811e-20
-1.74073e-20
-1.50359e-20
-1.23505e-20
-1.30737e-20
-1.34265e-20
-1.39289e-20
-1.0937e-20
-1.21079e-20
-9.11608e-21
-1.22342e-20
-6.19643e-21
-7.76186e-21
-4.89887e-21
-6.97711e-21
-5.8421e-21
-9.52484e-21
-8.41615e-21
-7.67342e-21
-8.45261e-21
-9.56118e-21
-4.13064e-21
-4.88061e-21
-5.97108e-21
-3.08126e-21
-5.25602e-21
-4.01967e-21
-5.14305e-21
-7.52629e-21
-4.97709e-21
-7.33734e-21
-4.16145e-21
-2.35123e-21
-4.89623e-21
-1.19585e-21
-1.24098e-23
-1.11407e-20
-1.56342e-20
-1.81789e-20
-1.32892e-20
-1.24319e-20
-1.85881e-20
-1.51964e-20
-8.25752e-21
-1.18102e-20
-1.69762e-20
-1.24617e-20
-1.25174e-20
-1.42105e-20
-1.03285e-20
-9.90229e-21
-8.6052e-21
-6.13511e-21
-9.30669e-21
-5.5733e-21
-4.63285e-21
-6.9299e-21
-9.5834e-21
-1.01227e-20
-9.53714e-21
-1.00799e-20
-6.46136e-21
-5.14607e-21
-7.35318e-22
-3.43871e-21
-4.0795e-21
-4.71328e-21
-7.17338e-21
-3.84106e-21
-3.82563e-21
-6.15232e-21
-7.60597e-21
-2.26846e-21
-1.82748e-21
-9.92759e-22
-1.42876e-22
-1.30621e-20
-1.33415e-20
-1.44275e-20
-1.46219e-20
-1.50514e-20
-1.48906e-20
-1.49816e-20
-1.34902e-20
-1.20741e-20
-1.2956e-20
-1.19215e-20
-1.0868e-20
-1.27278e-20
-1.28233e-20
-1.0428e-20
-1.00554e-20
-5.52557e-21
-7.61473e-21
-3.37992e-21
-6.30191e-21
-6.13173e-21
-7.90879e-21
-1.07035e-20
-1.33436e-20
-9.69392e-21
-6.10501e-21
-3.62374e-21
-4.79498e-21
-5.57227e-21
-3.09307e-21
-4.21501e-21
-4.28125e-21
-2.1522e-21
-2.51868e-21
-3.94152e-21
-6.45816e-21
-2.38128e-21
-2.0965e-21
-2.58855e-21
-2.75714e-21
-1.6906e-20
-1.45174e-20
-1.29797e-20
-1.44402e-20
-1.81765e-20
-1.65448e-20
-1.41432e-20
-1.29198e-20
-1.33787e-20
-1.10418e-20
-9.15119e-21
-1.22776e-20
-1.49543e-20
-1.22696e-20
-9.38495e-21
-9.73505e-21
-5.96194e-21
-4.43304e-21
-2.56795e-21
-5.35213e-21
-6.07761e-21
-9.6888e-21
-1.59339e-20
-1.0483e-20
-8.22697e-21
-8.54504e-21
-4.17684e-21
-2.62371e-21
-2.79846e-21
-5.99721e-21
-5.03242e-21
-7.29294e-21
8.17354e-22
-2.03954e-21
-5.21988e-21
-1.59804e-21
-1.87904e-21
-8.68835e-22
-2.50371e-21
-3.48371e-21
-1.09152e-20
-1.16936e-20
-1.39399e-20
-1.24317e-20
-1.88852e-20
-1.54876e-20
-1.36606e-20
-1.38288e-20
-1.26849e-20
-1.18987e-20
-1.18291e-20
-1.03829e-20
-1.18076e-20
-9.5378e-21
-7.26737e-21
-1.06882e-20
-8.29906e-21
-6.12302e-21
-4.40326e-21
-1.31771e-21
-6.99648e-21
-1.25188e-20
-1.17494e-20
-1.03964e-20
-1.0841e-20
-9.27333e-21
-3.12012e-22
-2.70383e-21
-5.57995e-21
-4.72936e-21
-4.46206e-21
-5.02272e-21
-3.34394e-23
-1.24187e-21
-2.04165e-21
-3.06448e-21
-1.4687e-21
-4.34787e-21
-1.76798e-21
-1.12037e-21
-1.22976e-20
-1.29493e-20
-1.3674e-20
-1.47064e-20
-1.57815e-20
-1.08615e-20
-1.29877e-20
-1.21552e-20
-1.25918e-20
-1.10785e-20
-1.08722e-20
-1.38695e-20
-1.05856e-20
-7.0585e-21
-8.05923e-21
-1.15287e-20
-1.03561e-20
-5.85999e-21
-5.53527e-21
-5.2253e-21
-4.67912e-21
-7.93024e-21
-1.25049e-20
-1.11743e-20
-8.39489e-21
-7.85515e-21
-4.71237e-21
-3.92494e-21
-3.19067e-21
-5.45221e-21
-4.84444e-21
-4.26156e-21
-4.6834e-22
7.21845e-22
9.71848e-22
-3.80541e-21
-1.52904e-21
9.41247e-22
-4.30441e-21
-3.3148e-21
-1.39287e-20
-1.08552e-20
-1.09847e-20
-1.09889e-20
-1.40778e-20
-1.44957e-20
-1.3511e-20
-1.55991e-20
-1.34186e-20
-1.08506e-20
-5.9171e-21
-1.18102e-20
-6.11783e-21
-6.07069e-21
-9.46592e-21
-1.16474e-20
-1.31008e-20
-6.44703e-21
-4.83233e-21
-5.60813e-21
-3.98082e-21
-9.03884e-21
-1.05087e-20
-9.40169e-21
-1.01742e-20
-6.8169e-21
-5.86808e-21
-9.15792e-21
-3.13094e-21
-4.32701e-21
-5.59516e-21
-3.57864e-21
-2.68131e-21
-1.46498e-21
7.8265e-22
1.70948e-21
-2.90965e-21
1.65938e-22
8.42974e-22
-4.90998e-22
-8.24255e-21
-1.07337e-20
-1.29261e-20
-1.05536e-20
-1.16693e-20
-1.37255e-20
-1.09762e-20
-1.23011e-20
-1.26506e-20
-1.25902e-20
-9.6916e-21
-6.77396e-21
-8.19349e-21
-8.09935e-21
-9.26334e-21
-9.29579e-21
-8.39093e-21
-6.12915e-21
-6.25915e-21
-6.47079e-21
-3.99738e-21
-7.38882e-21
-1.04648e-20
-1.14261e-20
-9.14606e-21
-6.33354e-21
-3.76836e-21
-4.38365e-21
-5.67461e-21
-2.79542e-21
-5.3911e-21
-3.95783e-21
-2.5082e-21
-2.09317e-21
-2.9535e-21
-3.62763e-22
8.52294e-22
5.73523e-22
1.13565e-21
-7.98774e-22
-6.73736e-21
-8.93518e-21
-1.15239e-20
-1.31722e-20
-9.83056e-21
-1.16034e-20
-1.19515e-20
-1.02016e-20
-8.66491e-21
-1.10898e-20
-9.61058e-21
-7.26466e-21
-1.00994e-20
-7.01177e-21
-8.94703e-21
-9.74738e-21
-6.69649e-21
-1.58492e-21
-3.30501e-21
-9.29044e-21
-3.57595e-21
-1.01965e-20
-1.20018e-20
-9.51809e-21
-8.15854e-21
-8.03501e-21
-7.42506e-21
-4.38691e-22
-3.94773e-21
-2.53774e-21
-5.20029e-21
-3.57786e-21
-4.77071e-21
-2.20339e-21
-1.422e-21
-6.89715e-22
1.38768e-21
-1.65248e-21
-1.05588e-21
-7.76013e-22
-4.57783e-21
-9.14327e-21
-1.19577e-20
-8.1286e-21
-8.41506e-21
-1.17208e-20
-9.97101e-21
-1.02237e-20
-9.13699e-21
-1.00284e-20
-6.25209e-21
-9.06952e-21
-8.91683e-21
-9.39047e-21
-7.37376e-21
-4.64838e-21
-4.02078e-21
-5.01347e-21
-4.16934e-21
-9.89239e-21
-6.95431e-21
-8.65626e-21
-1.24743e-20
-1.28697e-20
-4.47426e-21
-4.84564e-21
-5.68201e-21
-4.37344e-21
-3.69128e-22
-3.20602e-21
-5.18023e-21
-4.62732e-21
-6.51862e-21
-2.25886e-21
-1.94855e-21
-3.62313e-21
2.24376e-21
4.13681e-21
-9.64609e-22
-1.66015e-21
-6.02887e-21
-9.00351e-21
-1.00402e-20
-6.54795e-21
-5.75368e-21
-1.38325e-20
-1.00071e-20
-6.94035e-21
-8.77521e-21
-9.35594e-21
-6.63818e-21
-7.09175e-21
-7.29549e-21
-7.92998e-21
-8.57373e-21
-8.23981e-21
-1.52688e-21
-1.79787e-21
-5.62571e-21
-6.23213e-21
-3.4739e-21
-7.39944e-21
-1.0365e-20
-1.21878e-20
-7.895e-21
-5.17973e-21
-4.83581e-21
-3.75319e-22
-3.1423e-21
-3.23148e-21
-3.03744e-21
-4.43868e-21
-4.35383e-21
-1.53958e-21
-1.20917e-21
-5.11719e-21
5.48246e-22
2.36898e-21
-5.53765e-22
-1.95426e-22
-6.5297e-21
-5.42269e-21
-6.63782e-21
-3.55479e-21
-4.37456e-21
-2.82721e-21
-8.27352e-21
-4.85626e-21
-6.47327e-21
-6.13456e-21
-2.45535e-21
-2.59978e-21
-6.11967e-21
-5.73722e-21
-3.02432e-21
-5.32861e-21
-1.33266e-21
1.06646e-21
-5.8376e-21
-1.8024e-21
-4.78362e-21
-9.15644e-21
-6.78353e-21
-6.00771e-21
-2.7519e-21
-3.50001e-21
-3.18834e-21
-1.15547e-21
-8.85308e-22
2.52036e-22
-1.15594e-21
-1.50474e-21
-2.58301e-21
-2.15369e-21
4.56759e-22
-3.25688e-21
-8.61687e-22
-1.75797e-21
-3.44711e-21
5.12969e-24
-5.76888e-21
-9.17393e-21
-1.34823e-20
-1.01145e-20
-1.0216e-20
-1.26523e-20
-8.94193e-21
-5.58044e-21
-1.23051e-20
-1.07149e-20
-6.61276e-21
-1.11152e-20
-1.03776e-20
-6.1599e-21
-7.94662e-21
-1.02709e-20
-6.58428e-21
-7.64581e-22
-3.08987e-21
-5.88258e-21
-4.27159e-21
-5.418e-21
-6.41274e-21
-5.1129e-21
-2.2746e-21
-1.5209e-21
-2.05465e-21
-3.50785e-21
-6.24369e-21
-3.75843e-21
-3.57592e-21
-2.31145e-21
-4.0831e-21
-1.66943e-21
-4.4266e-21
-4.18209e-21
8.66735e-22
-3.60655e-21
-1.9394e-21
-9.13767e-22
-1.06455e-20
-1.38813e-20
-1.89917e-20
-1.49429e-20
-1.35713e-20
-1.71571e-20
-1.52062e-20
-1.14204e-20
-1.04636e-20
-1.75083e-20
-1.49671e-20
-1.33873e-20
-1.26113e-20
-9.94583e-21
-1.18493e-20
-1.12491e-20
-8.53028e-21
-6.85113e-21
-8.62954e-21
-7.42165e-21
-7.2088e-21
-7.21271e-21
-9.08703e-21
-1.02413e-20
-4.30889e-21
-3.8092e-21
-5.0854e-21
-4.64096e-21
-8.11473e-21
-3.4348e-21
-3.34621e-21
-3.26421e-21
-4.54914e-21
-3.18996e-21
-6.83899e-21
-3.17281e-21
9.90056e-22
1.3495e-21
6.73934e-23
3.93406e-22
-1.20204e-20
-1.4137e-20
-1.44949e-20
-1.59827e-20
-1.62676e-20
-2.01246e-20
-1.60361e-20
-1.49358e-20
-1.42648e-20
-1.37414e-20
-1.34782e-20
-1.42183e-20
-1.20613e-20
-1.12129e-20
-1.22761e-20
-1.13983e-20
-1.04803e-20
-8.44909e-21
-7.69724e-21
-7.05257e-21
-7.68788e-21
-5.89231e-21
-6.52688e-21
-8.33624e-21
-7.47198e-21
-4.47276e-21
-6.29629e-21
-8.17663e-21
-3.9702e-21
-6.62688e-21
-7.20533e-21
-2.76684e-21
-3.28238e-21
-3.72835e-21
-3.57544e-21
-3.11731e-21
1.57883e-22
-8.59837e-22
-6.24126e-23
5.18282e-22
-1.62116e-20
-1.61494e-20
-1.7832e-20
-1.78472e-20
-1.69889e-20
-1.85524e-20
-1.80769e-20
-1.43469e-20
-1.4212e-20
-1.44781e-20
-1.52037e-20
-1.7714e-20
-1.08649e-20
-1.18272e-20
-1.37906e-20
-1.15507e-20
-1.06638e-20
-1.04931e-20
-8.54765e-21
-4.79406e-21
-9.19712e-21
-1.00804e-20
-8.57905e-21
-8.21861e-21
-6.42647e-21
-5.17406e-21
-6.58034e-21
-5.81309e-21
-5.44954e-21
-7.5835e-21
-5.96898e-21
-4.01772e-22
-5.92853e-21
-3.83575e-21
-3.81593e-21
-2.10587e-21
-4.59487e-22
-1.22052e-21
-7.67096e-22
-1.79315e-22
-1.82449e-20
-1.66249e-20
-1.5739e-20
-1.9264e-20
-2.09969e-20
-2.21553e-20
-1.77848e-20
-1.37742e-20
-1.23516e-20
-1.58645e-20
-1.50412e-20
-1.58758e-20
-1.14622e-20
-1.35303e-20
-1.75229e-20
-1.53139e-20
-1.10596e-20
-1.02905e-20
-8.24711e-21
-6.41956e-21
-9.27391e-21
-9.35023e-21
-8.9826e-21
-9.4639e-21
-8.18023e-21
-4.40844e-21
-5.90605e-21
-6.24977e-21
-6.5567e-21
-5.38931e-21
-5.51811e-21
-3.77602e-21
-2.6214e-21
-2.12447e-21
-2.62784e-21
-2.37342e-21
-8.0342e-22
-1.37969e-21
1.51717e-22
-5.45425e-22
-1.6267e-20
-1.69897e-20
-1.67169e-20
-1.90295e-20
-2.15311e-20
-2.29179e-20
-1.65025e-20
-1.88059e-20
-1.72937e-20
-1.56635e-20
-1.42666e-20
-1.67308e-20
-1.37963e-20
-1.31226e-20
-1.67362e-20
-1.3938e-20
-1.28599e-20
-8.62498e-21
-8.36579e-21
-7.0396e-21
-9.2631e-21
-1.13039e-20
-9.28133e-21
-9.16911e-21
-8.1587e-21
-5.58853e-21
-5.56591e-21
-5.96001e-21
-6.87322e-21
-5.90698e-21
-5.08727e-21
-3.21204e-21
-7.64521e-22
-2.5047e-21
-3.28545e-21
-2.20031e-21
-1.3521e-22
1.27471e-21
3.04137e-21
-1.59798e-21
-1.95042e-20
-2.17076e-20
-1.71957e-20
-1.94723e-20
-2.22214e-20
-2.11548e-20
-1.84875e-20
-1.80622e-20
-2.02192e-20
-1.91089e-20
-1.46209e-20
-1.55016e-20
-1.44649e-20
-1.4863e-20
-1.60665e-20
-1.45098e-20
-9.68872e-21
-7.41189e-21
-8.83404e-21
-8.51683e-21
-1.02865e-20
-1.21457e-20
-1.04172e-20
-1.02585e-20
-6.99167e-21
-5.90483e-21
-6.13968e-21
-5.47933e-21
-5.13015e-21
-4.43483e-21
-6.38554e-21
-3.75953e-21
9.26924e-22
6.3314e-23
-4.11663e-21
-4.58004e-21
-5.57932e-22
1.68688e-23
5.99769e-22
-2.02792e-21
-1.75349e-20
-1.96661e-20
-1.76056e-20
-1.90501e-20
-2.3092e-20
-2.32843e-20
-1.74343e-20
-1.97861e-20
-2.13144e-20
-1.90423e-20
-1.65043e-20
-1.70662e-20
-1.41233e-20
-1.27394e-20
-1.72714e-20
-1.63009e-20
-1.09759e-20
-7.07104e-21
-2.65897e-21
-4.55471e-21
-1.00968e-20
-1.52243e-20
-1.20282e-20
-1.13132e-20
-8.3755e-21
-5.2473e-21
-5.44501e-21
-7.51917e-21
-3.09697e-21
-4.17582e-21
-7.38879e-21
-3.41451e-21
-3.15444e-21
-3.02531e-21
-3.3713e-21
-5.29697e-22
8.14095e-22
2.25332e-22
-1.15397e-21
-2.22801e-22
-1.96373e-20
-2.3298e-20
-2.1326e-20
-2.16364e-20
-2.097e-20
-2.09395e-20
-1.96486e-20
-2.01475e-20
-2.03196e-20
-1.92585e-20
-1.64643e-20
-1.92908e-20
-1.36882e-20
-1.37171e-20
-1.51379e-20
-1.37654e-20
-1.17249e-20
-6.40787e-21
-7.30276e-21
-8.54148e-21
-7.60941e-21
-1.34984e-20
-1.29897e-20
-1.22813e-20
-7.25774e-21
-6.14789e-21
-5.27935e-21
-6.81096e-21
-3.26432e-21
-4.87507e-21
-6.15663e-21
-3.92745e-21
-2.51877e-21
-1.7709e-21
-1.8963e-21
-5.27677e-22
-6.90115e-22
1.11709e-23
-3.8499e-22
-6.85202e-22
-1.73239e-20
-1.9618e-20
-1.94705e-20
-2.31188e-20
-2.38834e-20
-2.18397e-20
-2.35825e-20
-2.04679e-20
-1.69012e-20
-1.83271e-20
-1.81843e-20
-1.66153e-20
-1.586e-20
-1.48851e-20
-1.61744e-20
-1.34495e-20
-1.00744e-20
-7.02385e-21
-6.47149e-21
-5.41958e-21
-1.00934e-20
-1.43759e-20
-1.46737e-20
-1.41753e-20
-8.35083e-21
-5.74449e-21
-3.69132e-21
-5.10488e-21
-5.92238e-21
-5.8811e-21
-3.57651e-21
-3.41341e-21
-3.91997e-21
-2.89171e-21
-2.58843e-21
-8.08503e-22
5.18642e-22
1.73315e-22
-1.61456e-21
-6.73743e-22
-2.3212e-20
-2.40271e-20
-2.13983e-20
-2.15328e-20
-2.15663e-20
-2.18168e-20
-2.23997e-20
-2.37065e-20
-2.03297e-20
-1.88562e-20
-1.55704e-20
-1.35239e-20
-1.46779e-20
-1.25154e-20
-1.55958e-20
-1.46308e-20
-1.05036e-20
-6.56054e-21
-6.09795e-21
-8.18704e-21
-1.23181e-20
-1.24706e-20
-1.43336e-20
-1.59538e-20
-7.90544e-21
-3.36922e-21
-4.35199e-21
-8.06496e-21
-5.17732e-21
-5.13895e-21
-4.25018e-21
-2.99132e-21
-1.46513e-21
-3.52103e-21
-2.21369e-21
-7.59499e-22
-1.60771e-21
-1.52196e-21
-2.06064e-21
-2.56478e-21
-2.22635e-20
-2.46375e-20
-2.04373e-20
-2.07905e-20
-2.25519e-20
-2.28898e-20
-2.32707e-20
-2.36069e-20
-1.65905e-20
-2.07551e-20
-1.6916e-20
-1.38293e-20
-1.69143e-20
-1.38066e-20
-1.38902e-20
-1.49871e-20
-1.31892e-20
-5.24232e-21
-5.18759e-21
-7.91318e-21
-1.20367e-20
-1.36423e-20
-1.33078e-20
-1.23849e-20
-8.39739e-21
-8.05844e-21
-6.04402e-21
-5.126e-21
-2.11242e-21
-7.07868e-21
-5.57797e-21
-3.48229e-21
-1.36123e-21
-2.61522e-21
-3.21444e-21
-2.2312e-21
6.63249e-22
-1.25023e-21
-2.07416e-21
5.89372e-23
-2.34775e-20
-2.33336e-20
-2.14947e-20
-2.31203e-20
-2.29572e-20
-2.45264e-20
-2.15463e-20
-2.08218e-20
-1.92946e-20
-1.88145e-20
-1.62037e-20
-1.72681e-20
-1.6943e-20
-1.40385e-20
-1.42113e-20
-1.27694e-20
-9.62849e-21
-5.80949e-21
-8.30508e-21
-1.15106e-20
-8.67721e-21
-1.15952e-20
-1.42791e-20
-1.36403e-20
-9.59754e-21
-5.49573e-21
-5.94041e-21
-4.32456e-21
-3.55553e-21
-4.507e-21
-5.88275e-21
-5.72912e-21
-2.27234e-21
-2.14164e-21
-8.45373e-21
8.23306e-23
1.37936e-21
-3.89405e-21
-2.53668e-21
-3.74304e-23
-2.59499e-20
-2.51871e-20
-2.23957e-20
-2.40313e-20
-2.28394e-20
-2.17441e-20
-2.25067e-20
-1.91495e-20
-1.93e-20
-2.16729e-20
-1.80878e-20
-1.55783e-20
-1.73243e-20
-1.24829e-20
-1.42452e-20
-1.36485e-20
-1.45327e-20
-8.2312e-21
-5.21741e-21
-7.3364e-21
-1.18378e-20
-1.27603e-20
-1.29931e-20
-1.53483e-20
-8.1288e-21
-4.71607e-21
-4.78634e-21
-6.35734e-21
-6.2483e-21
-3.26995e-21
-5.85856e-21
-5.02792e-21
-2.74784e-21
-4.75638e-21
-6.58715e-21
-2.50228e-21
-8.8825e-22
2.83094e-21
-9.84446e-22
-5.33527e-22
-2.75806e-20
-2.50548e-20
-2.12463e-20
-2.24828e-20
-2.36894e-20
-2.13048e-20
-2.19696e-20
-1.88971e-20
-1.94125e-20
-1.95675e-20
-1.79327e-20
-1.73045e-20
-1.80516e-20
-1.46892e-20
-1.38376e-20
-1.21571e-20
-1.18077e-20
-9.56175e-21
-9.5058e-21
-1.10726e-20
-9.54869e-21
-1.29897e-20
-1.46703e-20
-1.2797e-20
-8.19448e-21
-6.77449e-21
-5.78243e-21
-5.91214e-21
-5.98561e-21
-2.96005e-21
-5.17194e-21
-4.57398e-21
-3.68478e-21
-2.10774e-21
-5.29726e-21
-4.30338e-21
1.36572e-21
1.10119e-22
-1.51498e-21
-4.2037e-22
-2.31644e-20
-2.4287e-20
-2.5333e-20
-2.42622e-20
-2.36647e-20
-2.15519e-20
-2.08687e-20
-2.00379e-20
-1.91908e-20
-1.71806e-20
-1.79094e-20
-1.8477e-20
-1.88526e-20
-1.4963e-20
-1.44982e-20
-1.14483e-20
-1.17412e-20
-1.06997e-20
-8.70662e-21
-8.72618e-21
-1.24712e-20
-1.41782e-20
-1.4001e-20
-1.0017e-20
-7.33859e-21
-8.0202e-21
-6.06043e-21
-5.8791e-21
-6.26749e-21
-4.27514e-21
-3.47812e-21
-4.60932e-21
-3.9278e-21
-3.18122e-21
-4.51897e-21
-2.62445e-21
-1.97497e-22
-1.35796e-21
-1.09829e-21
-1.11047e-21
-2.07709e-20
-2.19576e-20
-2.42312e-20
-2.12645e-20
-2.52763e-20
-2.19888e-20
-2.15229e-20
-2.24383e-20
-2.0986e-20
-1.66035e-20
-1.72498e-20
-1.92562e-20
-1.76899e-20
-1.63857e-20
-1.47301e-20
-1.18617e-20
-1.10511e-20
-8.57215e-21
-1.25383e-20
-1.14557e-20
-1.38164e-20
-1.12108e-20
-1.07005e-20
-8.38482e-21
-8.21819e-21