/*--------------------------------*- C++ -*----------------------------------*\
| =========                 |                                                 |
| \\      /  F ield         | OpenFOAM: The Open Source CFD Toolbox           |
|  \\    /   O peration     | Version:  v2012                                 |
|   \\  /    A nd           | Website:  www.openfoam.com                      |
|    \\/     M anipulation  |                                                 |
\*---------------------------------------------------------------------------*/
FoamFile
{
    version     2.0;
    format      ascii;
    class       volVectorField;
    location    "44";
    object      U;
}
// * * * * * * * * * * * * * * * * * * * * * * * * * * * * * * * * * * * * * //

dimensions      [0 1 -1 0 0 0 0];


internalField   nonuniform List<vector> 
64000
(
(0.003 2.74365e-19 2.63971e-19)
(0.003 4.81828e-19 4.36461e-19)
(0.003 5.29218e-19 5.50756e-19)
(0.003 5.49689e-19 6.23984e-19)
(0.003 6.4752e-19 6.312e-19)
(0.003 6.20851e-19 5.6833e-19)
(0.003 5.61624e-19 5.43316e-19)
(0.003 4.22877e-19 4.91889e-19)
(0.003 3.96477e-19 5.56164e-19)
(0.003 6.20404e-19 4.92133e-19)
(0.003 6.26728e-19 4.0166e-19)
(0.003 5.69515e-19 5.86303e-19)
(0.003 5.03305e-19 5.37565e-19)
(0.003 4.8323e-19 4.1928e-19)
(0.003 4.14205e-19 4.76228e-19)
(0.003 3.53755e-19 4.88966e-19)
(0.003 2.85674e-19 3.55819e-19)
(0.003 1.4882e-19 1.93064e-19)
(0.003 1.57027e-19 1.81385e-19)
(0.003 2.42391e-19 2.82489e-19)
(0.003 1.38317e-19 2.58755e-19)
(0.003 2.35968e-19 2.87928e-19)
(0.003 3.86596e-19 3.24253e-19)
(0.003 4.64192e-19 2.54285e-19)
(0.003 3.72519e-19 1.65108e-19)
(0.003 2.3933e-19 1.52384e-19)
(0.003 1.6524e-19 1.78815e-19)
(0.003 2.71699e-19 2.30676e-19)
(0.003 2.86925e-19 2.53938e-19)
(0.003 1.34618e-19 2.60667e-19)
(0.003 1.79122e-20 2.16753e-19)
(0.003 5.38574e-20 1.63046e-19)
(0.003 1.9085e-19 1.7923e-19)
(0.003 1.40981e-19 1.3689e-19)
(0.003 8.64171e-20 1.6055e-19)
(0.003 6.19741e-20 1.74793e-19)
(0.003 -3.27034e-20 6.04676e-20)
(0.003 -5.65889e-20 1.67593e-19)
(0.003 -6.51117e-20 2.5167e-19)
(0.003 -4.20424e-20 1.49869e-19)
(0.003 2.47749e-19 4.47249e-19)
(0.003 4.11078e-19 9.08017e-19)
(0.003 6.70843e-19 1.17299e-18)
(0.003 6.35192e-19 1.14975e-18)
(0.003 5.37899e-19 1.14231e-18)
(0.003 7.07188e-19 1.22027e-18)
(0.003 7.32095e-19 1.21269e-18)
(0.003 6.56426e-19 9.97977e-19)
(0.003 5.71229e-19 8.86455e-19)
(0.003 5.58454e-19 1.15375e-18)
(0.003 5.6617e-19 1.15724e-18)
(0.003 5.28935e-19 1.05365e-18)
(0.003 4.58665e-19 9.5239e-19)
(0.003 3.61085e-19 8.73497e-19)
(0.003 2.9293e-19 8.71956e-19)
(0.003 2.47127e-19 8.48979e-19)
(0.003 4.69129e-19 7.43982e-19)
(0.003 4.25403e-19 6.00825e-19)
(0.003 2.40412e-19 5.46901e-19)
(0.003 1.487e-19 5.51611e-19)
(0.003 2.66435e-19 5.18878e-19)
(0.003 3.62772e-19 5.67656e-19)
(0.003 3.4871e-19 6.06124e-19)
(0.003 3.9676e-19 6.44967e-19)
(0.003 3.26327e-19 5.19138e-19)
(0.003 3.04385e-19 4.17842e-19)
(0.003 3.507e-19 4.02536e-19)
(0.003 2.48233e-19 4.58762e-19)
(0.003 2.16928e-19 5.34766e-19)
(0.003 2.16054e-19 3.76131e-19)
(0.003 1.34547e-19 2.43847e-19)
(0.003 9.29764e-20 2.3637e-19)
(0.003 1.1806e-19 3.16101e-19)
(0.003 7.94673e-20 2.48545e-19)
(0.003 1.77539e-20 2.70272e-19)
(0.003 -1.07704e-19 2.3362e-19)
(0.003 -5.05391e-20 2.63185e-20)
(0.003 -4.49284e-20 5.83092e-20)
(0.003 -8.22416e-20 1.28509e-19)
(0.003 -9.92831e-20 9.97693e-20)
(0.003 1.82351e-19 5.58447e-19)
(0.003 2.2766e-19 9.8575e-19)
(0.003 3.12471e-19 1.24551e-18)
(0.003 4.77766e-19 1.34566e-18)
(0.003 4.48094e-19 1.3393e-18)
(0.003 5.97149e-19 1.40698e-18)
(0.003 6.93826e-19 1.4501e-18)
(0.003 5.84883e-19 1.38121e-18)
(0.003 5.84256e-19 1.27726e-18)
(0.003 4.51291e-19 1.23873e-18)
(0.003 4.04766e-19 1.17852e-18)
(0.003 3.73122e-19 1.16498e-18)
(0.003 3.86267e-19 1.07348e-18)
(0.003 3.21922e-19 1.02179e-18)
(0.003 3.13819e-19 9.82879e-19)
(0.003 2.82532e-19 9.1609e-19)
(0.003 3.62629e-19 9.21824e-19)
(0.003 5.09571e-19 8.27195e-19)
(0.003 2.60861e-19 6.57557e-19)
(0.003 1.12425e-19 5.57678e-19)
(0.003 2.83571e-19 6.4482e-19)
(0.003 3.14467e-19 6.79441e-19)
(0.003 3.4708e-19 6.5135e-19)
(0.003 2.62001e-19 6.57232e-19)
(0.003 3.14952e-19 5.68983e-19)
(0.003 2.48094e-19 5.38669e-19)
(0.003 2.25204e-19 5.44448e-19)
(0.003 1.13352e-19 5.8891e-19)
(0.003 1.47005e-19 5.38473e-19)
(0.003 2.34032e-19 5.00806e-19)
(0.003 2.09337e-19 4.1195e-19)
(0.003 1.14732e-19 3.01267e-19)
(0.003 -5.90032e-20 2.8005e-19)
(0.003 -4.18373e-20 2.43389e-19)
(0.003 5.12373e-20 2.26564e-19)
(0.003 2.60055e-20 1.82442e-19)
(0.003 1.4606e-20 8.61433e-20)
(0.003 -3.76484e-20 5.84036e-20)
(0.003 -7.99265e-20 9.58898e-20)
(0.003 -1.05782e-19 6.16733e-20)
(0.003 3.907e-19 6.88402e-19)
(0.003 3.16449e-19 1.14687e-18)
(0.003 1.65674e-19 1.36755e-18)
(0.003 3.33997e-19 1.50476e-18)
(0.003 4.38992e-19 1.48451e-18)
(0.003 5.17215e-19 1.57974e-18)
(0.003 5.10573e-19 1.58309e-18)
(0.003 4.69226e-19 1.39373e-18)
(0.003 4.02802e-19 1.31717e-18)
(0.003 4.7588e-19 1.34227e-18)
(0.003 4.78687e-19 1.34617e-18)
(0.003 3.25933e-19 1.35409e-18)
(0.003 2.88437e-19 1.16606e-18)
(0.003 3.04532e-19 1.08425e-18)
(0.003 5.23232e-19 1.09869e-18)
(0.003 6.37808e-19 9.85906e-19)
(0.003 3.00158e-19 9.16737e-19)
(0.003 2.5085e-19 9.54726e-19)
(0.003 3.28733e-19 7.7304e-19)
(0.003 2.18065e-19 6.0256e-19)
(0.003 1.61567e-19 7.01461e-19)
(0.003 2.22528e-19 7.62847e-19)
(0.003 2.9977e-19 7.51534e-19)
(0.003 2.78814e-19 7.49385e-19)
(0.003 3.21988e-19 7.09603e-19)
(0.003 1.83955e-19 5.58719e-19)
(0.003 1.26006e-19 5.21916e-19)
(0.003 1.02748e-19 5.16713e-19)
(0.003 1.38294e-19 5.74871e-19)
(0.003 5.93829e-20 5.59995e-19)
(0.003 5.97947e-20 4.05889e-19)
(0.003 2.97664e-20 2.90171e-19)
(0.003 -6.57882e-20 3.40318e-19)
(0.003 -1.84906e-20 2.61646e-19)
(0.003 7.69257e-20 2.11664e-19)
(0.003 6.62431e-20 1.85337e-19)
(0.003 4.42047e-20 1.10073e-19)
(0.003 2.56148e-20 7.76631e-20)
(0.003 -4.83824e-20 9.83432e-20)
(0.003 9.04e-21 8.20393e-20)
(0.003 2.00461e-19 7.66325e-19)
(0.003 2.58717e-19 1.26091e-18)
(0.003 1.42825e-19 1.40516e-18)
(0.003 1.99327e-19 1.59705e-18)
(0.003 2.92867e-19 1.66189e-18)
(0.003 2.22562e-19 1.74664e-18)
(0.003 1.41379e-19 1.64988e-18)
(0.003 4.46795e-19 1.44021e-18)
(0.003 5.86754e-19 1.31871e-18)
(0.003 5.31471e-19 1.45033e-18)
(0.003 3.96025e-19 1.431e-18)
(0.003 2.61246e-19 1.30085e-18)
(0.003 3.14567e-19 1.19066e-18)
(0.003 2.99702e-19 1.19802e-18)
(0.003 3.95322e-19 1.27729e-18)
(0.003 5.34171e-19 1.23951e-18)
(0.003 3.09933e-19 1.00088e-18)
(0.003 1.55499e-19 8.58259e-19)
(0.003 2.86501e-19 8.28351e-19)
(0.003 3.41236e-19 6.70507e-19)
(0.003 2.13979e-19 6.79138e-19)
(0.003 1.56225e-19 8.13609e-19)
(0.003 2.00971e-19 8.3781e-19)
(0.003 2.49811e-19 8.02363e-19)
(0.003 2.07946e-19 7.66186e-19)
(0.003 1.68513e-19 6.29759e-19)
(0.003 1.33889e-19 5.25712e-19)
(0.003 1.02605e-19 5.60452e-19)
(0.003 9.54516e-20 6.053e-19)
(0.003 -4.94473e-21 4.61223e-19)
(0.003 7.73515e-20 3.77034e-19)
(0.003 1.05698e-19 3.30598e-19)
(0.003 -3.46309e-20 2.59684e-19)
(0.003 -2.10879e-20 2.11067e-19)
(0.003 2.3237e-20 2.29064e-19)
(0.003 -1.08214e-20 1.95576e-19)
(0.003 1.34513e-20 7.97518e-20)
(0.003 4.71757e-20 -2.00157e-20)
(0.003 -6.37117e-20 1.00478e-19)
(0.003 -6.21326e-20 1.67435e-19)
(0.003 3.17921e-20 7.64161e-19)
(0.003 1.90803e-19 1.28331e-18)
(0.003 1.33691e-19 1.44112e-18)
(0.003 1.21146e-19 1.65291e-18)
(0.003 2.01822e-19 1.79079e-18)
(0.003 2.12824e-19 1.76954e-18)
(0.003 2.07236e-19 1.68153e-18)
(0.003 4.2855e-19 1.69038e-18)
(0.003 5.92015e-19 1.56991e-18)
(0.003 4.39144e-19 1.41088e-18)
(0.003 3.65888e-19 1.38153e-18)
(0.003 3.94392e-19 1.40044e-18)
(0.003 3.36081e-19 1.32028e-18)
(0.003 3.28793e-19 1.19394e-18)
(0.003 2.26334e-19 1.32715e-18)
(0.003 2.30196e-19 1.28706e-18)
(0.003 2.3652e-19 1.06923e-18)
(0.003 4.81767e-20 8.70689e-19)
(0.003 7.35322e-20 7.79378e-19)
(0.003 2.80413e-19 6.91659e-19)
(0.003 3.08257e-19 7.05684e-19)
(0.003 3.57098e-19 8.63063e-19)
(0.003 3.22385e-19 8.88168e-19)
(0.003 2.63417e-19 8.3848e-19)
(0.003 1.59563e-19 7.74888e-19)
(0.003 2.22338e-19 6.25703e-19)
(0.003 2.17293e-19 5.96127e-19)
(0.003 2.69119e-20 5.4145e-19)
(0.003 -1.17233e-19 5.30877e-19)
(0.003 -3.31854e-20 5.32694e-19)
(0.003 2.14517e-19 4.54536e-19)
(0.003 2.17841e-19 3.31257e-19)
(0.003 -1.63046e-20 2.04546e-19)
(0.003 -5.20935e-20 2.44702e-19)
(0.003 -1.89626e-20 2.81502e-19)
(0.003 4.29035e-20 1.17994e-19)
(0.003 4.30243e-20 3.5102e-21)
(0.003 3.05632e-20 -4.69147e-20)
(0.003 1.1446e-19 1.19871e-20)
(0.003 8.63951e-20 1.44832e-19)
(0.003 4.27657e-20 9.31812e-19)
(0.003 2.2181e-19 1.46173e-18)
(0.003 2.29326e-19 1.49087e-18)
(0.003 6.94026e-20 1.65756e-18)
(0.003 1.9237e-19 1.82723e-18)
(0.003 2.23295e-19 1.88817e-18)
(0.003 2.84161e-19 1.76318e-18)
(0.003 5.16401e-19 1.67898e-18)
(0.003 5.38385e-19 1.6896e-18)
(0.003 4.03348e-19 1.61607e-18)
(0.003 2.74398e-19 1.52668e-18)
(0.003 2.58396e-19 1.40831e-18)
(0.003 2.73943e-19 1.35929e-18)
(0.003 3.57384e-19 1.28785e-18)
(0.003 2.31811e-19 1.29174e-18)
(0.003 1.62744e-19 1.287e-18)
(0.003 1.92156e-19 1.04849e-18)
(0.003 1.78346e-19 8.0232e-19)
(0.003 1.6967e-19 7.1486e-19)
(0.003 1.12409e-19 7.50595e-19)
(0.003 2.252e-19 8.54485e-19)
(0.003 3.16154e-19 9.21873e-19)
(0.003 2.53509e-19 8.98164e-19)
(0.003 1.91982e-19 9.20427e-19)
(0.003 9.14493e-20 7.72347e-19)
(0.003 2.65975e-19 6.34195e-19)
(0.003 1.85177e-19 5.98573e-19)
(0.003 9.42263e-20 4.88273e-19)
(0.003 2.35139e-20 4.5649e-19)
(0.003 3.51988e-20 4.54517e-19)
(0.003 8.7809e-20 4.79761e-19)
(0.003 7.87197e-20 3.40926e-19)
(0.003 5.36646e-20 1.14427e-19)
(0.003 5.2316e-20 1.38901e-19)
(0.003 9.0559e-20 2.28641e-19)
(0.003 1.60255e-19 2.54935e-19)
(0.003 4.0767e-20 1.08612e-19)
(0.003 2.90139e-20 -2.12061e-20)
(0.003 8.15151e-20 2.83293e-20)
(0.003 4.93814e-20 1.05077e-19)
(0.003 1.60236e-19 8.16421e-19)
(0.003 1.77421e-19 1.37931e-18)
(0.003 1.99007e-19 1.52857e-18)
(0.003 1.98057e-19 1.71746e-18)
(0.003 2.23642e-19 1.92985e-18)
(0.003 2.80381e-19 1.92474e-18)
(0.003 3.8885e-19 1.80451e-18)
(0.003 3.52062e-19 1.82351e-18)
(0.003 3.14961e-19 1.80344e-18)
(0.003 3.57993e-19 1.73493e-18)
(0.003 2.02289e-19 1.58771e-18)
(0.003 1.72567e-19 1.46548e-18)
(0.003 2.82465e-19 1.33313e-18)
(0.003 3.08495e-19 1.25557e-18)
(0.003 2.61961e-19 1.34102e-18)
(0.003 1.7479e-19 1.35774e-18)
(0.003 9.08592e-20 1.10156e-18)
(0.003 1.60143e-19 8.00915e-19)
(0.003 2.88372e-19 6.47174e-19)
(0.003 2.61173e-19 6.03203e-19)
(0.003 1.27613e-19 8.05959e-19)
(0.003 1.17506e-19 1.00172e-18)
(0.003 1.71689e-19 9.855e-19)
(0.003 1.17855e-19 9.76054e-19)
(0.003 1.65976e-19 7.81511e-19)
(0.003 2.19682e-19 6.72606e-19)
(0.003 2.32858e-19 5.92061e-19)
(0.003 2.13025e-19 5.32003e-19)
(0.003 1.19622e-19 3.7895e-19)
(0.003 1.09779e-19 4.11164e-19)
(0.003 -5.46352e-20 4.99055e-19)
(0.003 -5.49996e-20 3.49973e-19)
(0.003 6.45855e-20 2.51208e-19)
(0.003 1.12812e-19 2.60539e-19)
(0.003 1.63578e-19 2.08826e-19)
(0.003 6.0158e-21 5.83891e-20)
(0.003 -4.3612e-20 -2.87327e-20)
(0.003 2.00575e-20 1.6473e-20)
(0.003 2.41404e-20 4.78038e-20)
(0.003 4.11901e-20 3.39455e-20)
(0.003 -5.97083e-20 8.33266e-19)
(0.003 -3.45086e-20 1.56695e-18)
(0.003 1.33658e-19 1.68598e-18)
(0.003 1.78451e-19 1.7899e-18)
(0.003 2.67978e-19 1.89665e-18)
(0.003 4.23e-19 1.97336e-18)
(0.003 4.05967e-19 1.91808e-18)
(0.003 1.50178e-19 1.83332e-18)
(0.003 9.63944e-20 1.81423e-18)
(0.003 2.52083e-19 1.80668e-18)
(0.003 2.40301e-19 1.59208e-18)
(0.003 1.53962e-19 1.49032e-18)
(0.003 2.15838e-19 1.40873e-18)
(0.003 2.14377e-19 1.2777e-18)
(0.003 2.60119e-19 1.29959e-18)
(0.003 1.82565e-19 1.28675e-18)
(0.003 2.27686e-19 1.09631e-18)
(0.003 1.947e-19 7.90966e-19)
(0.003 6.74459e-20 7.8961e-19)
(0.003 1.69842e-19 7.89572e-19)
(0.003 2.08023e-19 7.5644e-19)
(0.003 1.96342e-19 9.73156e-19)
(0.003 2.72691e-19 1.07635e-18)
(0.003 2.527e-19 1.03553e-18)
(0.003 2.48446e-19 7.92369e-19)
(0.003 1.34739e-19 6.54957e-19)
(0.003 6.51814e-20 5.99921e-19)
(0.003 1.17514e-19 5.34942e-19)
(0.003 1.39636e-19 3.9947e-19)
(0.003 1.11759e-19 4.26661e-19)
(0.003 -8.68384e-20 4.42389e-19)
(0.003 -1.17163e-19 3.76437e-19)
(0.003 5.49125e-20 2.81259e-19)
(0.003 6.21016e-20 1.90826e-19)
(0.003 5.51271e-21 -2.28825e-20)
(0.003 2.46976e-20 -2.0346e-19)
(0.003 1.16769e-19 -6.36157e-21)
(0.003 3.32828e-20 6.09518e-20)
(0.003 -1.57198e-20 3.81101e-21)
(0.003 -1.74526e-20 -3.10541e-20)
(0.003 -1.93057e-19 8.90887e-19)
(0.003 -3.82358e-20 1.42727e-18)
(0.003 1.7565e-19 1.62164e-18)
(0.003 3.20962e-19 1.87252e-18)
(0.003 2.39872e-19 2.04001e-18)
(0.003 2.14143e-19 2.04795e-18)
(0.003 3.34519e-19 2.01518e-18)
(0.003 2.57102e-19 1.93921e-18)
(0.003 1.82418e-19 1.75126e-18)
(0.003 1.50318e-19 1.72207e-18)
(0.003 2.70538e-19 1.61109e-18)
(0.003 1.60957e-19 1.44517e-18)
(0.003 6.25697e-20 1.38897e-18)
(0.003 1.41427e-19 1.31656e-18)
(0.003 2.40185e-19 1.33398e-18)
(0.003 2.69511e-19 1.30027e-18)
(0.003 2.70881e-19 1.08941e-18)
(0.003 1.28243e-19 8.39107e-19)
(0.003 -7.70302e-20 7.03542e-19)
(0.003 3.65691e-20 6.73287e-19)
(0.003 3.34414e-19 8.51867e-19)
(0.003 3.96188e-19 1.07512e-18)
(0.003 2.1408e-19 1.16039e-18)
(0.003 2.75274e-19 1.12611e-18)
(0.003 3.80609e-19 9.3357e-19)
(0.003 1.31628e-19 6.80918e-19)
(0.003 -1.5379e-19 4.81044e-19)
(0.003 -1.0199e-19 4.90426e-19)
(0.003 6.39036e-20 5.30029e-19)
(0.003 1.33224e-19 4.51126e-19)
(0.003 2.57786e-20 3.44672e-19)
(0.003 -4.99498e-20 3.87149e-19)
(0.003 4.03783e-20 3.43911e-19)
(0.003 -2.66309e-20 2.08019e-19)
(0.003 -1.0622e-19 2.89433e-20)
(0.003 1.21634e-19 -2.4944e-19)
(0.003 1.77518e-19 -3.84621e-19)
(0.003 9.71613e-20 -3.15459e-19)
(0.003 5.76565e-20 -1.70386e-19)
(0.003 2.32008e-20 -1.66832e-19)
(0.003 4.13446e-20 1.0553e-18)
(0.003 1.76105e-19 1.60916e-18)
(0.003 2.41923e-19 1.74712e-18)
(0.003 2.76896e-19 1.90905e-18)
(0.003 1.97337e-19 1.97033e-18)
(0.003 2.1899e-19 2.02808e-18)
(0.003 2.0049e-19 2.11085e-18)
(0.003 2.31847e-19 2.02138e-18)
(0.003 1.56686e-19 1.85273e-18)
(0.003 1.48038e-19 1.65588e-18)
(0.003 2.33495e-19 1.47741e-18)
(0.003 1.68729e-19 1.39323e-18)
(0.003 9.17901e-20 1.35242e-18)
(0.003 1.73867e-19 1.19815e-18)
(0.003 1.82669e-19 1.31708e-18)
(0.003 2.62071e-19 1.36445e-18)
(0.003 2.35406e-19 1.1553e-18)
(0.003 1.20853e-19 7.77486e-19)
(0.003 7.80149e-20 6.77993e-19)
(0.003 9.943e-20 7.92136e-19)
(0.003 2.47839e-19 9.65774e-19)
(0.003 3.37933e-19 1.13301e-18)
(0.003 2.39221e-19 1.1762e-18)
(0.003 1.63479e-19 1.14768e-18)
(0.003 1.53248e-19 8.81644e-19)
(0.003 2.71443e-20 5.5581e-19)
(0.003 1.52019e-20 5.22356e-19)
(0.003 4.32165e-20 5.53882e-19)
(0.003 1.9781e-20 4.8301e-19)
(0.003 3.24725e-20 5.44424e-19)
(0.003 1.26996e-20 5.08309e-19)
(0.003 -2.74383e-20 3.52262e-19)
(0.003 4.2365e-20 2.30236e-19)
(0.003 2.22553e-20 1.58256e-19)
(0.003 -2.12523e-20 6.63319e-20)
(0.003 -5.91728e-20 -1.59719e-19)
(0.003 -1.10296e-19 -4.9543e-19)
(0.003 1.50779e-20 -3.4674e-19)
(0.003 7.22137e-20 -2.66667e-19)
(0.003 9.90457e-20 -2.60918e-19)
(0.003 1.99657e-19 1.06222e-18)
(0.003 2.08513e-19 1.667e-18)
(0.003 1.62542e-19 1.79663e-18)
(0.003 1.61395e-19 1.86539e-18)
(0.003 2.48512e-19 2.02611e-18)
(0.003 1.98655e-19 2.13923e-18)
(0.003 1.50318e-19 2.05466e-18)
(0.003 2.69386e-19 2.04578e-18)
(0.003 1.40369e-19 1.77569e-18)
(0.003 5.93922e-20 1.6912e-18)
(0.003 1.88976e-19 1.56541e-18)
(0.003 1.93733e-19 1.36926e-18)
(0.003 1.5196e-19 1.36773e-18)
(0.003 1.80764e-19 1.27049e-18)
(0.003 1.38683e-19 1.26884e-18)
(0.003 1.11724e-19 1.29153e-18)
(0.003 1.15667e-19 1.13407e-18)
(0.003 2.37454e-19 8.69111e-19)
(0.003 3.55852e-19 7.77271e-19)
(0.003 2.6739e-19 8.39467e-19)
(0.003 1.47473e-19 9.77603e-19)
(0.003 8.50124e-20 1.06854e-18)
(0.003 4.95026e-20 1.05509e-18)
(0.003 9.69366e-20 1.04047e-18)
(0.003 -3.95671e-20 9.51952e-19)
(0.003 -4.7732e-20 7.06197e-19)
(0.003 7.9024e-20 5.94607e-19)
(0.003 9.55629e-20 5.61083e-19)
(0.003 3.15322e-20 4.31884e-19)
(0.003 -1.62472e-19 5.2949e-19)
(0.003 4.31657e-20 5.37272e-19)
(0.003 1.54624e-19 3.59298e-19)
(0.003 -1.60436e-20 1.89168e-19)
(0.003 8.19832e-20 8.34214e-20)
(0.003 1.48197e-19 -1.75596e-21)
(0.003 -1.39138e-19 -1.93754e-19)
(0.003 -2.60308e-19 -4.51894e-19)
(0.003 -7.99794e-20 -3.79001e-19)
(0.003 3.35491e-21 -3.69869e-19)
(0.003 3.70579e-21 -4.46361e-19)
(0.003 2.48582e-19 1.06382e-18)
(0.003 2.91781e-19 1.67425e-18)
(0.003 2.39865e-19 1.80136e-18)
(0.003 2.56162e-19 2.00459e-18)
(0.003 1.12235e-19 2.13065e-18)
(0.003 -1.90617e-21 2.10331e-18)
(0.003 1.68425e-19 2.02407e-18)
(0.003 1.43313e-19 1.98475e-18)
(0.003 1.46291e-19 1.77172e-18)
(0.003 1.40218e-19 1.66028e-18)
(0.003 3.50815e-20 1.56929e-18)
(0.003 1.54588e-19 1.4731e-18)
(0.003 2.61162e-19 1.42502e-18)
(0.003 2.08501e-19 1.35515e-18)
(0.003 1.65647e-19 1.30047e-18)
(0.003 8.62736e-20 1.24498e-18)
(0.003 1.32481e-19 1.04416e-18)
(0.003 1.97883e-19 8.41317e-19)
(0.003 2.59122e-19 8.9108e-19)
(0.003 3.06e-19 9.51591e-19)
(0.003 1.8659e-19 8.93929e-19)
(0.003 9.45701e-20 1.01621e-18)
(0.003 1.12627e-19 1.06366e-18)
(0.003 4.21192e-21 1.05091e-18)
(0.003 -1.69594e-19 8.86412e-19)
(0.003 -1.4095e-19 6.63987e-19)
(0.003 -1.10367e-19 6.09107e-19)
(0.003 5.1016e-20 5.60945e-19)
(0.003 3.14381e-20 5.03845e-19)
(0.003 -1.63525e-19 4.79329e-19)
(0.003 -1.4332e-21 5.25235e-19)
(0.003 1.61795e-19 4.37853e-19)
(0.003 2.53945e-20 2.10673e-19)
(0.003 7.33142e-20 1.26087e-19)
(0.003 1.45063e-19 3.81444e-20)
(0.003 -9.24387e-21 -3.67662e-19)
(0.003 -8.26879e-20 -4.66303e-19)
(0.003 -1.45599e-19 -3.03918e-19)
(0.003 -1.9549e-19 -3.13844e-19)
(0.003 -1.84768e-19 -3.93726e-19)
(0.003 6.24585e-21 1.14152e-18)
(0.003 2.00645e-19 1.79104e-18)
(0.003 2.64594e-19 1.89294e-18)
(0.003 1.46838e-19 2.02996e-18)
(0.003 -1.76829e-20 2.07549e-18)
(0.003 -2.31467e-20 2.08517e-18)
(0.003 5.5676e-20 1.99565e-18)
(0.003 1.35953e-19 1.85675e-18)
(0.003 1.96468e-19 1.74828e-18)
(0.003 6.72308e-20 1.74615e-18)
(0.003 -2.65781e-20 1.61275e-18)
(0.003 2.24183e-19 1.46766e-18)
(0.003 2.96458e-19 1.47629e-18)
(0.003 1.6149e-19 1.36265e-18)
(0.003 8.5583e-20 1.31878e-18)
(0.003 7.74388e-20 1.25264e-18)
(0.003 2.09173e-19 1.14783e-18)
(0.003 3.62319e-19 9.47767e-19)
(0.003 3.11666e-19 8.24429e-19)
(0.003 2.17447e-19 8.85224e-19)
(0.003 2.43318e-19 9.36579e-19)
(0.003 1.06208e-19 1.04051e-18)
(0.003 5.03773e-20 1.0692e-18)
(0.003 -6.37604e-20 1.02905e-18)
(0.003 -9.99402e-20 9.11303e-19)
(0.003 -2.4578e-20 6.34875e-19)
(0.003 -1.79835e-20 5.1838e-19)
(0.003 -4.95779e-20 6.20537e-19)
(0.003 -9.36011e-20 5.70441e-19)
(0.003 -7.64583e-20 4.22443e-19)
(0.003 -2.05777e-19 5.37296e-19)
(0.003 -9.00885e-20 4.89552e-19)
(0.003 7.87479e-20 2.97049e-19)
(0.003 -2.314e-20 1.53049e-19)
(0.003 -9.17373e-20 -1.71701e-20)
(0.003 -3.6546e-20 -3.55235e-19)
(0.003 -1.67877e-20 -5.45796e-19)
(0.003 -6.89105e-20 -5.35654e-19)
(0.003 -1.86469e-19 -4.58213e-19)
(0.003 -2.95171e-19 -4.84683e-19)
(0.003 -2.18899e-19 1.16485e-18)
(0.003 -1.70544e-19 1.77348e-18)
(0.003 1.22487e-19 1.95143e-18)
(0.003 5.48449e-20 1.98319e-18)
(0.003 3.51984e-20 2.08038e-18)
(0.003 2.42502e-20 2.06442e-18)
(0.003 1.7708e-20 1.9972e-18)
(0.003 1.06576e-19 1.86572e-18)
(0.003 8.41341e-20 1.77487e-18)
(0.003 -8.01496e-20 1.74181e-18)
(0.003 8.07103e-20 1.61514e-18)
(0.003 2.55006e-19 1.56083e-18)
(0.003 2.15029e-19 1.53664e-18)
(0.003 1.11355e-19 1.37037e-18)
(0.003 1.2708e-19 1.22334e-18)
(0.003 1.54262e-19 1.22186e-18)
(0.003 1.92729e-19 1.15501e-18)
(0.003 3.06532e-19 1.01752e-18)
(0.003 2.65099e-19 9.68184e-19)
(0.003 2.07443e-19 9.57915e-19)
(0.003 2.44899e-19 9.53103e-19)
(0.003 1.39839e-19 9.9803e-19)
(0.003 -1.21329e-20 1.10141e-18)
(0.003 -1.69161e-19 1.05667e-18)
(0.003 -1.23277e-19 8.52918e-19)
(0.003 8.54821e-20 7.10889e-19)
(0.003 1.50248e-19 5.54414e-19)
(0.003 -7.44919e-20 5.83456e-19)
(0.003 -1.47201e-19 5.4037e-19)
(0.003 -7.29429e-20 3.79787e-19)
(0.003 -1.15128e-19 4.60514e-19)
(0.003 -1.46924e-19 4.60838e-19)
(0.003 -2.13617e-20 3.61127e-19)
(0.003 -1.50451e-20 1.16241e-19)
(0.003 -6.69148e-20 -3.6298e-20)
(0.003 -6.24384e-20 -3.02459e-19)
(0.003 -1.41241e-19 -4.93393e-19)
(0.003 -1.01748e-19 -4.35769e-19)
(0.003 -1.06158e-19 -4.46273e-19)
(0.003 -2.23915e-19 -5.16068e-19)
(0.003 -8.17111e-20 1.08687e-18)
(0.003 -2.52141e-19 1.77729e-18)
(0.003 -1.73355e-19 2.07442e-18)
(0.003 -1.54297e-19 2.1002e-18)
(0.003 -5.35026e-21 2.11024e-18)
(0.003 2.92224e-20 2.05709e-18)
(0.003 -3.38408e-20 1.94963e-18)
(0.003 2.9054e-20 1.89884e-18)
(0.003 4.34824e-20 1.78506e-18)
(0.003 1.9187e-20 1.62005e-18)
(0.003 1.06296e-19 1.63408e-18)
(0.003 1.23634e-19 1.63947e-18)
(0.003 2.34747e-20 1.60289e-18)
(0.003 1.33988e-19 1.40505e-18)
(0.003 2.63506e-19 1.31406e-18)
(0.003 1.66994e-19 1.25828e-18)
(0.003 1.40405e-19 1.12676e-18)
(0.003 1.72748e-19 9.87648e-19)
(0.003 2.08376e-19 9.20905e-19)
(0.003 1.58234e-19 8.97389e-19)
(0.003 1.80835e-19 9.73029e-19)
(0.003 1.40227e-19 1.11138e-18)
(0.003 4.73092e-20 1.14198e-18)
(0.003 -1.62675e-19 9.16213e-19)
(0.003 -1.24475e-19 7.04027e-19)
(0.003 -9.24456e-20 7.39389e-19)
(0.003 2.66697e-20 6.26861e-19)
(0.003 4.77671e-20 5.15974e-19)
(0.003 -4.06187e-20 5.32628e-19)
(0.003 1.28204e-20 4.14567e-19)
(0.003 -3.80564e-20 3.88269e-19)
(0.003 -4.60821e-20 4.14591e-19)
(0.003 -2.1756e-20 3.90467e-19)
(0.003 -9.84619e-20 2.14507e-19)
(0.003 -1.99511e-19 -1.64047e-20)
(0.003 -1.44059e-19 -3.43724e-19)
(0.003 -4.99218e-20 -4.19666e-19)
(0.003 -1.38802e-19 -2.36107e-19)
(0.003 -1.63404e-19 -2.99223e-19)
(0.003 -8.3449e-20 -4.27789e-19)
(0.003 -1.53902e-19 1.01434e-18)
(0.003 -1.23629e-19 1.70404e-18)
(0.003 -7.46861e-20 2.01707e-18)
(0.003 -1.59838e-19 2.04986e-18)
(0.003 -1.65875e-19 2.11694e-18)
(0.003 -3.81557e-20 2.07587e-18)
(0.003 -6.40929e-20 2.05253e-18)
(0.003 -1.36689e-19 2.0154e-18)
(0.003 6.48417e-20 1.88866e-18)
(0.003 2.74227e-19 1.69015e-18)
(0.003 1.35427e-19 1.62234e-18)
(0.003 5.97769e-20 1.65413e-18)
(0.003 -6.36832e-20 1.55746e-18)
(0.003 3.10052e-20 1.48418e-18)
(0.003 2.52666e-19 1.33854e-18)
(0.003 2.52633e-19 1.21978e-18)
(0.003 1.22339e-19 1.07183e-18)
(0.003 6.14092e-22 1.00014e-18)
(0.003 1.85626e-19 1.0403e-18)
(0.003 2.68623e-19 9.63841e-19)
(0.003 2.64161e-19 1.05932e-18)
(0.003 4.89761e-22 1.02914e-18)
(0.003 -1.93761e-19 9.99134e-19)
(0.003 -1.53648e-19 7.82887e-19)
(0.003 -4.52057e-20 7.19007e-19)
(0.003 -3.07319e-20 6.91431e-19)
(0.003 5.27143e-20 5.84609e-19)
(0.003 1.05892e-19 6.37228e-19)
(0.003 5.37043e-20 5.35433e-19)
(0.003 5.98784e-20 4.37688e-19)
(0.003 9.43272e-21 3.54121e-19)
(0.003 -1.00443e-19 3.29961e-19)
(0.003 -1.79814e-19 3.66184e-19)
(0.003 -2.0377e-19 3.13969e-19)
(0.003 -2.7657e-19 1.06231e-19)
(0.003 -2.21776e-19 -2.08558e-19)
(0.003 2.44506e-20 -3.13692e-19)
(0.003 5.26852e-20 -2.1282e-19)
(0.003 -8.90379e-20 -3.75725e-19)
(0.003 -8.80392e-20 -5.41358e-19)
(0.003 -1.95358e-19 9.55924e-19)
(0.003 -1.79924e-19 1.7519e-18)
(0.003 -1.3016e-19 2.12047e-18)
(0.003 -1.75074e-20 2.08278e-18)
(0.003 6.02134e-21 2.00406e-18)
(0.003 -8.41765e-20 2.0892e-18)
(0.003 -1.97697e-19 2.05141e-18)
(0.003 -2.09767e-19 1.97988e-18)
(0.003 1.20655e-20 1.95942e-18)
(0.003 1.61485e-19 1.83608e-18)
(0.003 1.2997e-19 1.63925e-18)
(0.003 3.1191e-20 1.61404e-18)
(0.003 8.38444e-20 1.5461e-18)
(0.003 4.33002e-20 1.48024e-18)
(0.003 1.20343e-19 1.44505e-18)
(0.003 1.6462e-19 1.32146e-18)
(0.003 1.15556e-19 1.13116e-18)
(0.003 1.68793e-19 9.17961e-19)
(0.003 2.35113e-19 9.4191e-19)
(0.003 2.66004e-19 1.0007e-18)
(0.003 6.24837e-20 1.07277e-18)
(0.003 -2.2121e-19 1.07708e-18)
(0.003 -2.73774e-19 9.52673e-19)
(0.003 -7.66408e-20 7.48517e-19)
(0.003 -4.19866e-20 7.40249e-19)
(0.003 6.72366e-20 7.78953e-19)
(0.003 1.34837e-19 7.0898e-19)
(0.003 3.13248e-20 5.93395e-19)
(0.003 6.79787e-20 5.09498e-19)
(0.003 1.13158e-19 4.42026e-19)
(0.003 1.03517e-19 3.09695e-19)
(0.003 -1.55059e-19 2.51458e-19)
(0.003 -2.05461e-19 2.96522e-19)
(0.003 -1.03653e-19 3.2255e-19)
(0.003 -1.58183e-19 1.20401e-19)
(0.003 -1.67323e-19 1.47899e-21)
(0.003 -1.1478e-19 -1.12099e-19)
(0.003 5.22249e-21 -1.67011e-19)
(0.003 9.99411e-20 -3.60696e-19)
(0.003 9.21461e-20 -4.64014e-19)
(0.003 -1.23083e-19 9.76441e-19)
(0.003 -1.32358e-19 1.68839e-18)
(0.003 -1.46024e-19 1.97255e-18)
(0.003 2.42095e-20 2.09727e-18)
(0.003 -1.52783e-20 2.13411e-18)
(0.003 -2.61168e-19 2.06167e-18)
(0.003 -2.6444e-19 2.02677e-18)
(0.003 -1.11646e-19 2.06252e-18)
(0.003 8.64065e-20 2.01027e-18)
(0.003 8.20099e-20 1.86695e-18)
(0.003 1.11673e-20 1.66274e-18)
(0.003 5.69013e-20 1.63055e-18)
(0.003 1.51704e-19 1.58172e-18)
(0.003 1.75432e-19 1.5026e-18)
(0.003 2.37274e-20 1.45048e-18)
(0.003 -6.65632e-21 1.36567e-18)
(0.003 4.79441e-20 1.23832e-18)
(0.003 1.6154e-19 1.03143e-18)
(0.003 2.81734e-19 9.71884e-19)
(0.003 1.24108e-19 9.73546e-19)
(0.003 -1.46161e-19 9.96914e-19)
(0.003 -1.69933e-19 9.40584e-19)
(0.003 -8.98287e-20 9.76849e-19)
(0.003 -1.24785e-20 8.85969e-19)
(0.003 -6.88277e-20 7.23248e-19)
(0.003 -3.49917e-20 7.08595e-19)
(0.003 1.55244e-19 7.19835e-19)
(0.003 1.79392e-19 6.09657e-19)
(0.003 1.01617e-19 4.68772e-19)
(0.003 2.17566e-20 4.79978e-19)
(0.003 1.80379e-20 3.72967e-19)
(0.003 -4.37653e-20 1.87268e-19)
(0.003 -8.06451e-20 2.59236e-19)
(0.003 -4.74959e-20 4.01195e-19)
(0.003 -2.00727e-20 1.98565e-19)
(0.003 -4.78075e-20 7.13147e-20)
(0.003 -1.91741e-20 -2.46983e-20)
(0.003 -5.44587e-20 -1.11118e-19)
(0.003 5.51825e-20 -3.16742e-19)
(0.003 1.29546e-19 -4.05787e-19)
(0.003 1.12089e-19 1.01839e-18)
(0.003 1.10819e-19 1.7018e-18)
(0.003 1.25671e-20 1.88624e-18)
(0.003 -8.24144e-20 1.97525e-18)
(0.003 -2.86537e-19 2.07656e-18)
(0.003 -2.17284e-19 2.01164e-18)
(0.003 -8.43994e-20 1.97714e-18)
(0.003 -9.24889e-20 2.05881e-18)
(0.003 -6.57892e-20 2.11814e-18)
(0.003 4.40576e-20 1.99267e-18)
(0.003 1.48301e-19 1.71745e-18)
(0.003 1.59338e-19 1.68825e-18)
(0.003 2.03408e-19 1.55423e-18)
(0.003 2.34315e-19 1.5667e-18)
(0.003 2.84112e-21 1.53087e-18)
(0.003 -1.9151e-19 1.4125e-18)
(0.003 -1.87584e-19 1.1803e-18)
(0.003 -1.4548e-19 9.51597e-19)
(0.003 1.69127e-20 1.03306e-18)
(0.003 1.7605e-20 9.2792e-19)
(0.003 -9.52494e-20 9.17074e-19)
(0.003 -3.75019e-20 1.00844e-18)
(0.003 -1.54828e-20 1.05073e-18)
(0.003 7.31634e-20 9.24927e-19)
(0.003 1.51262e-19 6.99713e-19)
(0.003 2.79351e-20 6.42877e-19)
(0.003 3.15212e-20 7.67867e-19)
(0.003 9.48995e-20 6.9888e-19)
(0.003 9.26094e-20 5.24547e-19)
(0.003 -1.07188e-20 3.70283e-19)
(0.003 -4.69988e-20 3.98998e-19)
(0.003 -2.35937e-20 2.30614e-19)
(0.003 -9.90941e-21 2.33258e-19)
(0.003 -5.08201e-21 3.43778e-19)
(0.003 8.461e-20 2.40124e-19)
(0.003 9.76836e-20 1.80887e-19)
(0.003 5.31875e-20 1.36698e-20)
(0.003 -1.17931e-20 -2.54207e-19)
(0.003 -2.9941e-20 -4.78229e-19)
(0.003 -5.28661e-20 -4.64569e-19)
(0.003 3.974e-19 1.00634e-18)
(0.003 2.62162e-19 1.64155e-18)
(0.003 -2.86922e-20 1.8249e-18)
(0.003 -1.60669e-19 1.92762e-18)
(0.003 -1.08606e-19 1.94684e-18)
(0.003 -2.38178e-20 1.96735e-18)
(0.003 2.40378e-20 1.98556e-18)
(0.003 -1.2015e-19 2.00794e-18)
(0.003 -2.19091e-19 2.04682e-18)
(0.003 -5.03579e-20 2.11436e-18)
(0.003 1.88905e-19 1.96238e-18)
(0.003 1.9167e-19 1.81304e-18)
(0.003 1.68541e-19 1.64712e-18)
(0.003 1.71496e-19 1.57525e-18)
(0.003 -5.08342e-20 1.49283e-18)
(0.003 -1.65572e-19 1.31742e-18)
(0.003 -1.45067e-19 1.11863e-18)
(0.003 -1.55074e-19 9.09588e-19)
(0.003 -2.32087e-19 1.08241e-18)
(0.003 -1.45536e-19 1.03161e-18)
(0.003 -9.79687e-20 9.58103e-19)
(0.003 -1.02213e-19 9.62833e-19)
(0.003 -5.62018e-21 9.87152e-19)
(0.003 4.61742e-20 9.4048e-19)
(0.003 2.32824e-19 8.53963e-19)
(0.003 1.98991e-19 7.05031e-19)
(0.003 -2.9583e-20 6.45168e-19)
(0.003 -8.35248e-22 6.37723e-19)
(0.003 2.57972e-20 5.69372e-19)
(0.003 -9.8357e-21 4.15601e-19)
(0.003 -1.70836e-20 3.9263e-19)
(0.003 1.79271e-21 2.26776e-19)
(0.003 -2.22152e-20 2.11836e-19)
(0.003 2.39858e-20 2.99025e-19)
(0.003 1.77918e-19 2.91413e-19)
(0.003 1.85324e-19 1.83984e-19)
(0.003 4.70837e-21 -6.15807e-20)
(0.003 -3.43967e-20 -2.75231e-19)
(0.003 -9.42026e-20 -4.39459e-19)
(0.003 -1.55584e-19 -4.05336e-19)
(0.003 3.01643e-19 1.10159e-18)
(0.003 2.1215e-19 1.71871e-18)
(0.003 -2.53349e-20 1.81784e-18)
(0.003 -3.45621e-20 1.86959e-18)
(0.003 1.22099e-19 1.92773e-18)
(0.003 1.23932e-19 1.88442e-18)
(0.003 3.03801e-20 1.89537e-18)
(0.003 -8.16659e-20 1.95672e-18)
(0.003 -1.4428e-19 2.01935e-18)
(0.003 -1.99701e-19 2.12326e-18)
(0.003 -6.85835e-20 2.01487e-18)
(0.003 7.66769e-20 1.81553e-18)
(0.003 7.90194e-20 1.70672e-18)
(0.003 -1.14868e-19 1.63974e-18)
(0.003 -1.56371e-19 1.50094e-18)
(0.003 -1.27905e-19 1.35658e-18)
(0.003 -2.0003e-19 1.16781e-18)
(0.003 -2.0613e-19 9.33573e-19)
(0.003 -3.03569e-19 9.488e-19)
(0.003 -1.62096e-19 9.94992e-19)
(0.003 -5.62236e-20 9.78144e-19)
(0.003 -6.1345e-20 9.68216e-19)
(0.003 7.75269e-20 1.04751e-18)
(0.003 1.05408e-19 9.25895e-19)
(0.003 1.52354e-19 8.23271e-19)
(0.003 2.2255e-19 7.46605e-19)
(0.003 5.72291e-20 6.93331e-19)
(0.003 5.77401e-20 7.085e-19)
(0.003 1.52101e-20 5.57959e-19)
(0.003 -6.69376e-20 3.69739e-19)
(0.003 1.51538e-20 3.63924e-19)
(0.003 1.25807e-19 2.45482e-19)
(0.003 -5.52326e-21 1.20649e-19)
(0.003 1.28935e-20 2.38388e-19)
(0.003 2.40954e-19 4.17256e-19)
(0.003 1.68736e-19 2.09978e-19)
(0.003 1.4958e-19 -2.62154e-19)
(0.003 8.72921e-21 -4.2084e-19)
(0.003 -4.77897e-20 -3.90093e-19)
(0.003 -1.50066e-20 -3.6581e-19)
(0.003 -9.68899e-20 1.12325e-18)
(0.003 -4.43927e-20 1.77827e-18)
(0.003 5.31026e-20 1.8152e-18)
(0.003 4.55204e-21 1.80054e-18)
(0.003 2.89567e-20 1.83911e-18)
(0.003 1.58744e-19 1.97633e-18)
(0.003 1.09051e-19 1.93472e-18)
(0.003 7.53887e-20 1.83399e-18)
(0.003 -9.94357e-20 1.96359e-18)
(0.003 -1.88951e-19 2.02794e-18)
(0.003 -1.11602e-19 1.99991e-18)
(0.003 -1.186e-19 1.90704e-18)
(0.003 -2.54108e-19 1.78035e-18)
(0.003 -2.30713e-19 1.50571e-18)
(0.003 -1.22426e-19 1.36544e-18)
(0.003 -1.47971e-19 1.24663e-18)
(0.003 -2.17972e-19 1.11088e-18)
(0.003 -2.06846e-19 9.91261e-19)
(0.003 -1.82031e-19 9.98467e-19)
(0.003 -2.23051e-19 1.06061e-18)
(0.003 -1.60651e-19 9.96781e-19)
(0.003 6.88041e-20 9.23621e-19)
(0.003 1.40169e-19 9.92399e-19)
(0.003 1.25792e-19 9.75206e-19)
(0.003 1.64311e-19 9.49388e-19)
(0.003 8.02243e-20 8.5105e-19)
(0.003 3.2347e-20 7.17318e-19)